 Entering Gaussian System, Link 0=g16
 Input=int_zmat_field_N25.gjf
 Output=int_zmat_field_N25.out
 Initial command:
 /software/gaussian/g16-a03/l1.exe "/local_scratch/11171401/Gau-5709.inp" -scrdir="/local_scratch/11171401/"
 Entering Link 1 = /software/gaussian/g16-a03/l1.exe PID=      5710.
  
 Copyright (c) 1988,1990,1992,1993,1995,1998,2003,2009,2016,
            Gaussian, Inc.  All Rights Reserved.
  
 This is part of the Gaussian(R) 16 program.  It is based on
 the Gaussian(R) 09 system (copyright 2009, Gaussian, Inc.),
 the Gaussian(R) 03 system (copyright 2003, Gaussian, Inc.),
 the Gaussian(R) 98 system (copyright 1998, Gaussian, Inc.),
 the Gaussian(R) 94 system (copyright 1995, Gaussian, Inc.),
 the Gaussian 92(TM) system (copyright 1992, Gaussian, Inc.),
 the Gaussian 90(TM) system (copyright 1990, Gaussian, Inc.),
 the Gaussian 88(TM) system (copyright 1988, Gaussian, Inc.),
 the Gaussian 86(TM) system (copyright 1986, Carnegie Mellon
 University), and the Gaussian 82(TM) system (copyright 1983,
 Carnegie Mellon University). Gaussian is a federally registered
 trademark of Gaussian, Inc.
  
 This software contains proprietary and confidential information,
 including trade secrets, belonging to Gaussian, Inc.
  
 This software is provided under written license and may be
 used, copied, transmitted, or stored only in accord with that
 written license.
  
 The following legend is applicable only to US Government
 contracts under FAR:
  
                    RESTRICTED RIGHTS LEGEND
  
 Use, reproduction and disclosure by the US Government is
 subject to restrictions as set forth in subparagraphs (a)
 and (c) of the Commercial Computer Software - Restricted
 Rights clause in FAR 52.227-19.
  
 Gaussian, Inc.
 340 Quinnipiac St., Bldg. 40, Wallingford CT 06492
  
  
 ---------------------------------------------------------------
 Warning -- This program may not be used in any manner that
 competes with the business of Gaussian, Inc. or will provide
 assistance to any competitor of Gaussian, Inc.  The licensee
 of this program is prohibited from giving any competitor of
 Gaussian, Inc. access to this program.  By using this program,
 the user acknowledges that Gaussian, Inc. is engaged in the
 business of creating and licensing software in the field of
 computational chemistry and represents and warrants to the
 licensee that it is not a competitor of Gaussian, Inc. and that
 it will not use this program in any manner prohibited above.
 ---------------------------------------------------------------
  

 Cite this work as:
 Gaussian 16, Revision A.03,
 M. J. Frisch, G. W. Trucks, H. B. Schlegel, G. E. Scuseria, 
 M. A. Robb, J. R. Cheeseman, G. Scalmani, V. Barone, 
 G. A. Petersson, H. Nakatsuji, X. Li, M. Caricato, A. V. Marenich, 
 J. Bloino, B. G. Janesko, R. Gomperts, B. Mennucci, H. P. Hratchian, 
 J. V. Ortiz, A. F. Izmaylov, J. L. Sonnenberg, D. Williams-Young, 
 F. Ding, F. Lipparini, F. Egidi, J. Goings, B. Peng, A. Petrone, 
 T. Henderson, D. Ranasinghe, V. G. Zakrzewski, J. Gao, N. Rega, 
 G. Zheng, W. Liang, M. Hada, M. Ehara, K. Toyota, R. Fukuda, 
 J. Hasegawa, M. Ishida, T. Nakajima, Y. Honda, O. Kitao, H. Nakai, 
 T. Vreven, K. Throssell, J. A. Montgomery, Jr., J. E. Peralta, 
 F. Ogliaro, M. J. Bearpark, J. J. Heyd, E. N. Brothers, K. N. Kudin, 
 V. N. Staroverov, T. A. Keith, R. Kobayashi, J. Normand, 
 K. Raghavachari, A. P. Rendell, J. C. Burant, S. S. Iyengar, 
 J. Tomasi, M. Cossi, J. M. Millam, M. Klene, C. Adamo, R. Cammi, 
 J. W. Ochterski, R. L. Martin, K. Morokuma, O. Farkas, 
 J. B. Foresman, and D. J. Fox, Gaussian, Inc., Wallingford CT, 2016.
 
 ******************************************
 Gaussian 16:  ES64L-G16RevA.03 25-Dec-2016
                10-Jun-2022 
 ******************************************
 %nprocshared=12
 Will use up to   12 processors via shared memory.
 %chk=checkpoint.chk
 %mem=12GB
 ----------------------------------------------------------------------
 # Opt=(Z-matrix, MaxStep=10) B3LYP/Def2TZVP Field=read NoSymm freq=nor
 aman pop=none
 ----------------------------------------------------------------------
 1/8=10,10=7,18=40,26=3,38=1/1,3;
 2/12=2,15=1,17=6,18=5,29=3,40=1/2;
 3/5=44,7=101,11=2,14=-6,25=1,30=1,71=1,74=-5/1,2,3;
 4//1;
 5/5=2,38=5/2;
 7/29=1,30=1/1,2,3,16;
 1/8=10,10=7,18=40,26=3/3(2);
 2/15=1,29=3/2;
 99//99;
 2/15=1,29=3/2;
 3/5=44,7=101,11=2,14=-2,25=1,30=1,71=1,74=-5/1,2,3;
 4/5=5,16=3,69=1/1;
 5/5=2,38=5/2;
 7/30=1/1,2,3,16;
 1/8=10,18=40,26=3/3(-5);
 2/15=1,29=3/2;
 99/9=1/99;
 ------------------
 int_zmat_initalOpt
 ------------------
 Symbolic Z-matrix:
 Charge =  0 Multiplicity = 1
 C
 C                    1    R2
 C                    1    R3       2    A3
 H                    1    R4       2    A4       3    D4       0
 C                    3    R5       1    A5       2    D5       0
 C                    2    R6       1    A6       3    D6       0
 H                    2    R7       1    A7       6    D7       0
 C                    2    R8       1    A8       6    D8       0
 H                    3    R9       1    A9       5    D9       0
 C                    5    R10      3    A10      1    D10      0
 H                    5    R11      3    A11      10   D11      0
 C                    5    R12      3    A12      10   D12      0
 H                    8    R13      2    A13      1    D13      0
 H                    8    R14      2    A14      13   D14      0
 N                    6    R15      2    A15      1    D15      0
 C                    6    R16      2    A16      15   D16      0
 H                    10   R17      5    A17      3    D17      0
 H                    10   R18      5    A18      17   D18      0
 H                    12   R19      5    A19      3    D19      0
 H                    12   R20      5    A20      19   D20      0
 O                    15   R21      6    A21      2    D21      0
 O                    16   R22      6    A22      2    D22      0
 O                    16   R23      6    A23      22   D23      0
 C                    23   R24      16   A24      6    D24      0
 H                    24   R25      23   A25      16   D25      0
 H                    24   R26      23   A26      25   D26      0
 H                    24   R27      23   A27      25   D27      0
       Variables:
  R2                    1.50759                  
  R3                    1.33126                  
  R4                    1.08223                  
  R5                    1.50645                  
  R6                    1.56817                  
  R7                    1.08684                  
  R8                    1.55199                  
  R9                    1.08285                  
  R10                   1.55009                  
  R11                   1.08991                  
  R12                   1.55016                  
  R13                   1.09213                  
  R14                   1.09043                  
  R15                   1.55801                  
  R16                   1.53313                  
  R17                   1.08889                  
  R18                   1.09095                  
  R19                   1.09208                  
  R20                   1.09061                  
  R21                   1.18747                  
  R22                   1.20441                  
  R23                   1.34069                  
  R24                   1.43796                  
  R25                   1.08622                  
  R26                   1.08914                  
  R27                   1.08935                  
  A3                  114.40389                  
  A4                  121.25768                  
  A5                  114.24951                  
  A6                  107.77765                  
  A7                  112.76397                  
  A8                  107.83115                  
  A9                  123.79817                  
  A10                 108.44974                  
  A11                 112.19318                  
  A12                 107.92568                  
  A13                 110.12665                  
  A14                 108.21237                  
  A15                 103.84148                  
  A16                 111.44666                  
  A17                 110.55584                  
  A18                 110.23728                  
  A19                 109.19906                  
  A20                 109.82998                  
  A21                 115.40503                  
  A22                 124.85831                  
  A23                 111.53793                  
  A24                 116.09611                  
  A25                 105.47545                  
  A26                 110.36355                  
  A27                 110.46442                  
  D4                 -179.74148                  
  D5                    0.5982                   
  D6                  -57.70771                  
  D7                 -121.19302                  
  D8                  115.35309                  
  D9                  179.83734                  
  D10                  57.60793                  
  D11                 121.46126                  
  D12                -116.43397                  
  D13                -177.56116                  
  D14                -116.32146                  
  D15                 -68.87451                  
  D16                -110.28022                  
  D17                -176.26016                  
  D18                -118.85773                  
  D19                 176.39978                  
  D20                 117.27909                  
  D21                 122.25173                  
  D22                -130.61208                  
  D23                -178.96169                  
  D24                 177.41787                  
  D25                -178.83601                  
  D26                 119.56635                  
  D27                -119.64131                  
 

 GradGradGradGradGradGradGradGradGradGradGradGradGradGradGradGradGradGrad
 Berny optimization.
 Initialization pass.
                       ----------------------------
                       !    Initial Parameters    !
                       ! (Angstroms and Degrees)  !
 ----------------------                            ----------------------
 !      Name          Value   Derivative information (Atomic Units)     !
 ------------------------------------------------------------------------
 !       R2          1.5076   estimate D2E/DX2                          !
 !       R3          1.3313   estimate D2E/DX2                          !
 !       R4          1.0822   estimate D2E/DX2                          !
 !       R5          1.5065   estimate D2E/DX2                          !
 !       R6          1.5682   estimate D2E/DX2                          !
 !       R7          1.0868   estimate D2E/DX2                          !
 !       R8          1.552    estimate D2E/DX2                          !
 !       R9          1.0828   estimate D2E/DX2                          !
 !       R10         1.5501   estimate D2E/DX2                          !
 !       R11         1.0899   estimate D2E/DX2                          !
 !       R12         1.5502   estimate D2E/DX2                          !
 !       R13         1.0921   estimate D2E/DX2                          !
 !       R14         1.0904   estimate D2E/DX2                          !
 !       R15         1.558    estimate D2E/DX2                          !
 !       R16         1.5331   estimate D2E/DX2                          !
 !       R17         1.0889   estimate D2E/DX2                          !
 !       R18         1.0909   estimate D2E/DX2                          !
 !       R19         1.0921   estimate D2E/DX2                          !
 !       R20         1.0906   estimate D2E/DX2                          !
 !       R21         1.1875   estimate D2E/DX2                          !
 !       R22         1.2044   estimate D2E/DX2                          !
 !       R23         1.3407   estimate D2E/DX2                          !
 !       R24         1.438    estimate D2E/DX2                          !
 !       R25         1.0862   estimate D2E/DX2                          !
 !       R26         1.0891   estimate D2E/DX2                          !
 !       R27         1.0893   estimate D2E/DX2                          !
 !       A3        114.4039   estimate D2E/DX2                          !
 !       A4        121.2577   estimate D2E/DX2                          !
 !       A5        114.2495   estimate D2E/DX2                          !
 !       A6        107.7777   estimate D2E/DX2                          !
 !       A7        112.764    estimate D2E/DX2                          !
 !       A8        107.8311   estimate D2E/DX2                          !
 !       A9        123.7982   estimate D2E/DX2                          !
 !       A10       108.4497   estimate D2E/DX2                          !
 !       A11       112.1932   estimate D2E/DX2                          !
 !       A12       107.9257   estimate D2E/DX2                          !
 !       A13       110.1266   estimate D2E/DX2                          !
 !       A14       108.2124   estimate D2E/DX2                          !
 !       A15       103.8415   estimate D2E/DX2                          !
 !       A16       111.4467   estimate D2E/DX2                          !
 !       A17       110.5558   estimate D2E/DX2                          !
 !       A18       110.2373   estimate D2E/DX2                          !
 !       A19       109.1991   estimate D2E/DX2                          !
 !       A20       109.83     estimate D2E/DX2                          !
 !       A21       115.405    estimate D2E/DX2                          !
 !       A22       124.8583   estimate D2E/DX2                          !
 !       A23       111.5379   estimate D2E/DX2                          !
 !       A24       116.0961   estimate D2E/DX2                          !
 !       A25       105.4755   estimate D2E/DX2                          !
 !       A26       110.3635   estimate D2E/DX2                          !
 !       A27       110.4644   estimate D2E/DX2                          !
 !       D4       -179.7415   estimate D2E/DX2                          !
 !       D5          0.5982   estimate D2E/DX2                          !
 !       D6        -57.7077   estimate D2E/DX2                          !
 !       D7       -121.193    estimate D2E/DX2                          !
 !       D8        115.3531   estimate D2E/DX2                          !
 !       D9        179.8373   estimate D2E/DX2                          !
 !       D10        57.6079   estimate D2E/DX2                          !
 !       D11       121.4613   estimate D2E/DX2                          !
 !       D12      -116.434    estimate D2E/DX2                          !
 !       D13      -177.5612   estimate D2E/DX2                          !
 !       D14      -116.3215   estimate D2E/DX2                          !
 !       D15       -68.8745   estimate D2E/DX2                          !
 !       D16      -110.2802   estimate D2E/DX2                          !
 !       D17      -176.2602   estimate D2E/DX2                          !
 !       D18      -118.8577   estimate D2E/DX2                          !
 !       D19       176.3998   estimate D2E/DX2                          !
 !       D20       117.2791   estimate D2E/DX2                          !
 !       D21       122.2517   estimate D2E/DX2                          !
 !       D22      -130.6121   estimate D2E/DX2                          !
 !       D23      -178.9617   estimate D2E/DX2                          !
 !       D24       177.4179   estimate D2E/DX2                          !
 !       D25      -178.836    estimate D2E/DX2                          !
 !       D26       119.5664   estimate D2E/DX2                          !
 !       D27      -119.6413   estimate D2E/DX2                          !
 ------------------------------------------------------------------------
 Trust Radius=1.00D-01 FncErr=1.00D-07 GrdErr=1.00D-06 EigMax=2.50D+02 EigMin=1.00D-04
 Number of steps in this run=     85 maximum allowed number of steps=    150.
 GradGradGradGradGradGradGradGradGradGradGradGradGradGradGradGradGradGrad

 ---------------------------------------------------------------------------------------------------
                            Z-MATRIX (ANGSTROMS AND DEGREES)
   CD    Cent   Atom    N1       Length/X        N2       Alpha/Y        N3        Beta/Z          J
 ---------------------------------------------------------------------------------------------------
      1      1  C 
      2      2  C        1   1.507589(     1)
      3      3  C        1   1.331260(     2)      2  114.404(    27)
      4      4  H        1   1.082230(     3)      2  121.258(    28)      3 -179.741(    52)      0
      5      5  C        3   1.506454(     4)      1  114.250(    29)      2    0.598(    53)      0
      6      6  C        2   1.568172(     5)      1  107.778(    30)      3  -57.708(    54)      0
      7      7  H        2   1.086839(     6)      1  112.764(    31)      6 -121.193(    55)      0
      8      8  C        2   1.551987(     7)      1  107.831(    32)      6  115.353(    56)      0
      9      9  H        3   1.082846(     8)      1  123.798(    33)      5  179.837(    57)      0
     10     10  C        5   1.550089(     9)      3  108.450(    34)      1   57.608(    58)      0
     11     11  H        5   1.089909(    10)      3  112.193(    35)     10  121.461(    59)      0
     12     12  C        5   1.550163(    11)      3  107.926(    36)     10 -116.434(    60)      0
     13     13  H        8   1.092129(    12)      2  110.127(    37)      1 -177.561(    61)      0
     14     14  H        8   1.090428(    13)      2  108.212(    38)     13 -116.321(    62)      0
     15     15  N        6   1.558012(    14)      2  103.841(    39)      1  -68.875(    63)      0
     16     16  C        6   1.533132(    15)      2  111.447(    40)     15 -110.280(    64)      0
     17     17  H       10   1.088891(    16)      5  110.556(    41)      3 -176.260(    65)      0
     18     18  H       10   1.090948(    17)      5  110.237(    42)     17 -118.858(    66)      0
     19     19  H       12   1.092080(    18)      5  109.199(    43)      3  176.400(    67)      0
     20     20  H       12   1.090611(    19)      5  109.830(    44)     19  117.279(    68)      0
     21     21  O       15   1.187467(    20)      6  115.405(    45)      2  122.252(    69)      0
     22     22  O       16   1.204410(    21)      6  124.858(    46)      2 -130.612(    70)      0
     23     23  O       16   1.340691(    22)      6  111.538(    47)     22 -178.962(    71)      0
     24     24  C       23   1.437961(    23)     16  116.096(    48)      6  177.418(    72)      0
     25     25  H       24   1.086215(    24)     23  105.475(    49)     16 -178.836(    73)      0
     26     26  H       24   1.089136(    25)     23  110.364(    50)     25  119.566(    74)      0
     27     27  H       24   1.089349(    26)     23  110.464(    51)     25 -119.641(    75)      0
 ---------------------------------------------------------------------------------------------------
                         Z-Matrix orientation:                         
 ---------------------------------------------------------------------
 Center     Atomic      Atomic             Coordinates (Angstroms)
 Number     Number       Type             X           Y           Z
 ---------------------------------------------------------------------
      1          6           0        0.000000    0.000000    0.000000
      2          6           0        0.000000    0.000000    1.507589
      3          6           0        1.212320    0.000000   -0.550032
      4          1           0       -0.925127    0.004174   -0.561556
      5          6           0        2.343225   -0.014340    0.445082
      6          6           0        0.797773   -1.262328    1.986389
      7          1           0       -1.001997   -0.019227    1.928125
      8          6           0        0.790660    1.248065    1.982827
      9          1           0        1.389081    0.006840   -1.618332
     10          6           0        2.185753   -1.263943    1.348670
     11          1           0        3.318801   -0.030325   -0.040609
     12          6           0        2.202475    1.239710    1.345389
     13          1           0        0.851083    1.261906    3.073195
     14          1           0        0.232927    2.137462    1.687970
     15          7           0       -0.116525   -2.456953    1.581008
     16          6           0        0.832417   -1.356549    3.516230
     17          1           0        2.949596   -1.273361    2.124647
     18          1           0        2.303693   -2.173773    0.758358
     19          1           0        2.975479    1.216820    2.116479
     20          1           0        2.364856    2.140731    0.752746
     21          8           0        0.381589   -3.257710    0.859378
     22          8           0        1.826221   -1.536072    4.172528
     23          8           0       -0.393827   -1.236017    4.044672
     24          6           0       -0.482454   -1.367800    5.473836
     25          1           0       -1.537632   -1.263554    5.709628
     26          1           0       -0.112800   -2.342871    5.788174
     27          1           0        0.100341   -0.589449    5.964958
 ---------------------------------------------------------------------
                    Distance matrix (angstroms):
                    1          2          3          4          5
     1  C    0.000000
     2  C    1.507589   0.000000
     3  C    1.331260   2.388205   0.000000
     4  H    1.082230   2.266547   2.137481   0.000000
     5  C    2.385164   2.572903   1.506454   3.419910   0.000000
     6  C    2.485087   1.568172   2.863346   3.326325   2.514264
     7  H    2.173025   1.086839   3.323377   2.490978   3.659228
     8  C    2.472734   1.551987   2.854967   3.311355   2.523645
     9  H    2.132742   3.420668   1.082846   2.544079   2.273437
    10  C    2.862513   2.529886   2.479959   3.864539   1.550089
    11  H    3.319188   3.662278   2.167417   4.275921   1.089909
    12  C    2.863189   2.532605   2.471823   3.865861   1.550163
    13  H    3.429472   2.183546   3.853657   4.236535   3.280589
    14  H    2.733541   2.157670   3.246014   3.309437   3.260120
    15  N    2.924001   2.460810   3.513371   3.361780   3.647883
    16  C    3.859666   2.562769   4.303376   4.644230   3.676414
    17  H    3.851712   3.271441   3.434164   4.884798   2.184892
    18  H    3.256900   3.254787   2.761932   4.112287   2.182397
    19  H    3.848845   3.271830   3.420477   4.884374   2.170039
    20  H    3.277484   3.277966   2.758315   4.137179   2.177030
    21  O    3.390695   3.343420   3.645439   3.790309   3.813018
    22  O    4.806724   3.577220   5.003895   5.688043   4.059164
    23  O    4.247612   2.849496   5.021827   4.799759   4.684121
    24  C    5.662731   4.223122   6.405476   6.205178   5.924920
    25  H    6.046547   4.649517   6.952851   6.427289   6.658605
    26  H    6.245377   4.881105   6.886062   6.818180   6.324772
    27  H    5.994851   4.497295   6.635438   6.633201   5.985842
                    6          7          8          9         10
     6  C    0.000000
     7  H    2.188120   0.000000
     8  C    2.510406   2.196052   0.000000
     9  H    3.867098   4.277300   3.855787   0.000000
    10  C    1.527474   3.470856   2.942554   3.324557   0.000000
    11  H    3.461522   4.748193   3.481389   2.492872   2.176168
    12  C    2.940113   3.491869   1.549070   3.311377   2.503711
    13  H    2.748772   2.527131   1.092129   4.886211   3.336951
    14  H    3.459289   2.496802   1.090428   4.099741   3.936777
    15  N    1.558012   2.616689   3.835571   4.309629   2.603409
    16  C    1.533132   2.770485   3.022762   5.341576   2.557032
    17  H    2.156288   4.150489   3.322455   4.252530   1.088891
    18  H    2.146296   4.115582   3.936695   3.352648   1.090948
    19  H    3.302348   4.169365   2.189126   4.234327   2.714293
    20  H    3.944419   4.169249   2.188160   3.335812   3.461071
    21  O    2.329144   3.680259   4.661704   4.220352   2.733043
    22  O    2.431429   3.916246   3.690339   6.008804   2.859631
    23  O    2.378472   2.515992   3.438732   6.065728   3.731412
    24  C    3.716503   3.828922   4.544306   7.462649   4.913971
    25  H    4.395068   4.016841   5.061445   7.992405   5.734243
    26  H    4.055895   4.592382   5.309589   7.914109   5.114355
    27  H    4.094898   4.223307   4.439636   7.715095   5.110186
                   11         12         13         14         15
    11  H    0.000000
    12  C    2.186359   0.000000
    13  H    4.177950   2.193642   0.000000
    14  H    4.148483   2.191447   1.751446   0.000000
    15  N    4.507730   4.370194   4.122233   4.608927   0.000000
    16  C    4.537850   3.651052   2.655737   3.988739   2.420013
    17  H    2.523843   2.735134   3.425066   4.382316   3.331295
    18  H    2.502631   3.465071   4.390038   4.872269   2.571848
    19  H    2.515208   1.092080   2.330321   2.924515   4.831545
    20  H    2.500582   1.090611   2.906600   2.328041   5.289799
    21  O    4.455693   4.876333   5.054536   5.460453   1.187467
    22  O    4.716524   3.979856   3.160397   4.712374   3.367233
    23  O    5.650382   4.489559   2.955196   4.162598   2.763552
    24  C    6.829897   5.572435   3.802204   5.208783   4.058851
    25  H    7.626993   6.269076   4.362876   5.556574   4.526505
    26  H    7.148319   6.159037   4.614608   6.083140   4.208714
    27  H    6.836515   5.394924   3.514744   5.074076   4.770075
                   16         17         18         19         20
    16  C    0.000000
    17  H    2.534930   0.000000
    18  H    3.230846   1.759169   0.000000
    19  H    3.629635   2.490329   3.713746   0.000000
    20  H    4.713405   3.725595   4.314942   1.756769   0.000000
    21  O    3.297957   3.483275   2.208984   5.322592   5.752207
    22  O    1.204410   2.350491   3.505881   3.623058   5.050141
    23  O    1.340691   3.855693   4.353833   4.592010   5.463473
    24  C    2.358227   4.796348   5.536059   5.468950   6.534957
    25  H    3.230599   5.743465   6.332404   6.279422   7.168629
    26  H    2.651036   4.893215   5.582749   5.974129   7.183106
    27  H    2.668454   4.830526   5.871416   5.132233   6.304686
                   21         22         23         24         25
    21  O    0.000000
    22  O    4.003494   0.000000
    23  O    3.851572   2.243879   0.000000
    24  C    5.060786   2.655504   1.437961   0.000000
    25  H    5.584352   3.708429   2.020180   1.086215   0.000000
    26  H    5.037299   2.649724   2.084204   1.089136   1.789202
    27  H    5.767639   2.662247   2.085606   1.089349   1.789572
                   26         27
    26  H    0.000000
    27  H    1.775154   0.000000
 Symmetry turned off by external request.
 Stoichiometry    C10H13NO3
 Framework group  C1[X(C10H13NO3)]
 Deg. of freedom    75
 Full point group                 C1      NOp   1
 Rotational constants (GHZ):           1.1242831           0.6249357           0.5342066
 Standard basis: def2TZVP (5D, 7F)
 The following finite field(s) will be applied:
 An electric field of             -0.0010 -0.0007 -0.0022
   512 basis functions,   818 primitive gaussians,   582 cartesian basis functions
    52 alpha electrons       52 beta electrons
       nuclear repulsion energy       965.8796249703 Hartrees.
 NAtoms=   27 NActive=   27 NUniq=   27 SFac= 1.00D+00 NAtFMM=   60 NAOKFM=F Big=F
 Integral buffers will be    131072 words long.
 Raffenetti 2 integral format.
 Two-electron integral symmetry is turned off.
 One-electron integrals computed using PRISM.
   1 Symmetry operations used in ECPInt.
 ECPInt:  NShTT=   21321 NPrTT=   64608 LenC2=   20379 LenP2D=   46970.
 LDataN:  DoStor=T MaxTD1= 6 Len=  172
 NBasis=   512 RedAO= T EigKep=  1.04D-05  NBF=   512
 NBsUse=   512 1.00D-06 EigRej= -1.00D+00 NBFU=   512
 The nuclear repulsion energy is now       964.9443713504 hartrees.
 ExpMin= 9.52D-02 ExpMax= 2.70D+04 ExpMxC= 9.22D+02 IAcc=3 IRadAn=         5 AccDes= 0.00D+00
 Harris functional with IExCor=  402 and IRadAn=       5 diagonalized for initial guess.
 HarFok:  IExCor=  402 AccDes= 0.00D+00 IRadAn=         5 IDoV= 1 UseB2=F ITyADJ=14
 ICtDFT=  3500011 ScaDFX=  1.000000  1.000000  1.000000  1.000000
 FoFCou: FMM=F IPFlag=           0 FMFlag=      100000 FMFlg1=           0
         NFxFlg=           0 DoJE=T BraDBF=F KetDBF=T FulRan=T
         wScrn=  0.000000 ICntrl=       500 IOpCl=  0 I1Cent=   200000004 NGrid=           0
         NMat0=    1 NMatS0=      1 NMatT0=    0 NMatD0=    1 NMtDS0=    0 NMtDT0=    0
 Symmetry not used in FoFCou.
 Requested convergence on RMS density matrix=1.00D-08 within 128 cycles.
 Requested convergence on MAX density matrix=1.00D-06.
 Requested convergence on             energy=1.00D-06.
 No special actions if energy rises.
 Integral accuracy reduced to 1.0D-05 until final iterations.
 Initial convergence to 1.0D-05 achieved.  Increase integral accuracy.
 SCF Done:  E(RB3LYP) =  -669.472367342     A.U. after   16 cycles
            NFock= 16  Conv=0.63D-08     -V/T= 2.0048
   1 Symmetry operations used in ECPInt.
 ECPInt:  NShTT=   21321 NPrTT=   64608 LenC2=   20379 LenP2D=   46970.
 LDataN:  DoStor=T MaxTD1= 7 Len=  274
 Calling FoFJK, ICntrl=      2127 FMM=F ISym2X=0 I1Cent= 0 IOpClX= 0 NMat=1 NMatS=1 NMatT=0.
 -------------------------------------------------------------------
 Center     Atomic                   Forces (Hartrees/Bohr)
 Number     Number              X              Y              Z
 -------------------------------------------------------------------
      1        6           0.000039383   -0.000086771    0.000248722
      2        6          -0.000201483   -0.000087981   -0.000009944
      3        6           0.000228363   -0.000129999    0.000186659
      4        1          -0.000205857    0.000096730   -0.000107902
      5        6           0.000075463    0.000045422    0.000003695
      6        6          -0.000553319   -0.000685968   -0.000783155
      7        1           0.000047080   -0.000002786    0.000115486
      8        6           0.000180481    0.000031059    0.000238821
      9        1           0.000059260    0.000089272   -0.000258922
     10        6          -0.000134690   -0.000160687   -0.000033591
     11        1           0.000060493    0.000021930    0.000056193
     12        6           0.000071199    0.000069856    0.000208784
     13        1          -0.000042521    0.000014867   -0.000340088
     14        1           0.000032844    0.000031728    0.000099657
     15        7           0.000112952    0.002435787    0.001118772
     16        6           0.000290699   -0.000206307    0.003459488
     17        1          -0.000110408    0.000051754   -0.000013509
     18        1           0.000076470   -0.000044207    0.000086266
     19        1          -0.000209679    0.000024319   -0.000264716
     20        1           0.000042654    0.000025314    0.000103439
     21        8           0.000608081   -0.001721454   -0.001422126
     22        8          -0.000924914    0.000106804   -0.002131278
     23        8           0.000389007   -0.000024348   -0.002150226
     24        6           0.000065451    0.000109957    0.001616310
     25        1           0.000098654    0.000070453    0.000049946
     26        1           0.000044770    0.000115876   -0.000026476
     27        1          -0.000140433   -0.000190621   -0.000050306
 -------------------------------------------------------------------
 Cartesian Forces:  Max     0.003459488 RMS     0.000701114
 -----------------------------------------------------------------------------------------------
                       Internal Coordinate Forces (Hartree/Bohr or radian)
  Cent   Atom   N1       Length/X         N2         Alpha/Y        N3         Beta/Z          J
 -----------------------------------------------------------------------------------------------
      1  C 
      2  C        1  -0.000215(     1)
      3  C        1   0.000114(     2)      2  -0.001755(    27)
      4  H        1   0.000232(     3)      2  -0.000030(    28)      3   0.000167(    52)     0
      5  C        3   0.000000(     4)      1  -0.001385(    29)      2   0.000046(    53)     0
      6  C        2  -0.000110(     5)      1  -0.002266(    30)      3  -0.001118(    54)     0
      7  H        2   0.000001(     6)      1   0.000256(    31)      6   0.000007(    55)     0
      8  C        2   0.000149(     7)      1  -0.000043(    32)      6  -0.000373(    56)     0
      9  H        3   0.000266(     8)      1   0.000032(    33)      5   0.000149(    57)     0
     10  C        5   0.000163(     9)      3  -0.000322(    34)      1   0.000038(    58)     0
     11  H        5   0.000029(    10)      3   0.000159(    35)     10   0.000043(    59)     0
     12  C        5   0.000133(    11)      3  -0.000127(    36)     10   0.000172(    60)     0
     13  H        8  -0.000342(    12)      2   0.000008(    37)      1   0.000078(    61)     0
     14  H        8  -0.000018(    13)      2   0.000170(    38)     13   0.000137(    62)     0
     15  N        6  -0.000892(    14)      2  -0.000773(    39)      1  -0.001031(    63)     0
     16  C        6   0.000763(    15)      2   0.000807(    40)     15  -0.001921(    64)     0
     17  H       10  -0.000088(    16)      5  -0.000017(    41)      3   0.000340(    65)     0
     18  H       10  -0.000002(    17)      5   0.000173(    42)     17   0.000175(    66)     0
     19  H       12  -0.000336(    18)      5  -0.000010(    43)      3  -0.000037(    67)     0
     20  H       12  -0.000029(    19)      5   0.000190(    44)     19  -0.000121(    68)     0
     21  O       15   0.002280(    20)      6   0.000882(    45)      2  -0.000094(    69)     0
     22  O       16  -0.001940(    21)      6  -0.002899(    46)      2  -0.000569(    70)     0
     23  O       16  -0.000632(    22)      6  -0.000394(    47)     22  -0.000294(    71)     0
     24  C       23   0.001566(    23)     16  -0.000470(    48)      6   0.000618(    72)     0
     25  H       24  -0.000078(    24)     23   0.000123(    49)     16  -0.000014(    73)     0
     26  H       24  -0.000096(    25)     23  -0.000014(    50)     25   0.000160(    74)     0
     27  H       24  -0.000234(    26)     23   0.000127(    51)     25  -0.000003(    75)     0
 -----------------------------------------------------------------------------------------------
 Internal  Forces:  Max     0.002898785 RMS     0.000750869

 GradGradGradGradGradGradGradGradGradGradGradGradGradGradGradGradGradGrad
 Berny optimization.
 Search for a local minimum.
 Step number   1 out of a maximum of   85
 All quantities printed in internal units (Hartrees-Bohrs-Radians)
 Second derivative matrix not updated -- first step.
 ITU=  0
     Eigenvalues ---    0.00751   0.02453   0.03933   0.04308   0.05434
     Eigenvalues ---    0.05854   0.06921   0.08015   0.08474   0.09089
     Eigenvalues ---    0.09608   0.11566   0.14156   0.14346   0.15944
     Eigenvalues ---    0.16321   0.17209   0.17801   0.18283   0.18529
     Eigenvalues ---    0.21337   0.22029   0.23011   0.23746   0.23955
     Eigenvalues ---    0.25089   0.25527   0.25938   0.26532   0.26981
     Eigenvalues ---    0.27240   0.27641   0.27884   0.28740   0.29138
     Eigenvalues ---    0.29938   0.30007   0.30693   0.30930   0.31893
     Eigenvalues ---    0.32767   0.32858   0.34568   0.34573   0.34659
     Eigenvalues ---    0.34704   0.34742   0.34763   0.34823   0.34888
     Eigenvalues ---    0.34913   0.34941   0.35180   0.35253   0.35653
     Eigenvalues ---    0.35726   0.35743   0.39866   0.41272   0.43709
     Eigenvalues ---    0.50084   0.51754   0.56286   0.57050   0.59585
     Eigenvalues ---    0.67626   0.76967   0.97198   1.02638   1.11381
     Eigenvalues ---    1.68365   2.95269   6.93956   9.04878  23.41415
 RFO step:  Lambda=-8.32213271D-05 EMin= 7.50503959D-03
 Linear search not attempted -- first point.
 Variable       Old X    -DE/DX   Delta X   Delta X   Delta X     New X
                                 (Linear)    (Quad)   (Total)
    R2        2.84893  -0.00022   0.00000   0.00022   0.00022   2.84915
    R3        2.51572   0.00011   0.00000   0.00058   0.00058   2.51629
    R4        2.04512   0.00023   0.00000   0.00065   0.00065   2.04577
    R5        2.84679   0.00000   0.00000  -0.00030  -0.00030   2.84648
    R6        2.96342  -0.00011   0.00000  -0.00013  -0.00013   2.96328
    R7        2.05383   0.00000   0.00000   0.00001   0.00001   2.05383
    R8        2.93283   0.00015   0.00000   0.00049   0.00049   2.93332
    R9        2.04628   0.00027   0.00000   0.00075   0.00075   2.04703
   R10        2.92924   0.00016   0.00000   0.00022   0.00022   2.92946
   R11        2.05963   0.00003   0.00000   0.00008   0.00008   2.05971
   R12        2.92938   0.00013   0.00000   0.00009   0.00009   2.92947
   R13        2.06382  -0.00034   0.00000  -0.00099  -0.00099   2.06284
   R14        2.06061  -0.00002   0.00000  -0.00005  -0.00005   2.06056
   R15        2.94422  -0.00089   0.00000  -0.00330  -0.00330   2.94092
   R16        2.89720   0.00076   0.00000   0.00263   0.00263   2.89982
   R17        2.05771  -0.00009   0.00000  -0.00025  -0.00025   2.05745
   R18        2.06159  -0.00000   0.00000  -0.00001  -0.00001   2.06159
   R19        2.06373  -0.00034   0.00000  -0.00097  -0.00097   2.06276
   R20        2.06096  -0.00003   0.00000  -0.00008  -0.00008   2.06088
   R21        2.24399   0.00228   0.00000   0.00205   0.00205   2.24604
   R22        2.27600  -0.00194   0.00000  -0.00188  -0.00188   2.27412
   R23        2.53354  -0.00063   0.00000  -0.00110  -0.00110   2.53243
   R24        2.71735   0.00157   0.00000   0.00393   0.00393   2.72128
   R25        2.05265  -0.00008   0.00000  -0.00021  -0.00021   2.05244
   R26        2.05817  -0.00010   0.00000  -0.00027  -0.00027   2.05790
   R27        2.05857  -0.00023   0.00000  -0.00068  -0.00068   2.05789
    A3        1.99672  -0.00175   0.00000   0.00043   0.00043   1.99715
    A4        2.11635  -0.00003   0.00000  -0.00032  -0.00032   2.11602
    A5        1.99403  -0.00139   0.00000  -0.00013  -0.00013   1.99390
    A6        1.88107  -0.00227   0.00000  -0.00398  -0.00398   1.87709
    A7        1.96810   0.00026   0.00000   0.00131   0.00131   1.96941
    A8        1.88201  -0.00004   0.00000   0.00204   0.00204   1.88405
    A9        2.16069   0.00003   0.00000   0.00016   0.00016   2.16085
   A10        1.89280  -0.00032   0.00000  -0.00138  -0.00138   1.89143
   A11        1.95814   0.00016   0.00000   0.00083   0.00083   1.95897
   A12        1.88366  -0.00013   0.00000   0.00019   0.00019   1.88385
   A13        1.92207   0.00001   0.00000  -0.00032  -0.00032   1.92175
   A14        1.88866   0.00017   0.00000   0.00054   0.00054   1.88921
   A15        1.81238  -0.00077   0.00000  -0.00154  -0.00154   1.81084
   A16        1.94511   0.00081   0.00000   0.00193   0.00193   1.94704
   A17        1.92956  -0.00002   0.00000  -0.00099  -0.00099   1.92857
   A18        1.92400   0.00017   0.00000   0.00118   0.00118   1.92518
   A19        1.90588  -0.00001   0.00000  -0.00010  -0.00010   1.90578
   A20        1.91689   0.00019   0.00000   0.00071   0.00071   1.91761
   A21        2.01420   0.00088   0.00000   0.00351   0.00351   2.01771
   A22        2.17919  -0.00290   0.00000  -0.00654  -0.00654   2.17265
   A23        1.94670  -0.00039   0.00000   0.00214   0.00214   1.94885
   A24        2.02626  -0.00047   0.00000  -0.00131  -0.00131   2.02495
   A25        1.84089   0.00012   0.00000   0.00022   0.00022   1.84112
   A26        1.92621  -0.00001   0.00000  -0.00038  -0.00038   1.92582
   A27        1.92797   0.00013   0.00000   0.00098   0.00098   1.92895
    D4       -3.13708   0.00017   0.00000   0.00566   0.00566  -3.13142
    D5        0.01044   0.00005   0.00000   0.00650   0.00650   0.01694
    D6       -1.00719  -0.00112   0.00000  -0.00646  -0.00646  -1.01365
    D7       -2.11522   0.00001   0.00000   0.00229   0.00229  -2.11293
    D8        2.01329  -0.00037   0.00000   0.00012   0.00012   2.01341
    D9        3.13875   0.00015   0.00000  -0.00096  -0.00096   3.13780
   D10        1.00545   0.00004   0.00000  -0.00342  -0.00342   1.00202
   D11        2.11990   0.00004   0.00000  -0.00012  -0.00012   2.11978
   D12       -2.03216   0.00017   0.00000  -0.00015  -0.00015  -2.03231
   D13       -3.09903   0.00008   0.00000   0.00205   0.00205  -3.09697
   D14       -2.03019   0.00014   0.00000   0.00080   0.00080  -2.02939
   D15       -1.20209  -0.00103   0.00000   0.00337   0.00337  -1.19871
   D16       -1.92475  -0.00192   0.00000  -0.00423  -0.00423  -1.92898
   D17       -3.07632   0.00034   0.00000   0.00147   0.00147  -3.07485
   D18       -2.07446   0.00018   0.00000   0.00019   0.00019  -2.07427
   D19        3.07876  -0.00004   0.00000  -0.00033  -0.00033   3.07843
   D20        2.04691  -0.00012   0.00000  -0.00051  -0.00051   2.04639
   D21        2.13370  -0.00009   0.00000  -0.01280  -0.01280   2.12089
   D22       -2.27961  -0.00057   0.00000  -0.00630  -0.00630  -2.28591
   D23       -3.12347  -0.00029   0.00000  -0.00316  -0.00316  -3.12663
   D24        3.09653   0.00062   0.00000   0.01279   0.01279   3.10932
   D25       -3.12128  -0.00001   0.00000   0.00437   0.00437  -3.11691
   D26        2.08683   0.00016   0.00000   0.00038   0.00038   2.08721
   D27       -2.08813  -0.00000   0.00000   0.00013   0.00013  -2.08800
         Item               Value     Threshold  Converged?
 Maximum Force            0.002899     0.000450     NO 
 RMS     Force            0.000751     0.000300     NO 
 Maximum Displacement     0.012801     0.001800     NO 
 RMS     Displacement     0.003077     0.001200     NO 
 Predicted change in Energy=-4.164023D-05
 GradGradGradGradGradGradGradGradGradGradGradGradGradGradGradGradGradGrad

 ---------------------------------------------------------------------------------------------------
                            Z-MATRIX (ANGSTROMS AND DEGREES)
   CD    Cent   Atom    N1       Length/X        N2       Alpha/Y        N3        Beta/Z          J
 ---------------------------------------------------------------------------------------------------
      1      1  C 
      2      2  C        1   1.507704(     1)
      3      3  C        1   1.331565(     2)      2  114.428(    27)
      4      4  H        1   1.082574(     3)      2  121.239(    28)      3 -179.417(    52)      0
      5      5  C        3   1.506293(     4)      1  114.242(    29)      2    0.971(    53)      0
      6      6  C        2   1.568101(     5)      1  107.549(    30)      3  -58.078(    54)      0
      7      7  H        2   1.086842(     6)      1  112.839(    31)      6 -121.062(    55)      0
      8      8  C        2   1.552246(     7)      1  107.948(    32)      6  115.360(    56)      0
      9      9  H        3   1.083240(     8)      1  123.807(    33)      5  179.783(    57)      0
     10     10  C        5   1.550204(     9)      3  108.371(    34)      1   57.412(    58)      0
     11     11  H        5   1.089952(    10)      3  112.241(    35)     10  121.454(    59)      0
     12     12  C        5   1.550210(    11)      3  107.937(    36)     10 -116.443(    60)      0
     13     13  H        8   1.091606(    12)      2  110.108(    37)      1 -177.444(    61)      0
     14     14  H        8   1.090403(    13)      2  108.244(    38)     13 -116.275(    62)      0
     15     15  N        6   1.556268(    14)      2  103.753(    39)      1  -68.681(    63)      0
     16     16  C        6   1.534521(    15)      2  111.557(    40)     15 -110.523(    64)      0
     17     17  H       10   1.088757(    16)      5  110.499(    41)      3 -176.176(    65)      0
     18     18  H       10   1.090945(    17)      5  110.305(    42)     17 -118.847(    66)      0
     19     19  H       12   1.091565(    18)      5  109.193(    43)      3  176.381(    67)      0
     20     20  H       12   1.090569(    19)      5  109.871(    44)     19  117.250(    68)      0
     21     21  O       15   1.188554(    20)      6  115.606(    45)      2  121.518(    69)      0
     22     22  O       16   1.203413(    21)      6  124.484(    46)      2 -130.973(    70)      0
     23     23  O       16   1.340107(    22)      6  111.661(    47)     22 -179.142(    71)      0
     24     24  C       23   1.440041(    23)     16  116.021(    48)      6  178.151(    72)      0
     25     25  H       24   1.086105(    24)     23  105.488(    49)     16 -178.586(    73)      0
     26     26  H       24   1.088992(    25)     23  110.342(    50)     25  119.588(    74)      0
     27     27  H       24   1.088991(    26)     23  110.521(    51)     25 -119.634(    75)      0
 ---------------------------------------------------------------------------------------------------
                         Z-Matrix orientation:                         
 ---------------------------------------------------------------------
 Center     Atomic      Atomic             Coordinates (Angstroms)
 Number     Number       Type             X           Y           Z
 ---------------------------------------------------------------------
      1          6           0        0.000000    0.000000    0.000000
      2          6           0        0.000000    0.000000    1.507704
      3          6           0        1.212361    0.000000   -0.550676
      4          1           0       -0.925563    0.009413   -0.561437
      5          6           0        2.343396   -0.023264    0.443879
      6          6           0        0.790569   -1.269006    1.980531
      7          1           0       -1.001521   -0.015038    1.929552
      8          6           0        0.798165    1.242416    1.986037
      9          1           0        1.388923    0.011831   -1.619365
     10          6           0        2.178271   -1.275720    1.342332
     11          1           0        3.319157   -0.042585   -0.041417
     12          6           0        2.209525    1.228519    1.348461
     13          1           0        0.859042    1.252585    3.075896
     14          1           0        0.245384    2.136100    1.694933
     15          7           0       -0.130514   -2.453691    1.568102
     16          6           0        0.830468   -1.370558    3.511168
     17          1           0        2.941137   -1.291076    2.118986
     18          1           0        2.292622   -2.184495    0.749701
     19          1           0        2.982203    1.198800    2.118916
     20          1           0        2.377028    2.131024    0.759592
     21          8           0        0.355120   -3.249337    0.830696
     22          8           0        1.828042   -1.565954    4.155270
     23          8           0       -0.389681   -1.232977    4.048005
     24          6           0       -0.466787   -1.354227    5.480859
     25          1           0       -1.519017   -1.241523    5.725262
     26          1           0       -0.100274   -2.329246    5.798524
     27          1           0        0.124669   -0.576760    5.962134
 ---------------------------------------------------------------------
                    Distance matrix (angstroms):
                    1          2          3          4          5
     1  C    0.000000
     2  C    1.507704   0.000000
     3  C    1.331565   2.388880   0.000000
     4  H    1.082574   2.266737   2.137973   0.000000
     5  C    2.385178   2.573668   1.506293   3.420208   0.000000
     6  C    2.481507   1.568101   2.862742   3.322809   2.514845
     7  H    2.174038   1.086842   3.324610   2.492266   3.660022
     8  C    2.474875   1.552246   2.854833   3.313783   2.523477
     9  H    2.133446   3.421667   1.083240   2.544811   2.273594
    10  C    2.859052   2.529757   2.478694   3.861306   1.550204
    11  H    3.319689   3.663112   2.167890   4.276771   1.089952
    12  C    2.865241   2.533105   2.471906   3.868166   1.550210
    13  H    3.430460   2.183152   3.853029   4.237981   3.280032
    14  H    2.737870   2.158284   3.246649   3.314380   3.260313
    15  N    2.914889   2.457902   3.509008   3.351704   3.645694
    16  C    3.859586   2.565536   4.303818   4.644790   3.675924
    17  H    3.848021   3.269684   3.432585   4.881323   2.184176
    18  H    3.254256   3.256179   2.762239   4.109626   2.183352
    19  H    3.849735   3.271733   3.419968   4.885649   2.169623
    20  H    3.281540   3.278902   2.759441   4.141673   2.177559
    21  O    3.372589   3.338059   3.633351   3.767974   3.809254
    22  O    4.802106   3.578206   4.997720   5.684316   4.052149
    23  O    4.249521   2.850476   5.023409   4.803921   4.682183
    24  C    5.664948   4.223480   6.405692   6.211225   5.919439
    25  H    6.052059   4.651515   6.956236   6.437360   6.655479
    26  H    6.249666   4.883296   6.889176   6.826384   6.321495
    27  H    5.991263   4.493344   6.628154   6.633518   5.973294
                    6          7          8          9         10
     6  C    0.000000
     7  H    2.187834   0.000000
     8  C    2.511440   2.196190   0.000000
     9  H    3.867534   4.278990   3.855160   0.000000
    10  C    1.527435   3.470622   2.942797   3.324532   0.000000
    11  H    3.462101   4.749077   3.480977   2.493729   2.176467
    12  C    2.941187   3.492122   1.548753   3.310848   2.504441
    13  H    2.750080   2.526394   1.091606   4.885256   3.337354
    14  H    3.460280   2.497441   1.090403   4.099362   3.937117
    15  N    1.556268   2.614637   3.833839   4.306674   2.601745
    16  C    1.534521   2.774009   3.025674   5.342775   2.555272
    17  H    2.155134   4.148338   3.320932   4.252318   1.088757
    18  H    2.146911   4.117034   3.937721   3.354548   1.090945
    19  H    3.303404   4.168851   2.188511   4.233460   2.715260
    20  H    3.945599   4.170010   2.187830   3.335681   3.461935
    21  O    2.330975   3.675411   4.659071   4.207940   2.735107
    22  O    2.427761   3.919896   3.695019   6.002387   2.849476
    23  O    2.380911   2.519040   3.433695   6.068942   3.730532
    24  C    3.720283   3.832903   4.533921   7.464781   4.912219
    25  H    4.399768   4.022373   5.051841   7.998160   5.734211
    26  H    4.061377   4.597471   5.300851   7.919812   5.114619
    27  H    4.095826   4.224399   4.424065   7.708690   5.103762
                   11         12         13         14         15
    11  H    0.000000
    12  C    2.186035   0.000000
    13  H    4.176993   2.192810   0.000000
    14  H    4.148453   2.191255   1.750495   0.000000
    15  N    4.506020   4.368375   4.121790   4.606904   0.000000
    16  C    4.536293   3.651616   2.659166   3.992203   2.423255
    17  H    2.523682   2.734469   3.423596   4.380918   3.330194
    18  H    2.503482   3.466134   4.390883   4.873622   2.571738
    19  H    2.514282   1.091565   2.329488   2.923777   4.830434
    20  H    2.500759   1.090569   2.905374   2.327831   5.287823
    21  O    4.453016   4.874227   5.055903   5.455444   1.188554
    22  O    4.707044   3.979043   3.169886   4.718397   3.364143
    23  O    5.647645   4.483567   2.946579   4.158237   2.776189
    24  C    6.822706   5.559670   3.786442   5.198346   4.078181
    25  H    7.622334   6.257757   4.346825   5.546621   4.547447
    26  H    7.143265   6.147838   4.600272   6.074393   4.232360
    27  H    6.821490   5.375094   3.495165   5.057983   4.784924
                   16         17         18         19         20
    16  C    0.000000
    17  H    2.529706   0.000000
    18  H    3.228945   1.758895   0.000000
    19  H    3.629040   2.490215   3.714425   0.000000
    20  H    4.714244   3.725177   4.316356   1.755859   0.000000
    21  O    3.307671   3.490266   2.212320   5.324189   5.748169
    22  O    1.203413   2.336877   3.492324   3.622525   5.049719
    23  O    1.340107   3.849525   4.356483   4.583069   5.457549
    24  C    2.358563   4.787497   5.539633   5.451251   6.521090
    25  H    3.230935   5.735910   6.338296   6.262738   7.156195
    26  H    2.649030   4.885384   5.589053   5.957204   7.170904
    27  H    2.671236   4.817938   5.869777   5.107684   6.282647
                   21         22         23         24         25
    21  O    0.000000
    22  O    4.007002   0.000000
    23  O    3.869303   2.245145   0.000000
    24  C    5.088318   2.658619   1.440041   0.000000
    25  H    5.612529   3.711191   2.022045   1.086105   0.000000
    26  H    5.072796   2.645997   2.085636   1.088992   1.789229
    27  H    5.790287   2.672965   2.087838   1.088991   1.788777
                   26         27
    26  H    0.000000
    27  H    1.774422   0.000000
 Symmetry turned off by external request.
 Stoichiometry    C10H13NO3
 Framework group  C1[X(C10H13NO3)]
 Deg. of freedom    75
 Full point group                 C1      NOp   1
 Rotational constants (GHZ):           1.1222039           0.6256792           0.5342755
 Standard basis: def2TZVP (5D, 7F)
 The following finite field(s) will be applied:
 An electric field of             -0.0010 -0.0007 -0.0022
   512 basis functions,   818 primitive gaussians,   582 cartesian basis functions
    52 alpha electrons       52 beta electrons
       nuclear repulsion energy       965.8725074441 Hartrees.
 NAtoms=   27 NActive=   27 NUniq=   27 SFac= 1.00D+00 NAtFMM=   60 NAOKFM=F Big=F
 Integral buffers will be    131072 words long.
 Raffenetti 2 integral format.
 Two-electron integral symmetry is turned off.
 One-electron integrals computed using PRISM.
   1 Symmetry operations used in ECPInt.
 ECPInt:  NShTT=   21321 NPrTT=   64608 LenC2=   20380 LenP2D=   46985.
 LDataN:  DoStor=T MaxTD1= 6 Len=  172
 NBasis=   512 RedAO= T EigKep=  1.04D-05  NBF=   512
 NBsUse=   512 1.00D-06 EigRej= -1.00D+00 NBFU=   512
 The nuclear repulsion energy is now       964.9397941213 hartrees.
 Initial guess from the checkpoint file:  "checkpoint.chk"
 B after Tr=    -0.004678    0.016873    0.002703
         Rot=    0.999990   -0.001582   -0.001872    0.003853 Ang=  -0.52 deg.
 Requested convergence on RMS density matrix=1.00D-08 within 128 cycles.
 Requested convergence on MAX density matrix=1.00D-06.
 Requested convergence on             energy=1.00D-06.
 No special actions if energy rises.
 SCF Done:  E(RB3LYP) =  -669.472415630     A.U. after   11 cycles
            NFock= 11  Conv=0.72D-08     -V/T= 2.0048
   1 Symmetry operations used in ECPInt.
 ECPInt:  NShTT=   21321 NPrTT=   64608 LenC2=   20380 LenP2D=   46985.
 LDataN:  DoStor=T MaxTD1= 7 Len=  274
 Calling FoFJK, ICntrl=      2127 FMM=F ISym2X=0 I1Cent= 0 IOpClX= 0 NMat=1 NMatS=1 NMatT=0.
 -------------------------------------------------------------------
 Center     Atomic                   Forces (Hartrees/Bohr)
 Number     Number              X              Y              Z
 -------------------------------------------------------------------
      1        6          -0.000056354    0.000998903   -0.000083080
      2        6          -0.000014635   -0.000517231   -0.000135457
      3        6          -0.000062672   -0.000252428    0.000022646
      4        1           0.000009046    0.000070852   -0.000013151
      5        6          -0.000004941    0.000026791   -0.000086502
      6        6          -0.000279647   -0.001164311   -0.000800701
      7        1           0.000001220    0.000022032    0.000004541
      8        6           0.000070776   -0.000116421   -0.000051842
      9        1          -0.000037030   -0.000052912    0.000001324
     10        6           0.000209509    0.000098966    0.000028524
     11        1           0.000001305   -0.000003898    0.000009687
     12        6          -0.000068789   -0.000010980    0.000050724
     13        1          -0.000049919   -0.000040274    0.000000087
     14        1          -0.000029194   -0.000009867    0.000002536
     15        7          -0.000136464    0.001366558    0.000972371
     16        6          -0.000334302    0.000043292    0.001239792
     17        1          -0.000036382   -0.000004277   -0.000059951
     18        1          -0.000013785    0.000044140   -0.000040822
     19        1           0.000020024   -0.000014189   -0.000005612
     20        1           0.000025377   -0.000002059   -0.000005757
     21        8           0.000550693   -0.000354833   -0.000447418
     22        8          -0.000343415   -0.000075194   -0.000273955
     23        8           0.000552758    0.000078296   -0.000823876
     24        6          -0.000067384   -0.000300138    0.000840300
     25        1           0.000036015    0.000055977   -0.000063939
     26        1           0.000001510    0.000051186   -0.000069607
     27        1           0.000056681    0.000062019   -0.000210861
 -------------------------------------------------------------------
 Cartesian Forces:  Max     0.001366558 RMS     0.000363839
 -----------------------------------------------------------------------------------------------
                       Internal Coordinate Forces (Hartree/Bohr or radian)
  Cent   Atom   N1       Length/X         N2         Alpha/Y        N3         Beta/Z          J
 -----------------------------------------------------------------------------------------------
      1  C 
      2  C        1   0.000182(     1)
      3  C        1   0.000065(     2)      2   0.000987(    27)
      4  H        1  -0.000000(     3)      2   0.000032(    28)      3   0.000124(    52)     0
      5  C        3   0.000025(     4)      1   0.000759(    29)      2  -0.000374(    53)     0
      6  C        2   0.000319(     5)      1   0.000712(    30)      3  -0.001208(    54)     0
      7  H        2   0.000000(     6)      1   0.000010(    31)      6  -0.000042(    55)     0
      8  C        2  -0.000153(     7)      1   0.000108(    32)      6  -0.000176(    56)     0
      9  H        3  -0.000008(     8)      1  -0.000074(    33)      5  -0.000090(    57)     0
     10  C        5  -0.000171(     9)      3   0.000328(    34)      1   0.000352(    58)     0
     11  H        5  -0.000003(    10)      3   0.000019(    35)     10  -0.000007(    59)     0
     12  C        5   0.000003(    11)      3   0.000076(    36)     10   0.000111(    60)     0
     13  H        8  -0.000003(    12)      2  -0.000125(    37)      1  -0.000008(    61)     0
     14  H        8   0.000006(    13)      2  -0.000052(    38)     13   0.000033(    62)     0
     15  N        6  -0.001154(    14)      2  -0.000188(    39)      1  -0.000379(    63)     0
     16  C        6   0.000639(    15)      2   0.000161(    40)     15   0.000016(    64)     0
     17  H       10  -0.000068(    16)      5  -0.000008(    41)      3  -0.000072(    65)     0
     18  H       10  -0.000016(    17)      5  -0.000115(    42)     17  -0.000041(    66)     0
     19  H       12   0.000011(    18)      5  -0.000044(    43)      3  -0.000029(    67)     0
     20  H       12   0.000005(    19)      5  -0.000020(    44)     19  -0.000046(    68)     0
     21  O       15   0.000740(    20)      6  -0.000640(    45)      2   0.000033(    69)     0
     22  O       16  -0.000419(    21)      6  -0.000110(    46)      2  -0.000384(    70)     0
     23  O       16  -0.000664(    22)      6   0.000180(    47)     22  -0.000114(    71)     0
     24  C       23   0.000503(    23)     16  -0.000348(    48)      6   0.000071(    72)     0
     25  H       24  -0.000043(    24)     23  -0.000125(    49)     16  -0.000097(    73)     0
     26  H       24  -0.000066(    25)     23  -0.000112(    50)     25   0.000029(    74)     0
     27  H       24  -0.000018(    26)     23  -0.000465(    51)     25  -0.000018(    75)     0
 -----------------------------------------------------------------------------------------------
 Internal  Forces:  Max     0.001208065 RMS     0.000338497

 GradGradGradGradGradGradGradGradGradGradGradGradGradGradGradGradGradGrad
 Berny optimization.
 Search for a local minimum.
 Step number   2 out of a maximum of   85
 All quantities printed in internal units (Hartrees-Bohrs-Radians)
 Update second derivatives using D2CorN and points    1    2
 DE= -4.83D-05 DEPred=-4.16D-05 R= 1.16D+00
 TightC=F SS=  1.41D+00  RLast= 2.66D-02 DXNew= 1.6818D-01 7.9941D-02
 Trust test= 1.16D+00 RLast= 2.66D-02 DXMaxT set to 1.00D-01
 ITU=  1  0
     Eigenvalues ---    0.00630   0.02473   0.03719   0.04307   0.05119
     Eigenvalues ---    0.05715   0.06789   0.08005   0.08522   0.09080
     Eigenvalues ---    0.09596   0.11558   0.14167   0.14347   0.15954
     Eigenvalues ---    0.16288   0.17209   0.17800   0.18279   0.18529
     Eigenvalues ---    0.21347   0.22026   0.23015   0.23748   0.23931
     Eigenvalues ---    0.25319   0.25512   0.25974   0.26440   0.26660
     Eigenvalues ---    0.27229   0.27636   0.27883   0.28716   0.29047
     Eigenvalues ---    0.29951   0.29997   0.30684   0.30912   0.31859
     Eigenvalues ---    0.32809   0.32847   0.34568   0.34577   0.34661
     Eigenvalues ---    0.34704   0.34743   0.34763   0.34823   0.34886
     Eigenvalues ---    0.34912   0.34940   0.35180   0.35252   0.35652
     Eigenvalues ---    0.35699   0.35729   0.39634   0.41274   0.43729
     Eigenvalues ---    0.50108   0.51753   0.56301   0.56973   0.59483
     Eigenvalues ---    0.67569   0.77003   0.97223   1.02533   1.11193
     Eigenvalues ---    1.68380   2.95287   6.93946   9.04885  23.41436
 RFO step:  Lambda=-2.49920983D-05 EMin= 6.30256638D-03
 Quartic linear search produced a step of  0.19101.
 Variable       Old X    -DE/DX   Delta X   Delta X   Delta X     New X
                                 (Linear)    (Quad)   (Total)
    R2        2.84915   0.00018   0.00004   0.00026   0.00030   2.84945
    R3        2.51629   0.00007   0.00011  -0.00045  -0.00034   2.51596
    R4        2.04577  -0.00000   0.00012  -0.00010   0.00003   2.04580
    R5        2.84648   0.00002  -0.00006  -0.00007  -0.00013   2.84635
    R6        2.96328   0.00032  -0.00003   0.00148   0.00146   2.96474
    R7        2.05383   0.00000   0.00000   0.00000   0.00000   2.05384
    R8        2.93332  -0.00015   0.00009  -0.00088  -0.00079   2.93253
    R9        2.04703  -0.00001   0.00014  -0.00014   0.00000   2.04703
   R10        2.92946  -0.00017   0.00004   0.00019   0.00024   2.92970
   R11        2.05971  -0.00000   0.00002  -0.00003  -0.00001   2.05970
   R12        2.92947   0.00000   0.00002  -0.00007  -0.00006   2.92942
   R13        2.06284  -0.00000  -0.00019   0.00013  -0.00006   2.06277
   R14        2.06056   0.00001  -0.00001   0.00003   0.00002   2.06059
   R15        2.94092  -0.00115  -0.00063  -0.00588  -0.00651   2.93441
   R16        2.89982   0.00064   0.00050   0.00288   0.00338   2.90320
   R17        2.05745  -0.00007  -0.00005  -0.00025  -0.00030   2.05715
   R18        2.06159  -0.00002  -0.00000  -0.00007  -0.00007   2.06152
   R19        2.06276   0.00001  -0.00019   0.00018  -0.00000   2.06276
   R20        2.06088   0.00001  -0.00002   0.00004   0.00002   2.06090
   R21        2.24604   0.00074   0.00039   0.00062   0.00102   2.24706
   R22        2.27412  -0.00042  -0.00036  -0.00027  -0.00063   2.27350
   R23        2.53243  -0.00066  -0.00021  -0.00154  -0.00175   2.53069
   R24        2.72128   0.00050   0.00075   0.00127   0.00202   2.72331
   R25        2.05244  -0.00004  -0.00004  -0.00014  -0.00018   2.05226
   R26        2.05790  -0.00007  -0.00005  -0.00024  -0.00029   2.05761
   R27        2.05789  -0.00002  -0.00013   0.00002  -0.00011   2.05778
    A3        1.99715   0.00099   0.00008   0.00027   0.00035   1.99750
    A4        2.11602   0.00003  -0.00006   0.00001  -0.00005   2.11597
    A5        1.99390   0.00076  -0.00002  -0.00005  -0.00007   1.99383
    A6        1.87709   0.00071  -0.00076   0.00111   0.00035   1.87744
    A7        1.96941   0.00001   0.00025  -0.00006   0.00019   1.96960
    A8        1.88405   0.00011   0.00039   0.00019   0.00058   1.88463
    A9        2.16085  -0.00007   0.00003  -0.00033  -0.00030   2.16054
   A10        1.89143   0.00033  -0.00026   0.00041   0.00014   1.89157
   A11        1.95897   0.00002   0.00016   0.00004   0.00019   1.95916
   A12        1.88385   0.00008   0.00004   0.00005   0.00009   1.88394
   A13        1.92175  -0.00012  -0.00006  -0.00088  -0.00094   1.92081
   A14        1.88921  -0.00005   0.00010  -0.00029  -0.00019   1.88902
   A15        1.81084  -0.00019  -0.00029  -0.00105  -0.00134   1.80950
   A16        1.94704   0.00016   0.00037   0.00092   0.00129   1.94833
   A17        1.92857  -0.00001  -0.00019  -0.00008  -0.00027   1.92830
   A18        1.92518  -0.00011   0.00023  -0.00082  -0.00059   1.92459
   A19        1.90578  -0.00004  -0.00002  -0.00016  -0.00018   1.90560
   A20        1.91761  -0.00002   0.00014  -0.00028  -0.00014   1.91746
   A21        2.01771  -0.00064   0.00067  -0.00424  -0.00357   2.01413
   A22        2.17265  -0.00011  -0.00125   0.00034  -0.00091   2.17175
   A23        1.94885   0.00018   0.00041   0.00040   0.00081   1.94966
   A24        2.02495  -0.00035  -0.00025  -0.00151  -0.00176   2.02319
   A25        1.84112  -0.00012   0.00004  -0.00034  -0.00029   1.84083
   A26        1.92582  -0.00011  -0.00007  -0.00010  -0.00017   1.92565
   A27        1.92895  -0.00047   0.00019  -0.00275  -0.00256   1.92639
    D4       -3.13142   0.00012   0.00108   0.00285   0.00393  -3.12749
    D5        0.01694  -0.00037   0.00124   0.00200   0.00324   0.02018
    D6       -1.01365  -0.00121  -0.00123  -0.00071  -0.00194  -1.01559
    D7       -2.11293  -0.00004   0.00044  -0.00082  -0.00038  -2.11331
    D8        2.01341  -0.00018   0.00002  -0.00076  -0.00074   2.01267
    D9        3.13780  -0.00009  -0.00018  -0.00203  -0.00221   3.13558
   D10        1.00202   0.00035  -0.00065  -0.00132  -0.00197   1.00005
   D11        2.11978  -0.00001  -0.00002   0.00020   0.00018   2.11995
   D12       -2.03231   0.00011  -0.00003   0.00043   0.00040  -2.03190
   D13       -3.09697  -0.00001   0.00039  -0.00035   0.00004  -3.09693
   D14       -2.02939   0.00003   0.00015   0.00046   0.00061  -2.02877
   D15       -1.19871  -0.00038   0.00064  -0.00301  -0.00236  -1.20107
   D16       -1.92898   0.00002  -0.00081   0.00196   0.00115  -1.92784
   D17       -3.07485  -0.00007   0.00028  -0.00239  -0.00210  -3.07695
   D18       -2.07427  -0.00004   0.00004   0.00022   0.00025  -2.07401
   D19        3.07843  -0.00003  -0.00006  -0.00077  -0.00083   3.07760
   D20        2.04639  -0.00005  -0.00010  -0.00029  -0.00039   2.04601
   D21        2.12089   0.00003  -0.00245  -0.01976  -0.02220   2.09869
   D22       -2.28591  -0.00038  -0.00120  -0.01243  -0.01363  -2.29954
   D23       -3.12663  -0.00011  -0.00060   0.00237   0.00177  -3.12486
   D24        3.10932   0.00007   0.00244   0.00262   0.00506   3.11438
   D25       -3.11691  -0.00010   0.00083   0.00265   0.00349  -3.11342
   D26        2.08721   0.00003   0.00007   0.00105   0.00112   2.08833
   D27       -2.08800  -0.00002   0.00003   0.00052   0.00055  -2.08745
         Item               Value     Threshold  Converged?
 Maximum Force            0.001208     0.000450     NO 
 RMS     Force            0.000338     0.000300     NO 
 Maximum Displacement     0.022202     0.001800     NO 
 RMS     Displacement     0.003403     0.001200     NO 
 Predicted change in Energy=-1.225963D-05
 GradGradGradGradGradGradGradGradGradGradGradGradGradGradGradGradGradGrad

 ---------------------------------------------------------------------------------------------------
                            Z-MATRIX (ANGSTROMS AND DEGREES)
   CD    Cent   Atom    N1       Length/X        N2       Alpha/Y        N3        Beta/Z          J
 ---------------------------------------------------------------------------------------------------
      1      1  C 
      2      2  C        1   1.507865(     1)
      3      3  C        1   1.331387(     2)      2  114.448(    27)
      4      4  H        1   1.082590(     3)      2  121.236(    28)      3 -179.192(    52)      0
      5      5  C        3   1.506224(     4)      1  114.238(    29)      2    1.156(    53)      0
      6      6  C        2   1.568871(     5)      1  107.570(    30)      3  -58.189(    54)      0
      7      7  H        2   1.086844(     6)      1  112.850(    31)      6 -121.084(    55)      0
      8      8  C        2   1.551830(     7)      1  107.981(    32)      6  115.318(    56)      0
      9      9  H        3   1.083241(     8)      1  123.790(    33)      5  179.656(    57)      0
     10     10  C        5   1.550328(     9)      3  108.379(    34)      1   57.299(    58)      0
     11     11  H        5   1.089947(    10)      3  112.252(    35)     10  121.464(    59)      0
     12     12  C        5   1.550180(    11)      3  107.942(    36)     10 -116.419(    60)      0
     13     13  H        8   1.091573(    12)      2  110.054(    37)      1 -177.441(    61)      0
     14     14  H        8   1.090416(    13)      2  108.233(    38)     13 -116.240(    62)      0
     15     15  N        6   1.552825(    14)      2  103.677(    39)      1  -68.816(    63)      0
     16     16  C        6   1.536310(    15)      2  111.631(    40)     15 -110.457(    64)      0
     17     17  H       10   1.088598(    16)      5  110.484(    41)      3 -176.296(    65)      0
     18     18  H       10   1.090908(    17)      5  110.271(    42)     17 -118.832(    66)      0
     19     19  H       12   1.091564(    18)      5  109.183(    43)      3  176.333(    67)      0
     20     20  H       12   1.090579(    19)      5  109.862(    44)     19  117.227(    68)      0
     21     21  O       15   1.189091(    20)      6  115.401(    45)      2  120.246(    69)      0
     22     22  O       16   1.203082(    21)      6  124.432(    46)      2 -131.754(    70)      0
     23     23  O       16   1.339181(    22)      6  111.707(    47)     22 -179.041(    71)      0
     24     24  C       23   1.441111(    23)     16  115.920(    48)      6  178.441(    72)      0
     25     25  H       24   1.086007(    24)     23  105.472(    49)     16 -178.386(    73)      0
     26     26  H       24   1.088839(    25)     23  110.332(    50)     25  119.652(    74)      0
     27     27  H       24   1.088931(    26)     23  110.374(    51)     25 -119.602(    75)      0
 ---------------------------------------------------------------------------------------------------
                         Z-Matrix orientation:                         
 ---------------------------------------------------------------------
 Center     Atomic      Atomic             Coordinates (Angstroms)
 Number     Number       Type             X           Y           Z
 ---------------------------------------------------------------------
      1          6           0        0.000000    0.000000    0.000000
      2          6           0        0.000000    0.000000    1.507865
      3          6           0        1.212006    0.000000   -0.551028
      4          1           0       -0.925561    0.013053   -0.561397
      5          6           0        2.343233   -0.027711    0.443089
      6          6           0        0.788400   -1.271023    1.981450
      7          1           0       -1.001475   -0.012707    1.929901
      8          6           0        0.801130    1.239704    1.986927
      9          1           0        1.387874    0.012756   -1.619821
     10          6           0        2.175249   -1.281091    1.339938
     11          1           0        3.318882   -0.048719   -0.042351
     12          6           0        2.212725    1.222718    1.349981
     13          1           0        0.861177    1.248284    3.076814
     14          1           0        0.250355    2.134890    1.696588
     15          7           0       -0.135867   -2.449902    1.572501
     16          6           0        0.830380   -1.373065    3.513792
     17          1           0        2.939672   -1.300326    2.114750
     18          1           0        2.285284   -2.188941    0.745145
     19          1           0        2.985130    1.189115    2.120548
     20          1           0        2.383462    2.125746    0.762824
     21          8           0        0.341346   -3.233511    0.816087
     22          8           0        1.826567   -1.584170    4.154458
     23          8           0       -0.385218   -1.218432    4.053992
     24          6           0       -0.456102   -1.332667    5.488818
     25          1           0       -1.506066   -1.209979    5.737687
     26          1           0       -0.095141   -2.308789    5.808915
     27          1           0        0.144547   -0.556779    5.961034
 ---------------------------------------------------------------------
                    Distance matrix (angstroms):
                    1          2          3          4          5
     1  C    0.000000
     2  C    1.507865   0.000000
     3  C    1.331387   2.389141   0.000000
     4  H    1.082590   2.266865   2.137632   0.000000
     5  C    2.384919   2.573957   1.506224   3.419893   0.000000
     6  C    2.482583   1.568871   2.865028   3.324543   2.515926
     7  H    2.174312   1.086844   3.324856   2.492587   3.660316
     8  C    2.475188   1.551830   2.854278   3.313622   2.523462
     9  H    2.133115   3.421809   1.083241   2.544061   2.273752
    10  C    2.858030   2.530040   2.478867   3.860687   1.550328
    11  H    3.319510   3.663403   2.167960   4.276508   1.089947
    12  C    2.865945   2.533006   2.471905   3.868526   1.550180
    13  H    3.430251   2.182072   3.852600   4.237311   3.280420
    14  H    2.738401   2.157788   3.245659   3.314131   3.260098
    15  N    2.914316   2.454518   3.511147   3.353101   3.645342
    16  C    3.862846   2.568771   4.307401   4.648852   3.678032
    17  H    3.847686   3.271212   3.432499   4.881266   2.183973
    18  H    3.251035   3.255108   2.761061   4.106746   2.183005
    19  H    3.849899   3.271143   3.419837   4.885638   2.169462
    20  H    3.283532   3.279447   2.759947   4.143267   2.177436
    21  O    3.352329   3.324255   3.616994   3.747358   3.797872
    22  O    4.806814   3.584745   5.002887   5.688991   4.057557
    23  O    4.250626   2.848812   5.024132   4.807322   4.679837
    24  C    5.666671   4.222798   6.406116   6.215823   5.915959
    25  H    6.054200   4.650127   6.957003   6.442923   6.651889
    26  H    6.251644   4.882478   6.891155   6.830917   6.319895
    27  H    5.988725   4.490168   6.622418   6.634150   5.963375
                    6          7          8          9         10
     6  C    0.000000
     7  H    2.188531   0.000000
     8  C    2.510765   2.195717   0.000000
     9  H    3.869963   4.279038   3.854647   0.000000
    10  C    1.528068   3.471085   2.942993   3.324782   0.000000
    11  H    3.463112   4.749375   3.480960   2.494189   2.176548
    12  C    2.940442   3.491944   1.548739   3.311210   2.504109
    13  H    2.748094   2.524873   1.091573   4.884907   3.337852
    14  H    3.459896   2.496735   1.090416   4.098288   3.937174
    15  N    1.552825   2.610925   3.829218   4.310150   2.600282
    16  C    1.536310   2.777586   3.026340   5.346521   2.557885
    17  H    2.155597   4.150274   3.322868   4.251974   1.088598
    18  H    2.147484   4.116118   3.937048   3.353488   1.090908
    19  H    3.301099   4.168183   2.188669   4.233841   2.714254
    20  H    3.945543   4.170473   2.187984   3.336602   3.461640
    21  O    2.325788   3.662967   4.646711   4.191315   2.729390
    22  O    2.428542   3.926318   3.704589   6.007073   2.852185
    23  O    2.382346   2.518990   3.423829   6.070571   3.731756
    24  C    3.722125   3.834791   4.523380   7.466135   4.913235
    25  H    4.402001   4.023345   5.039077   8.000181   5.735620
    26  H    4.062892   4.597846   5.291758   7.923070   5.116893
    27  H    4.094115   4.226040   4.410439   7.703220   5.099304
                   11         12         13         14         15
    11  H    0.000000
    12  C    2.186029   0.000000
    13  H    4.177526   2.193009   0.000000
    14  H    4.148242   2.191595   1.750485   0.000000
    15  N    4.506520   4.365036   4.115050   4.602704   0.000000
    16  C    4.537917   3.651171   2.657700   3.993045   2.421121
    17  H    2.522580   2.734790   3.426531   4.382692   3.327837
    18  H    2.503803   3.465618   4.390817   4.872545   2.571885
    19  H    2.514311   1.091564   2.330048   2.924590   4.825291
    20  H    2.500323   1.090579   2.905484   2.328549   5.285750
    21  O    4.443595   4.862621   5.046543   5.440890   1.189091
    22  O    4.711457   3.986581   3.180580   4.728316   3.356657
    23  O    5.645229   4.474393   2.931392   4.148020   2.781455
    24  C    6.818568   5.548208   3.770185   5.186911   4.085132
    25  H    7.618234   6.244949   4.327487   5.532056   4.556712
    26  H    7.141484   6.138395   4.586032   6.064395   4.238960
    27  H    6.809931   5.357778   3.477145   5.043984   4.787669
                   16         17         18         19         20
    16  C    0.000000
    17  H    2.532137   0.000000
    18  H    3.232307   1.758885   0.000000
    19  H    3.626134   2.489863   3.713864   0.000000
    20  H    4.713976   3.724922   4.315840   1.755761   0.000000
    21  O    3.313311   3.489274   2.207953   5.315152   5.735391
    22  O    1.203082   2.340935   3.492790   3.629073   5.057350
    23  O    1.339181   3.849968   4.361414   4.570966   5.448017
    24  C    2.357413   4.787135   5.545344   5.435689   6.508361
    25  H    3.229750   5.735714   6.344933   6.245814   7.141761
    26  H    2.645706   4.886097   5.596656   5.943691   7.160420
    27  H    2.669397   4.812430   5.869600   5.085901   6.263391
                   21         22         23         24         25
    21  O    0.000000
    22  O    4.008857   0.000000
    23  O    3.882328   2.244070   0.000000
    24  C    5.107206   2.656003   1.441111   0.000000
    25  H    5.632918   3.708514   2.022672   1.086007   0.000000
    26  H    5.096466   2.637284   2.086332   1.088839   1.789740
    27  H    5.802940   2.673657   2.086922   1.088931   1.789156
                   26         27
    26  H    0.000000
    27  H    1.774861   0.000000
 Symmetry turned off by external request.
 Stoichiometry    C10H13NO3
 Framework group  C1[X(C10H13NO3)]
 Deg. of freedom    75
 Full point group                 C1      NOp   1
 Rotational constants (GHZ):           1.1230992           0.6256699           0.5345493
 Standard basis: def2TZVP (5D, 7F)
 The following finite field(s) will be applied:
 An electric field of             -0.0010 -0.0007 -0.0022
   512 basis functions,   818 primitive gaussians,   582 cartesian basis functions
    52 alpha electrons       52 beta electrons
       nuclear repulsion energy       966.0336992589 Hartrees.
 NAtoms=   27 NActive=   27 NUniq=   27 SFac= 1.00D+00 NAtFMM=   60 NAOKFM=F Big=F
 Integral buffers will be    131072 words long.
 Raffenetti 2 integral format.
 Two-electron integral symmetry is turned off.
 One-electron integrals computed using PRISM.
[...]
 0.11792608,0.00006727,0.00006005,-0.00062085,0.00002570,0.00160000,-0.
 00038433,-0.00021405,-0.00014994,-0.00013647,0.00025182,0.00000229,-0.
 00030458,-0.00001419,0.00044036,-0.00024742,-0.00031688,-0.00115709,0.
 00119512,0.00061328,-0.00041455,0.00097371,0.03275946,0.24537193,0.000
 03691,0.00026374,-0.00019615,0.00060375,-0.00065269,-0.00075782,0.0005
 5586,-0.00071576,0.00161552,-0.00002661,-0.00003319,0.00004069,-0.0038
 6153,-0.01765706,0.01038389,0.00031761,-0.00008318,-0.00020888,0.00009
 451,0.00031283,0.00014799,0.00193220,0.00875392,-0.00704476,0.00008799
 ,0.00002963,0.00003493,-0.00012370,-0.00329740,-0.00223410,-0.00002915
 ,0.00101176,0.00090149,0.01936395,0.11949991,-0.12673310,0.00191299,0.
 00009384,-0.00036881,-0.00009790,-0.00027220,0.00162694,-0.00012912,-0
 .00020366,-0.00018534,-0.00021398,-0.00015700,-0.00010911,0.00021065,-
 0.00007022,0.00004690,0.00007382,-0.00098131,0.00090749,0.00334271,0.0
 1996841,-0.01253844,-0.02406983,-0.12618977,0.13439819,-0.00064818,-0.
 00010052,0.00002673,-0.00085870,-0.00484660,-0.00082058,0.00035635,-0.
 00024575,-0.00013432,0.00000726,0.00027197,-0.00024628,0.00187057,-0.0
 0144927,-0.00197232,0.03827731,-0.00057772,-0.01123906,-0.00005472,-0.
 00045376,-0.00006082,-0.00009964,-0.00095972,0.00013761,0.00007321,0.0
 0004081,-0.00006664,-0.00333868,0.00292493,0.00249765,0.00010743,0.000
 62412,-0.00050988,-0.00003850,-0.00072278,0.00057316,-0.00001202,-0.00
 007570,-0.00010485,-0.00005273,0.00000655,-0.00005894,-0.21632352,0.17
 627688,0.21153614,-0.00309989,-0.00155540,-0.00703701,0.00119697,-0.00
 116787,-0.00094398,-0.00172187,-0.00675387,-0.00479043,0.00003025,0.00
 003523,0.00005433,0.00014804,-0.00026759,-0.00012024,0.18039442,0.0010
 6536,-0.00081420,-0.00138961,-0.00565592,0.00048953,-0.00216385,-0.000
 72406,0.00037279,0.00049361,0.00007912,-0.00021946,0.00085626,-0.00044
 643,0.00088967,0.00043198,-0.00258219,-0.06427350,-0.05894982,0.000588
 50,-0.00042710,-0.00008943,0.00245277,-0.00211148,0.00136014,-0.000087
 67,-0.00016418,0.00025520,0.00576377,-0.00158121,-0.00306127,-0.000132
 42,-0.00035120,0.00036142,0.00065689,0.00028739,-0.00037324,0.00020987
 ,0.00062165,0.00041270,-0.00074269,-0.00131626,0.00000950,0.16744941,-
 0.32606825,-0.29650260,-0.00505532,-0.01216035,0.01997965,0.00090125,0
 .00013402,-0.00067452,-0.00196877,-0.00077001,0.00161282,-0.00001041,0
 .00014356,0.00004154,-0.00006783,-0.00008299,0.00019762,-0.16112005,0.
 40146429,0.00201205,0.00201790,-0.00113355,-0.00827778,0.00388385,-0.0
 0626861,-0.00150095,0.00117202,0.00085248,0.00013771,-0.00079662,0.000
 72088,0.00044722,-0.00029462,0.00034895,-0.01427697,-0.05538371,-0.029
 10948,0.00021806,0.00066904,0.00016306,0.00310855,-0.00154314,0.002175
 89,-0.00019688,-0.00030010,0.00035400,0.00527565,-0.00089409,-0.004283
 24,-0.00017094,-0.00007827,0.00031982,0.00047600,-0.00007203,-0.000347
 56,0.00010367,0.00036782,0.00022525,-0.00092268,-0.00139435,-0.0001667
 4,0.20991481,-0.29880188,-0.29999642,-0.00451891,-0.00637611,0.0145537
 3,-0.00086732,0.00149644,0.00098430,-0.00163938,0.00330362,0.00124455,
 -0.00012956,0.00009093,0.00001243,-0.00028385,0.00003737,0.00013615,-0
 .18909105,0.34850317,0.32662155,0.00070778,0.00088875,0.00036146,0.000
 69937,-0.00168273,-0.00013469,-0.00052656,-0.00052488,-0.00042666,0.00
 008846,0.00005442,-0.00019084,0.00138812,0.00082228,0.00050896,-0.0116
 9354,0.00311526,-0.02246390,0.00087353,-0.00028801,0.00051346,-0.00047
 953,-0.00045220,-0.00055657,0.00033702,-0.00014891,0.00011169,-0.00442
 722,-0.00084305,0.00240783,0.00009183,0.00013545,-0.00018989,-0.000443
 15,-0.00011289,-0.00047712,-0.00069898,0.00011867,0.00023533,0.0003097
 6,0.00020107,0.00038764,0.00180737,0.00799907,0.00293468,-0.50368886,0
 .10120082,-0.27301989,0.00362615,0.00009070,0.00142082,0.00057340,-0.0
 0045658,0.00037416,0.00064093,0.00037540,0.00011586,0.00030680,-0.0001
 4295,0.00010860,0.00278832,-0.00448273,-0.00289045,0.61579426,-0.00087
 746,0.00073202,-0.00022086,0.00006171,-0.00198689,-0.00317259,0.000001
 61,0.00003074,-0.00007853,0.00007207,0.00008219,-0.00020803,-0.0004203
 5,0.00004719,-0.00014719,0.00876402,0.02248102,0.01021176,-0.00017464,
 0.00009007,0.00000971,0.00018698,-0.00060024,-0.00067263,-0.00001860,-
 0.00006490,0.00001104,0.00096485,0.00093909,-0.00013791,-0.00000822,-0
 .00002418,0.00007090,0.00010160,-0.00009031,-0.00016438,-0.00010679,-0
 .00003329,0.00047779,0.00002185,0.00002554,0.00014218,-0.00210145,-0.0
 0617381,-0.00033924,0.10246059,-0.09935938,0.06785622,-0.00025781,-0.0
 0099151,0.00005573,0.00044346,0.00005566,0.00047022,0.00021317,0.00010
 393,-0.00000040,0.00002032,0.00000991,0.00012828,-0.00073651,0.0047533
 1,0.00351934,-0.13317032,0.06070814,-0.00042536,0.00237578,-0.00029512
 ,0.00135501,-0.00260301,-0.00449897,-0.00074241,0.00046176,-0.00068998
 ,-0.00001290,-0.00001143,-0.00052662,-0.00054460,-0.00084556,0.0001179
 2,-0.04056789,0.00585904,-0.03176142,-0.00023238,0.00028400,-0.0001766
 7,-0.00067895,-0.00075113,-0.00099306,0.00007560,-0.00018102,-0.000084
 90,-0.00238298,0.00136846,-0.00100628,0.00018531,0.00025829,-0.0001976
 7,-0.00001115,-0.00017505,-0.00026020,-0.00015013,0.00038943,0.0004862
 5,0.00025975,0.00044868,0.00037557,0.00441861,0.01369628,0.00464356,-0
 .26908211,0.06601656,-0.29345372,-0.00046750,0.00044245,-0.00353285,-0
 .00014865,0.00003832,-0.00031623,0.00037135,0.00019494,0.00005560,0.00
 008171,0.00015981,0.00007731,0.00203728,-0.00794677,-0.00543198,0.3073
 4883,-0.07952390,0.30367272,0.00093738,-0.00044951,0.00006371,-0.00311
 368,0.00164266,-0.00067268,-0.00020267,-0.00033588,-0.00029626,0.00006
 153,0.00002670,0.00019570,0.00024903,0.00052542,0.00014444,-0.00261489
 ,0.00352915,0.01612600,0.00155826,-0.00030975,0.00010140,0.00035329,-0
 .00018526,-0.00001901,0.00017537,0.00006979,0.00008026,0.00130429,-0.0
 0001234,0.00070614,-0.00003266,-0.00025762,0.00008936,-0.00026879,0.00
 008330,-0.00012430,-0.00067603,-0.00025590,-0.00002304,-0.00000851,-0.
 00029118,0.00001191,-0.00513056,-0.00670128,-0.00545271,-0.21826036,0.
 02670646,0.04825457,0.00135034,0.00031090,-0.00145456,-0.00008998,-0.0
 0017095,0.00032978,0.00027516,0.00022148,-0.00000237,0.00019983,-0.000
 20232,0.00007300,0.00074421,0.00384296,0.00318178,-0.10967199,0.026054
 55,-0.00302668,0.40899781,-0.00096268,0.00066561,-0.00027148,0.0016508
 6,-0.00135125,-0.00058902,-0.00000934,0.00008341,0.00022355,0.00004645
 ,0.00000029,-0.00008756,-0.00004043,-0.00012049,-0.00001921,-0.0000818
 8,0.00833283,0.00046652,-0.00104004,-0.00048902,0.00081369,-0.00066808
 ,-0.00047999,-0.00086207,-0.00008176,-0.00008300,0.00002287,-0.0001148
 4,0.00091749,0.00053238,-0.00002827,0.00012951,0.00000547,0.00042875,-
 0.00014769,0.00040167,0.00053314,-0.00001351,0.00114070,0.00002349,0.0
 0008980,0.00022481,-0.00145040,-0.00106843,-0.00195674,0.02363486,-0.0
 6935143,-0.00155135,-0.00027929,0.00011951,0.00043806,-0.00027741,0.00
 001723,0.00006963,-0.00010481,-0.00004603,0.00001420,-0.00018300,0.000
 04100,0.00007382,0.00077153,0.00084794,0.00091048,0.02740551,0.0243873
 8,0.00112262,-0.05600690,0.09205925,0.00038538,0.00091126,0.00052082,0
 .00146202,-0.00081722,-0.00184698,0.00022931,0.00017609,-0.00017830,-0
 .00009638,-0.00007764,-0.00029592,0.00120714,-0.00071088,-0.00043566,0
 .03528987,-0.00473611,-0.02653248,0.00090503,0.00070643,-0.00210451,-0
 .00050572,-0.00021599,-0.00076089,0.00007163,-0.00019832,-0.00017948,-
 0.00424194,-0.00070889,-0.00635197,0.00019010,0.00072729,-0.00046951,-
 0.00004876,-0.00023387,-0.00003011,0.00028889,0.00016463,0.00010857,0.
 00008759,0.00047640,0.00006404,0.00359124,0.00469827,-0.00035821,0.067
 02385,-0.00482737,-0.15144943,-0.00033359,0.00019761,0.00081538,0.0014
 1336,0.00012215,-0.00106837,0.00007015,-0.00008609,0.00005451,-0.00003
 162,0.00025673,-0.00005326,0.00090194,-0.00399787,-0.00223732,-0.00482
 734,0.00062633,0.03018925,-0.08352719,-0.01629493,0.42994149,0.0001494
 3,0.00007806,0.00005310,-0.00018155,0.00009184,-0.00061503,-0.00001642
 ,0.00001280,-0.00015738,-0.00000428,0.00000265,-0.00005985,-0.00022681
 ,0.00007499,0.00007945,-0.00454022,0.00191051,0.00124827,0.00044031,-0
 .00029148,0.00008708,0.00008582,-0.00006297,0.00015851,0.00003129,-0.0
 0000069,-0.00003000,0.00042697,0.00012760,0.00091070,0.00001664,-0.000
 07545,0.00002270,-0.00000298,0.00005959,0.00002699,-0.00002945,-0.0001
 6007,-0.00006712,-0.00001239,0.00002738,-0.00011677,-0.00028469,-0.000
 09055,-0.00005677,-0.00839450,-0.00216628,0.04602764,-0.00003588,-0.00
 002511,0.00004064,-0.00019304,-0.00004295,0.00011249,-0.00002401,-0.00
 001621,0.00001489,0.00002835,0.00000599,-0.00004459,0.00024921,-0.0000
 5342,-0.00014105,0.00191795,-0.00188165,0.00236699,-0.08281555,0.00553
 981,-0.02188346,0.62246356,-0.00026300,-0.00002239,-0.00002958,-0.0002
 8007,0.00008191,-0.00044010,0.00005689,-0.00003709,0.00004578,-0.00000
 032,0.00002056,-0.00004618,0.00013314,0.00002331,-0.00009430,0.0025337
 9,0.00449649,0.00113160,-0.00022391,0.00010864,0.00000339,0.00013203,0
 .00000666,0.00025562,-0.00001429,0.00000883,-0.00000750,-0.00018392,0.
 00027172,-0.00040898,0.00000801,0.00003412,-0.00004302,-0.00002014,-0.
 00003868,-0.00000259,-0.00005814,-0.00010190,-0.00002773,-0.00003373,-
 0.00003128,-0.00009069,-0.00016497,-0.00019402,0.00056752,-0.00161697,
 0.00249871,-0.00625890,-0.00004988,0.00005921,0.00009868,0.00006581,0.
 00005136,-0.00002428,-0.00002939,-0.00000849,0.00001956,0.00001019,0.0
 0000429,-0.00002615,0.00011720,0.00035041,-0.00002896,0.00036892,-0.00
 636622,-0.00050409,0.00287194,-0.06720483,0.01469842,-0.00726376,0.587
 37072,-0.00043025,-0.00034665,-0.00025050,0.00009542,0.00032027,-0.000
 08131,-0.00001724,-0.00011289,0.00027492,0.00004783,0.00003569,0.00012
 406,0.00010924,0.00012957,-0.00000585,0.00089536,0.00098919,0.00386318
 ,-0.00054663,0.00023081,-0.00038022,-0.00002422,-0.00003450,-0.0000770
 2,-0.00006843,0.00006915,0.00011612,-0.00018513,-0.00007173,0.00055149
 ,-0.00011651,-0.00008210,0.00011472,0.00011609,-0.00007457,0.00005535,
 0.00023146,0.00040118,0.00033372,-0.00001042,-0.00018582,0.00017735,0.
 00000045,-0.00229336,-0.00039773,0.03968906,-0.00374132,-0.03801287,0.
 00020701,0.00000586,-0.00025284,-0.00001083,0.00006615,0.00016728,-0.0
 0003511,0.00008698,-0.00003596,-0.00007411,-0.00010144,0.00011757,-0.0
 0090526,0.00155284,0.00082803,-0.01788983,0.00277383,-0.00188817,0.003
 65402,0.00953058,-0.17852062,0.00311837,0.01523766,0.42013650,0.000000
 27,-0.00003293,-0.00001239,-0.00002751,0.00003978,0.00002282,-0.000007
 39,-0.00001333,0.00001097,0.00000489,0.00000319,0.00001551,0.00001259,
 0.00002978,0.00000275,0.00010492,0.00006643,0.00002099,-0.00002554,0.0
 0001227,0.00001070,0.00002119,-0.00000506,-0.00001079,0.00000063,0.000
 00577,0.00001042,0.00002568,-0.00000878,0.00004214,-0.00000552,-0.0000
 1285,0.00000969,-0.00000603,-0.00000355,-0.00001487,-0.00002642,0.0000
 3906,-0.00000202,-0.00000016,-0.00002516,0.00003021,-0.00003881,-0.000
 24005,-0.00008820,0.00032537,0.00011255,-0.00182791,0.00005424,-0.0000
 0196,-0.00001942,-0.00000527,-0.00000748,0.00002108,0.00001134,0.00001
 017,-0.00000454,0.00000176,-0.00001186,0.00000966,-0.00005571,0.000170
 87,0.00011031,0.00045127,-0.00011299,0.00158056,0.00189174,-0.00040219
 ,0.00181201,-0.30948237,0.03939969,0.05846943,0.32792722,0.00001764,-0
 .00000332,0.00000243,-0.00005159,0.00001701,-0.00004408,0.00000198,-0.
 00000120,-0.00001050,-0.00000167,0.00000556,-0.00000129,-0.00000650,0.
 00000396,-0.00000155,-0.00010292,0.00018465,0.00005588,0.00002662,0.00
 001975,0.00002899,0.00001732,-0.00000655,-0.00000208,0.00000260,0.0000
 0140,-0.00000271,0.00001859,-0.00001887,0.00000506,0.00000114,-0.00000
 522,-0.00000092,-0.00000895,-0.00000385,-0.00000633,-0.00003502,0.0000
 1658,-0.00001850,-0.00000304,-0.00001491,0.00001973,0.00002876,0.00001
 283,0.00011294,0.00051737,0.00002228,0.00092181,-0.00001498,-0.0000071
 9,0.00000012,0.00000181,0.00000741,0.00000071,0.00000552,-0.00000017,-
 0.00000187,0.00000215,0.00000004,-0.00000067,-0.00001366,-0.00000189,-
 0.00004159,-0.00002168,0.00070941,-0.00052903,-0.00409475,0.00074071,0
 .00198679,0.04059294,-0.05907816,-0.00992349,-0.04312636,0.05371428,-0
 .00003897,0.00004293,0.00002324,0.00016859,-0.00010482,0.00010078,0.00
 002373,0.00000205,0.00002096,-0.00000438,-0.00000573,-0.00002387,0.000
 09097,-0.00004375,-0.00003833,0.00143451,-0.00037608,-0.00037423,-0.00
 003090,0.00003959,-0.00003251,-0.00005633,0.00001887,-0.00001280,-0.00
 000343,-0.00001108,-0.00000598,-0.00022407,-0.00004738,-0.00042951,0.0
 0000634,0.00004773,-0.00003009,-0.00001217,-0.00001886,-0.00001063,0.0
 0000818,-0.00001444,-0.00000245,0.00001256,0.00003736,-0.00000569,0.00
 014995,0.00047203,0.00016134,-0.00519799,0.00166865,-0.00638782,-0.000
 00792,0.00001904,0.00002129,0.00009034,0.00001630,-0.00006933,0.000000
 80,-0.00000591,0.00000185,-0.00000298,0.00001355,0.00000094,0.00004100
 ,-0.00029433,-0.00012771,0.00050218,-0.00027279,0.00258253,0.04112978,
 -0.00503704,-0.02476570,0.04558384,-0.00766382,-0.05466397,-0.06400756
 ,0.00853525,0.07513421,0.00001209,0.00002088,-0.00001075,-0.00009783,0
 .00000797,-0.00008016,-0.00000207,0.00000909,-0.00001463,-0.00000435,0
 .00000528,-0.00000377,-0.00001342,-0.00001019,0.00000242,0.00007247,0.
 00041699,-0.00002155,0.00000128,0.00001718,0.00001638,0.00000977,-0.00
 001605,-0.00002000,0.00000058,-0.00000213,-0.00000499,-0.00000126,-0.0
 0000751,-0.00002291,0.00000171,0.00000253,-0.00000021,0.00001105,0.000
 00129,0.00001053,-0.00000129,0.00000108,-0.00001285,-0.00000634,-0.000
 00544,0.00000333,0.00003665,0.00002278,0.00018361,0.00237165,-0.001710
 06,0.00203021,-0.00004681,-0.00000886,0.00004400,0.00000728,0.00001226
 ,-0.00000685,-0.00000359,-0.00000775,-0.00000201,-0.00000345,0.0000044
 9,-0.00000428,-0.00000003,0.00003454,-0.00006493,-0.00048788,0.0002637
 2,-0.00109142,0.00082067,-0.00389416,0.00024929,-0.07574114,0.07696528
 ,-0.02137576,-0.00641440,0.02798076,-0.00781359,0.07312583,-0.00002105
 ,0.00000505,-0.00001586,0.00007963,0.00001667,0.00006235,0.00000229,0.
 00000705,0.00002249,0.00000128,-0.00000604,0.00001009,-0.00001398,-0.0
 0001400,0.00000347,-0.00032420,-0.00041118,-0.00017085,-0.00005073,0.0
 0001088,-0.00003362,-0.00003105,0.00001593,-0.00007578,-0.00000735,-0.
 00000115,0.00000533,0.00000990,0.00001916,0.00004080,-0.00000559,0.000
 00428,0.00000806,0.00001915,0.00000349,0.00001060,0.00003772,0.0000219
 6,0.00001020,0.00000400,0.00000693,0.00000876,0.00006738,0.00013670,0.
 00003531,0.00365323,0.00022190,-0.00000955,-0.00001504,-0.00000976,-0.
 00000389,-0.00001710,0.00000135,0.00000993,-0.00000095,-0.00000165,-0.
 00000532,-0.00000995,0.00000047,0.00000919,0.00000018,-0.00009964,-0.0
 0005104,-0.00092996,0.00053636,-0.00181221,-0.00233529,0.00450680,0.00
 614401,0.07411706,-0.27805822,0.06276128,0.00012204,-0.00146753,-0.000
 59357,-0.08214908,0.29373687,0.00012303,0.00005411,0.00006927,0.000010
 68,-0.00004546,0.00009906,-0.00000064,0.00000840,-0.00006728,-0.000008
 35,-0.00000392,-0.00002151,-0.00001166,-0.00001177,0.00000284,-0.00044
 102,-0.00088832,-0.00069233,0.00018712,-0.00008812,0.00008431,-0.00002
 431,-0.00002128,-0.00005351,0.00001909,-0.00000967,-0.00001712,-0.0000
 9611,-0.00008605,-0.00005836,0.00001377,0.00001132,-0.00001209,-0.0000
 1450,0.00001441,-0.00000234,-0.00002748,-0.00005673,-0.00003230,0.0000
 0854,0.00003651,-0.00001494,0.00026782,0.00057885,0.00026687,-0.008122
 46,0.00266736,0.00171378,0.00001564,-0.00000023,0.00002479,0.00003673,
 -0.00001143,-0.00003556,0.00001459,-0.00000451,0.00000293,0.00001319,0
 .00001026,-0.00001153,0.00012292,-0.00048943,-0.00034256,0.00276377,-0
 .00056841,0.00123990,-0.00514621,0.03360751,-0.02914826,-0.01792495,0.
 05481999,-0.06325337,0.00066373,-0.00689309,0.00369928,0.02298075,-0.0
 7120985,0.08042574,0.00004696,0.00000239,0.00001015,-0.00001423,0.0000
 2395,0.00013251,0.00000286,0.00001561,0.00000339,-0.00000413,-0.000009
 24,0.00001389,-0.00001969,-0.00001945,-0.00000112,-0.00016573,-0.00072
 677,-0.00020726,0.00000213,-0.00002635,-0.00000140,-0.00002346,0.00003
 746,-0.00003726,-0.00000235,-0.00000465,-0.00000366,0.00003202,0.00000
 480,0.00000960,0.00000062,0.00000728,0.00000299,0.00002575,0.00001237,
 0.00001793,0.00005458,-0.00001808,-0.00000751,-0.00000124,0.00001645,-
 0.00002071,-0.00005409,0.00014266,-0.00006044,0.00166988,0.00068633,0.
 00211871,-0.00002509,-0.00000863,0.00000735,-0.00001033,-0.00000176,-0
 .00000499,-0.00001225,-0.00000691,0.00000140,-0.00000710,0.00000635,-0
 .00000328,0.00006064,-0.00008541,-0.00001309,-0.00028463,0.00023627,-0
 .00051591,0.00396676,0.00559106,0.00031723,-0.14382427,-0.11246041,-0.
 06494401,-0.01473797,-0.02173409,-0.01184248,0.00635284,0.00779747,0.0
 0457631,0.14697152,0.00003968,-0.00003316,0.00000650,0.00000179,0.0000
 4514,0.00010492,0.00000083,-0.00000846,0.00000167,0.00000017,-0.000001
 60,0.00001038,0.00001642,0.00001378,-0.00000556,0.00016807,-0.00036573
 ,0.00008388,0.00001891,-0.00000692,0.00001825,0.00004097,0.00004836,0.
 00006657,0.00000255,0.00000258,0.00000115,0.00001869,-0.00001191,-0.00
 001165,0.00000153,-0.00000753,-0.00000263,-0.00003581,0.00000565,-0.00
 003430,-0.00004537,0.00001402,-0.00006103,0.00000175,-0.00000710,-0.00
 000660,-0.00006319,-0.00013088,-0.00011610,-0.00244472,0.00117877,-0.0
 0076291,0.00003063,0.00000487,-0.00003293,-0.00000131,-0.00000809,0.00
 000412,0.00000629,0.00000415,0.00000045,0.00001190,-0.00000305,-0.0000
 0271,-0.00002262,0.00008716,0.00008453,0.00048056,-0.00000123,0.001766
 78,0.00572361,0.00741689,0.00101276,-0.11051066,-0.18424566,-0.0772231
 7,0.00399295,0.00515299,0.00357626,-0.01795490,-0.01918265,-0.01142047
 ,0.12052127,0.19003961,0.00000675,0.00009245,0.00002570,-0.00002127,-0
 .00014174,-0.00000444,0.00000840,0.00001880,-0.00002427,-0.00000084,-0
 .00000666,-0.00002137,0.00002440,-0.00003236,-0.00000746,0.00031894,0.
 00081253,0.00011807,0.00006971,-0.00007855,0.00004174,-0.00005325,-0.0
 0007506,-0.00024434,0.00000894,-0.00001638,-0.00001025,-0.00013964,0.0
 0002197,-0.00013518,0.00001066,0.00004217,-0.00001700,0.00003535,0.000
 00451,0.00001906,0.00001710,0.00001833,0.00001268,0.00001320,0.0000398
 2,0.00002927,-0.00006331,0.00018797,0.00002336,-0.00891298,0.00059585,
 0.00098814,0.00000653,0.00000336,0.00004523,0.00003343,0.00000305,-0.0
 0002949,0.00002067,-0.00000228,-0.00000235,-0.00000262,0.00001538,0.00
 000528,0.00017291,-0.00013571,-0.00009589,0.00297193,-0.00084645,0.001
 67326,-0.01439684,-0.02292916,-0.03490708,-0.05875468,-0.07118136,-0.0
 8903987,0.00314473,0.00580800,0.00523420,0.00503009,0.00483967,0.00613
 430,0.07045165,0.08294183,0.11018870\\0.00025087,-0.00129095,0.0000269
 0,-0.00031093,0.00085145,-0.00000449,0.00000045,0.00048568,-0.00000633
 ,0.00000164,-0.00001393,-0.00000182,-0.00000651,0.00002948,0.00001630,
 0.00003166,-0.00020396,-0.00006121,0.00000904,-0.00000831,0.00000357,0
 .00002041,-0.00000238,0.00001301,0.00000027,-0.00000289,0.00000095,-0.
 00002082,-0.00001553,0.00000260,0.00000009,-0.00000513,-0.00000014,-0.
 00000383,0.00000167,-0.00001776,-0.00000315,0.00000638,-0.00000564,-0.
 00000685,-0.00000196,-0.00000734,-0.00004350,0.00010646,0.00004648,-0.
 00000453,0.00015204,0.00000075,-0.00000335,-0.00001089,0.00000755,-0.0
 0001177,-0.00003040,-0.00001474,-0.00000101,-0.00000814,0.00000135,0.0
 0000078,0.00000424,0.00000814,0.00010311,0.00004293,0.00001624,0.00002
 276,-0.00006274,-0.00002542,-0.00001373,0.00000835,0.00003069,-0.00001
 532,-0.00006668,-0.00004711,-0.00000082,0.00000625,0.00000459,0.000016
 77,0.00001241,0.00001234,-0.00001173,0.00001654,0.00000052\\\@


 YOU KNOW YOU'RE A TEACHER WHEN YOU SAY 2, WRITE 3, AND MEAN 4.
 -- RONALD ANSTROM, HIGH SCHOOL TEACHER, UNDERWOOD, N.D. 1974
 Job cpu time:       0 days  9 hours  6 minutes 10.8 seconds.
 Elapsed time:       0 days  0 hours 45 minutes 33.2 seconds.
 File lengths (MBytes):  RWF=    555 Int=      0 D2E=      0 Chk=     48 Scr=      1
 Normal termination of Gaussian 16 at Fri Jun 10 05:35:40 2022.
