 Entering Gaussian System, Link 0=g16
 Input=int_zmat_field_N75.gjf
 Output=int_zmat_field_N75.out
 Initial command:
 /software/gaussian/g16-a03/l1.exe "/local_scratch/11171410/Gau-14512.inp" -scrdir="/local_scratch/11171410/"
 Entering Link 1 = /software/gaussian/g16-a03/l1.exe PID=     14513.
  
 Copyright (c) 1988,1990,1992,1993,1995,1998,2003,2009,2016,
            Gaussian, Inc.  All Rights Reserved.
  
 This is part of the Gaussian(R) 16 program.  It is based on
 the Gaussian(R) 09 system (copyright 2009, Gaussian, Inc.),
 the Gaussian(R) 03 system (copyright 2003, Gaussian, Inc.),
 the Gaussian(R) 98 system (copyright 1998, Gaussian, Inc.),
 the Gaussian(R) 94 system (copyright 1995, Gaussian, Inc.),
 the Gaussian 92(TM) system (copyright 1992, Gaussian, Inc.),
 the Gaussian 90(TM) system (copyright 1990, Gaussian, Inc.),
 the Gaussian 88(TM) system (copyright 1988, Gaussian, Inc.),
 the Gaussian 86(TM) system (copyright 1986, Carnegie Mellon
 University), and the Gaussian 82(TM) system (copyright 1983,
 Carnegie Mellon University). Gaussian is a federally registered
 trademark of Gaussian, Inc.
  
 This software contains proprietary and confidential information,
 including trade secrets, belonging to Gaussian, Inc.
  
 This software is provided under written license and may be
 used, copied, transmitted, or stored only in accord with that
 written license.
  
 The following legend is applicable only to US Government
 contracts under FAR:
  
                    RESTRICTED RIGHTS LEGEND
  
 Use, reproduction and disclosure by the US Government is
 subject to restrictions as set forth in subparagraphs (a)
 and (c) of the Commercial Computer Software - Restricted
 Rights clause in FAR 52.227-19.
  
 Gaussian, Inc.
 340 Quinnipiac St., Bldg. 40, Wallingford CT 06492
  
  
 ---------------------------------------------------------------
 Warning -- This program may not be used in any manner that
 competes with the business of Gaussian, Inc. or will provide
 assistance to any competitor of Gaussian, Inc.  The licensee
 of this program is prohibited from giving any competitor of
 Gaussian, Inc. access to this program.  By using this program,
 the user acknowledges that Gaussian, Inc. is engaged in the
 business of creating and licensing software in the field of
 computational chemistry and represents and warrants to the
 licensee that it is not a competitor of Gaussian, Inc. and that
 it will not use this program in any manner prohibited above.
 ---------------------------------------------------------------
  

 Cite this work as:
 Gaussian 16, Revision A.03,
 M. J. Frisch, G. W. Trucks, H. B. Schlegel, G. E. Scuseria, 
 M. A. Robb, J. R. Cheeseman, G. Scalmani, V. Barone, 
 G. A. Petersson, H. Nakatsuji, X. Li, M. Caricato, A. V. Marenich, 
 J. Bloino, B. G. Janesko, R. Gomperts, B. Mennucci, H. P. Hratchian, 
 J. V. Ortiz, A. F. Izmaylov, J. L. Sonnenberg, D. Williams-Young, 
 F. Ding, F. Lipparini, F. Egidi, J. Goings, B. Peng, A. Petrone, 
 T. Henderson, D. Ranasinghe, V. G. Zakrzewski, J. Gao, N. Rega, 
 G. Zheng, W. Liang, M. Hada, M. Ehara, K. Toyota, R. Fukuda, 
 J. Hasegawa, M. Ishida, T. Nakajima, Y. Honda, O. Kitao, H. Nakai, 
 T. Vreven, K. Throssell, J. A. Montgomery, Jr., J. E. Peralta, 
 F. Ogliaro, M. J. Bearpark, J. J. Heyd, E. N. Brothers, K. N. Kudin, 
 V. N. Staroverov, T. A. Keith, R. Kobayashi, J. Normand, 
 K. Raghavachari, A. P. Rendell, J. C. Burant, S. S. Iyengar, 
 J. Tomasi, M. Cossi, J. M. Millam, M. Klene, C. Adamo, R. Cammi, 
 J. W. Ochterski, R. L. Martin, K. Morokuma, O. Farkas, 
 J. B. Foresman, and D. J. Fox, Gaussian, Inc., Wallingford CT, 2016.
 
 ******************************************
 Gaussian 16:  ES64L-G16RevA.03 25-Dec-2016
                10-Jun-2022 
 ******************************************
 %nprocshared=12
 Will use up to   12 processors via shared memory.
 %chk=checkpoint.chk
 %mem=12GB
 ----------------------------------------------------------------------
 # Opt=(Z-matrix, MaxStep=10) B3LYP/Def2TZVP geom=allcheckpoint guess=r
 ead Field=read NoSymm freq=noraman pop=none
 ----------------------------------------------------------------------
 1/8=10,10=7,18=40,26=3,29=7,38=1/1,3;
 2/12=2,15=1,29=3,40=1/2;
 3/5=44,7=101,11=2,14=-6,25=1,30=1,71=1,74=-5,116=-2/1,2,3;
 4/5=1/1;
 5/5=2,38=6/2;
 7/29=1,30=1/1,2,3,16;
 1/8=10,10=7,18=40,26=3/3(2);
 2/15=1,29=3/2;
 99//99;
 2/15=1,29=3/2;
 3/5=44,7=101,11=2,14=-2,25=1,30=1,71=1,74=-5/1,2,3;
 4/5=5,16=3,69=1/1;
 5/5=2,38=5/2;
 7/30=1/1,2,3,16;
 1/8=10,18=40,26=3/3(-5);
 2/15=1,29=3/2;
 99/9=1/99;
 Structure from the checkpoint file:  "checkpoint.chk"
 ------------------
 int_zmat_initalOpt
 ------------------
 Charge =  0 Multiplicity = 1
 Z-Matrix found in chk file.
 C
 C,1,R2
 C,1,R3,2,A3
 H,1,R4,2,A4,3,D4,0
 O,3,R5,1,A5,2,D5,0
 C,2,R6,1,A6,3,D6,0
 H,2,R7,1,A7,6,D7,0
 C,6,R8,2,A8,1,D8,0
 H,6,R9,2,A9,8,D9,0
 C,8,R10,6,A10,2,D10,0
 N,8,R11,6,A11,10,D11,0
 H,10,R12,8,A12,6,D12,0
 C,10,R13,8,A13,12,D13,0
 C,11,R14,8,A14,6,D14,0
 H,11,R15,8,A15,14,D15,0
 H,13,R16,10,A16,8,D16,0
 H,14,R17,11,A17,8,D17,0
      Variables:
 R2=1.45596063
 R3=1.31990319
 R4=1.08614784
 R5=1.16053078
 R6=1.34738174
 R7=1.08288736
 R8=1.44277955
 R9=1.08602501
 R10=1.39015873
 R11=1.38091372
 R12=1.07633973
 R13=1.41324709
 R14=1.36312919
 R15=1.00594475
 R16=1.07707966
 R17=1.07659716
 A3=131.27840366
 A4=117.34856756
 A5=174.25796611
 A6=130.61335269
 A7=112.73034842
 A8=129.5518191
 A9=115.53292742
 A10=133.41927146
 A11=120.35959772
 A12=125.82550713
 A13=108.11439485
 A14=110.61614466
 A15=124.54128918
 A16=126.99340638
 A17=121.36572982
 D4=-171.81844952
 D5=171.53832848
 D6=-14.54193919
 D7=177.81057768
 D8=-5.45428987
 D9=-180.26721416
 D10=-27.02367866
 D11=-175.82658646
 D12=-0.4920347
 D13=-176.36000191
 D14=177.94569251
 D15=174.95743851
 D16=179.63801678
 D17=178.48734728
 Recover connectivity data from disk.

 GradGradGradGradGradGradGradGradGradGradGradGradGradGradGradGradGradGrad
 Berny optimization.
 Initialization pass.
                       ----------------------------
                       !    Initial Parameters    !
                       ! (Angstroms and Degrees)  !
 ----------------------                            ----------------------
 !      Name          Value   Derivative information (Atomic Units)     !
 ------------------------------------------------------------------------
 !       R2          1.456    estimate D2E/DX2                          !
 !       R3          1.3199   estimate D2E/DX2                          !
 !       R4          1.0861   estimate D2E/DX2                          !
 !       R5          1.1605   estimate D2E/DX2                          !
 !       R6          1.3474   estimate D2E/DX2                          !
 !       R7          1.0829   estimate D2E/DX2                          !
 !       R8          1.4428   estimate D2E/DX2                          !
 !       R9          1.086    estimate D2E/DX2                          !
 !       R10         1.3902   estimate D2E/DX2                          !
 !       R11         1.3809   estimate D2E/DX2                          !
 !       R12         1.0763   estimate D2E/DX2                          !
 !       R13         1.4132   estimate D2E/DX2                          !
 !       R14         1.3631   estimate D2E/DX2                          !
 !       R15         1.0059   estimate D2E/DX2                          !
 !       R16         1.0771   estimate D2E/DX2                          !
 !       R17         1.0766   estimate D2E/DX2                          !
 !       A3        131.2784   estimate D2E/DX2                          !
 !       A4        117.3486   estimate D2E/DX2                          !
 !       A5        174.258    estimate D2E/DX2                          !
 !       A6        130.6134   estimate D2E/DX2                          !
 !       A7        112.7303   estimate D2E/DX2                          !
 !       A8        129.5518   estimate D2E/DX2                          !
 !       A9        115.5329   estimate D2E/DX2                          !
 !       A10       133.4193   estimate D2E/DX2                          !
 !       A11       120.3596   estimate D2E/DX2                          !
 !       A12       125.8255   estimate D2E/DX2                          !
 !       A13       108.1144   estimate D2E/DX2                          !
 !       A14       110.6161   estimate D2E/DX2                          !
 !       A15       124.5413   estimate D2E/DX2                          !
 !       A16       126.9934   estimate D2E/DX2                          !
 !       A17       121.3657   estimate D2E/DX2                          !
 !       D4       -171.8184   estimate D2E/DX2                          !
 !       D5        171.5383   estimate D2E/DX2                          !
 !       D6        -14.5419   estimate D2E/DX2                          !
 !       D7        177.8106   estimate D2E/DX2                          !
 !       D8         -5.4543   estimate D2E/DX2                          !
 !       D9       -180.2672   estimate D2E/DX2                          !
 !       D10       -27.0237   estimate D2E/DX2                          !
 !       D11      -175.8266   estimate D2E/DX2                          !
 !       D12        -0.492    estimate D2E/DX2                          !
 !       D13      -176.36     estimate D2E/DX2                          !
 !       D14       177.9457   estimate D2E/DX2                          !
 !       D15       174.9574   estimate D2E/DX2                          !
 !       D16       179.638    estimate D2E/DX2                          !
 !       D17       178.4873   estimate D2E/DX2                          !
 ------------------------------------------------------------------------
 Trust Radius=1.00D-01 FncErr=1.00D-07 GrdErr=1.00D-06 EigMax=2.50D+02 EigMin=1.00D-04
 Number of steps in this run=     55 maximum allowed number of steps=    100.
 GradGradGradGradGradGradGradGradGradGradGradGradGradGradGradGradGradGrad

 ---------------------------------------------------------------------------------------------------
                            Z-MATRIX (ANGSTROMS AND DEGREES)
   CD    Cent   Atom    N1       Length/X        N2       Alpha/Y        N3        Beta/Z          J
 ---------------------------------------------------------------------------------------------------
      1      1  C 
      2      2  C        1   1.455961(     1)
      3      3  C        1   1.319903(     2)      2  131.278(    17)
      4      4  H        1   1.086148(     3)      2  117.349(    18)      3 -171.818(    32)      0
      5      5  O        3   1.160531(     4)      1  174.258(    19)      2  171.538(    33)      0
      6      6  C        2   1.347382(     5)      1  130.613(    20)      3  -14.542(    34)      0
      7      7  H        2   1.082887(     6)      1  112.730(    21)      6  177.811(    35)      0
      8      8  C        6   1.442780(     7)      2  129.552(    22)      1   -5.454(    36)      0
      9      9  H        6   1.086025(     8)      2  115.533(    23)      8 -180.267(    37)      0
     10     10  C        8   1.390159(     9)      6  133.419(    24)      2  -27.024(    38)      0
     11     11  N        8   1.380914(    10)      6  120.360(    25)     10 -175.827(    39)      0
     12     12  H       10   1.076340(    11)      8  125.826(    26)      6   -0.492(    40)      0
     13     13  C       10   1.413247(    12)      8  108.114(    27)     12 -176.360(    41)      0
     14     14  C       11   1.363129(    13)      8  110.616(    28)      6  177.946(    42)      0
     15     15  H       11   1.005945(    14)      8  124.541(    29)     14  174.957(    43)      0
     16     16  H       13   1.077080(    15)     10  126.993(    30)      8  179.638(    44)      0
     17     17  H       14   1.076597(    16)     11  121.366(    31)      8  178.487(    45)      0
 ---------------------------------------------------------------------------------------------------
                         Z-Matrix orientation:                         
 ---------------------------------------------------------------------
 Center     Atomic      Atomic             Coordinates (Angstroms)
 Number     Number       Type             X           Y           Z
 ---------------------------------------------------------------------
      1          6           0        0.000000    0.000000    0.000000
      2          6           0        0.000000    0.000000    1.455961
      3          6           0        0.991924    0.000000   -0.870764
      4          1           0       -0.954928    0.137293   -0.498979
      5          8           0        1.783935   -0.017085   -1.718855
      6          6           0        0.990057   -0.256819    2.333040
      7          1           0       -0.956500    0.287534    1.874383
      8          6           0        2.336368   -0.715291    2.090425
      9          1           0        0.744159   -0.092105    3.377958
     10          6           0        2.921809   -1.467563    1.078551
     11          7           0        3.331246   -0.481689    3.019172
     12          1           0        2.412324   -1.879847    0.224763
     13          6           0        4.281146   -1.667093    1.409696
     14          6           0        4.508001   -1.036070    2.611707
     15          1           0        3.221921    0.087923    3.841069
     16          1           0        5.013708   -2.213226    0.839438
     17          1           0        5.406447   -0.936647    3.196490
 ---------------------------------------------------------------------
                    Distance matrix (angstroms):
                    1          2          3          4          5
     1  C    0.000000
     2  C    1.455961   0.000000
     3  C    1.319903   2.529341   0.000000
     4  H    1.086148   2.180029   1.986783   0.000000
     5  O    2.477333   3.641727   1.160531   3.002216   0.000000
     6  C    2.547400   1.347382   3.214082   3.458125   4.135889
     7  H    2.123883   1.082887   3.378589   2.378113   4.529253
     8  C    3.215608   2.524441   3.329837   4.273704   3.911942
     9  H    3.460182   2.063088   4.256937   4.239123   5.202333
    10  C    3.442961   3.291374   3.110953   4.482550   3.350243
    11  N    4.521573   3.711179   4.564653   5.579589   5.005890
    12  H    3.066537   3.296813   2.598373   3.991371   2.764490
    13  C    4.805690   4.594513   4.335745   5.857928   4.329714
    14  C    5.311923   4.767732   5.056070   6.395056   5.216573
    15  H    5.014212   4.009644   5.213635   6.023664   5.743831
    16  H    5.544393   5.515046   4.898765   6.552932   4.668975
    17  H    6.350160   5.756424   6.075186   7.434846   6.174853
                    6          7          8          9         10
     6  C    0.000000
     7  H    2.072624   0.000000
     8  C    1.442780   3.448958   0.000000
     9  H    1.086025   2.301544   2.140382   0.000000
    10  C    2.602174   4.330703   1.390159   3.452726   0.000000
    11  N    2.450002   4.504110   1.380914   2.640742   2.214858
    12  H    3.016935   4.332177   2.200603   3.990167   1.076340
    13  C    3.697662   5.609763   2.269687   4.343377   1.413247
    14  C    3.613976   5.670657   2.256241   3.955341   2.247834
    15  H    2.715551   4.622435   2.119932   2.527090   3.184511
    16  H    4.716793   6.555020   3.313144   5.401137   2.233658
    17  H    4.551067   6.613145   3.270744   4.741636   3.307713
                   11         12         13         14         15
    11  N    0.000000
    12  H    3.256990   0.000000
    13  C    2.213122   2.223022   0.000000
    14  C    1.363129   3.286537   1.376402   0.000000
    15  H    1.005945   4.195860   3.180192   2.104447   0.000000
    16  H    3.252712   2.693727   1.077080   2.186863   4.185161
    17  H    2.131875   4.322680   2.234388   1.076597   2.497475
                   16         17
    16  H    0.000000
    17  H    2.709168   0.000000
 Symmetry turned off by external request.
 Stoichiometry    C8H7NO
 Framework group  C1[X(C8H7NO)]
 Deg. of freedom    45
 Full point group                 C1      NOp   1
 Rotational constants (GHZ):           2.3637062           0.9894483           0.7318172
 Standard basis: def2TZVP (5D, 7F)
 The following finite field(s) will be applied:
 An electric field of             -0.0052 -0.0028 -0.0047
   352 basis functions,   566 primitive gaussians,   402 cartesian basis functions
    35 alpha electrons       35 beta electrons
       nuclear repulsion energy       460.3721007698 Hartrees.
 NAtoms=   17 NActive=   17 NUniq=   17 SFac= 1.00D+00 NAtFMM=   60 NAOKFM=F Big=F
 Integral buffers will be    131072 words long.
 Raffenetti 2 integral format.
 Two-electron integral symmetry is turned off.
 One-electron integrals computed using PRISM.
   1 Symmetry operations used in ECPInt.
 ECPInt:  NShTT=    9591 NPrTT=   29644 LenC2=    9227 LenP2D=   22150.
 LDataN:  DoStor=T MaxTD1= 6 Len=  172
 NBasis=   352 RedAO= T EigKep=  3.31D-05  NBF=   352
 NBsUse=   352 1.00D-06 EigRej= -1.00D+00 NBFU=   352
 The nuclear repulsion energy is now       458.4212067311 hartrees.
 Initial guess from the checkpoint file:  "checkpoint.chk"
 B after Tr=     0.000000   -0.000000    0.000000
         Rot=    1.000000    0.000000    0.000000   -0.000000 Ang=   0.00 deg.
 Requested convergence on RMS density matrix=1.00D-08 within 128 cycles.
 Requested convergence on MAX density matrix=1.00D-06.
 Requested convergence on             energy=1.00D-06.
 No special actions if energy rises.
 SCF Done:  E(RB3LYP) =  -439.160581086     A.U. after   11 cycles
            NFock= 11  Conv=0.53D-08     -V/T= 2.0050
   1 Symmetry operations used in ECPInt.
 ECPInt:  NShTT=    9591 NPrTT=   29644 LenC2=    9227 LenP2D=   22150.
 LDataN:  DoStor=T MaxTD1= 7 Len=  274
 Calling FoFJK, ICntrl=      2127 FMM=F ISym2X=0 I1Cent= 0 IOpClX= 0 NMat=1 NMatS=1 NMatT=0.
 -------------------------------------------------------------------
 Center     Atomic                   Forces (Hartrees/Bohr)
 Number     Number              X              Y              Z
 -------------------------------------------------------------------
      1        6          -0.001021668   -0.000118917   -0.000842303
      2        6           0.000481243   -0.000187447    0.000938888
      3        6          -0.000717027    0.000026696    0.001449712
      4        1          -0.000021248    0.000294652    0.000003455
      5        8           0.000744710   -0.000362835   -0.001686766
      6        6           0.000964777   -0.000502959   -0.000209969
      7        1          -0.000022988    0.000209863    0.000059616
      8        6          -0.000589176    0.000628726    0.000853468
      9        1           0.000083841    0.000218008   -0.000080137
     10        6           0.000553278   -0.000409243   -0.000284566
     11        7           0.000766147   -0.000630523   -0.000771961
     12        1          -0.000061390    0.000022051   -0.000168382
     13        6          -0.000618455   -0.000327213   -0.000668832
     14        6          -0.001124482    0.000602976    0.000815600
     15        1           0.000357459    0.000281525    0.000473015
     16        1           0.000129350    0.000141520    0.000097533
     17        1           0.000095629    0.000113118    0.000021630
 -------------------------------------------------------------------
 Cartesian Forces:  Max     0.001686766 RMS     0.000591706
 -----------------------------------------------------------------------------------------------
                       Internal Coordinate Forces (Hartree/Bohr or radian)
  Cent   Atom   N1       Length/X         N2         Alpha/Y        N3         Beta/Z          J
 -----------------------------------------------------------------------------------------------
      1  C 
      2  C        1   0.001076(     1)
      3  C        1   0.000177(     2)      2   0.001730(    17)
      4  H        1   0.000054(     3)      2  -0.000066(    18)      3   0.000526(    32)     0
      5  O        3   0.001746(     4)      1  -0.001425(    19)      2  -0.000054(    33)     0
      6  C        2   0.000433(     5)      1  -0.000745(    20)      3   0.000547(    34)     0
      7  H        2   0.000099(     6)      1   0.000047(    21)      6  -0.000367(    35)     0
      8  C        6  -0.000655(     7)      2  -0.000011(    22)      1  -0.000114(    36)     0
      9  H        6  -0.000063(     8)      2  -0.000011(    23)      8  -0.000442(    37)     0
     10  C        8   0.001057(     9)      6  -0.002338(    24)      2  -0.000097(    38)     0
     11  N        8   0.000492(    10)      6  -0.001604(    25)     10  -0.000500(    39)     0
     12  H       10   0.000154(    11)      8  -0.000014(    26)      6   0.000078(    40)     0
     13  C       10  -0.000578(    12)      8   0.000999(    27)     12  -0.000077(    41)     0
     14  C       11  -0.001430(    13)      8   0.001280(    28)      6  -0.000164(    42)     0
     15  H       11   0.000507(    14)      8   0.000775(    29)     14  -0.000136(    43)     0
     16  H       13  -0.000035(    15)     10   0.000379(    30)      8   0.000166(    44)     0
     17  H       14   0.000102(    16)     11  -0.000055(    31)      8  -0.000184(    45)     0
 -----------------------------------------------------------------------------------------------
 Internal  Forces:  Max     0.002337582 RMS     0.000777597

 GradGradGradGradGradGradGradGradGradGradGradGradGradGradGradGradGradGrad
 Berny optimization.
 Search for a local minimum.
 Step number   1 out of a maximum of   55
 All quantities printed in internal units (Hartrees-Bohrs-Radians)
 Second derivative matrix not updated -- first step.
 ITU=  0
     Eigenvalues ---    0.02985   0.03830   0.04374   0.04690   0.07992
     Eigenvalues ---    0.09513   0.10547   0.10814   0.17347   0.18104
     Eigenvalues ---    0.19559   0.20345   0.22757   0.24745   0.25182
     Eigenvalues ---    0.25301   0.26415   0.29581   0.30441   0.33992
     Eigenvalues ---    0.35262   0.35276   0.35648   0.36351   0.36409
     Eigenvalues ---    0.36441   0.37475   0.39188   0.39894   0.45028
     Eigenvalues ---    0.46654   0.48553   0.48935   0.52356   0.52806
     Eigenvalues ---    0.53696   0.55582   0.55859   0.61956   0.65758
     Eigenvalues ---    1.01111   1.27448   1.30397   1.90473  24.97184
 RFO step:  Lambda=-4.51306317D-05 EMin= 2.98544254D-02
 Linear search not attempted -- first point.
 Variable       Old X    -DE/DX   Delta X   Delta X   Delta X     New X
                                 (Linear)    (Quad)   (Total)
    R2        2.75137   0.00108   0.00000   0.00287   0.00287   2.75424
    R3        2.49426   0.00018   0.00000   0.00028   0.00028   2.49454
    R4        2.05252   0.00005   0.00000   0.00016   0.00016   2.05268
    R5        2.19309   0.00175   0.00000   0.00139   0.00139   2.19447
    R6        2.54618   0.00043   0.00000   0.00079   0.00079   2.54697
    R7        2.04636   0.00010   0.00000   0.00028   0.00028   2.04664
    R8        2.72646  -0.00065   0.00000  -0.00168  -0.00168   2.72477
    R9        2.05229  -0.00006   0.00000  -0.00018  -0.00018   2.05211
   R10        2.62702   0.00106   0.00000   0.00130   0.00130   2.62832
   R11        2.60955   0.00049   0.00000   0.00022   0.00022   2.60977
   R12        2.03399   0.00015   0.00000   0.00042   0.00042   2.03441
   R13        2.67065  -0.00058   0.00000  -0.00108  -0.00108   2.66957
   R14        2.57594  -0.00143   0.00000  -0.00236  -0.00236   2.57358
   R15        1.90096   0.00051   0.00000   0.00109   0.00109   1.90205
   R16        2.03539  -0.00004   0.00000  -0.00010  -0.00010   2.03529
   R17        2.03447   0.00010   0.00000   0.00028   0.00028   2.03476
    A3        2.29124   0.00173   0.00000   0.00515   0.00515   2.29639
    A4        2.04812  -0.00007   0.00000  -0.00305  -0.00305   2.04507
    A5        3.04138  -0.00143   0.00000  -0.00558  -0.00558   3.03580
    A6        2.27963  -0.00074   0.00000  -0.00151  -0.00151   2.27813
    A7        1.96752   0.00005   0.00000   0.00082   0.00082   1.96833
    A8        2.26111  -0.00001   0.00000   0.00058   0.00058   2.26169
    A9        2.01643  -0.00001   0.00000  -0.00037  -0.00037   2.01606
   A10        2.32861  -0.00234   0.00000  -0.00142  -0.00142   2.32718
   A11        2.10067  -0.00160   0.00000   0.00118   0.00118   2.10185
   A12        2.19607  -0.00001   0.00000   0.00028   0.00028   2.19635
   A13        1.88695   0.00100   0.00000  -0.00060  -0.00060   1.88635
   A14        1.93062   0.00128   0.00000  -0.00028  -0.00028   1.93034
   A15        2.17366   0.00077   0.00000   0.00231   0.00231   2.17596
   A16        2.21645   0.00038   0.00000   0.00113   0.00113   2.21759
   A17        2.11823  -0.00005   0.00000  -0.00054  -0.00054   2.11769
    D4       -2.99880   0.00053   0.00000   0.00589   0.00589  -2.99291
    D5        2.99391  -0.00005   0.00000   0.00186   0.00186   2.99577
    D6       -0.25380   0.00055   0.00000   0.00553   0.00553  -0.24827
    D7        3.10338  -0.00037   0.00000  -0.00698  -0.00698   3.09640
    D8       -0.09520  -0.00011   0.00000  -0.00251  -0.00251  -0.09770
    D9       -3.14626  -0.00044   0.00000  -0.00326  -0.00326  -3.14952
   D10       -0.47165  -0.00010   0.00000   0.00117   0.00117  -0.47049
   D11       -3.06875  -0.00050   0.00000  -0.00046  -0.00046  -3.06921
   D12       -0.00859   0.00008   0.00000   0.00187   0.00187  -0.00672
   D13       -3.07806  -0.00008   0.00000  -0.00097  -0.00097  -3.07903
   D14        3.10574  -0.00016   0.00000  -0.00168  -0.00168   3.10406
   D15        3.05358  -0.00014   0.00000   0.00032   0.00032   3.05390
   D16        3.13527   0.00017   0.00000   0.00100   0.00100   3.13628
   D17        3.11519  -0.00018   0.00000   0.00022   0.00022   3.11541
         Item               Value     Threshold  Converged?
 Maximum Force            0.002338     0.000450     NO 
 RMS     Force            0.000778     0.000300     NO 
 Maximum Displacement     0.006978     0.001800     NO 
 RMS     Displacement     0.002354     0.001200     NO 
 Predicted change in Energy=-2.257094D-05
 GradGradGradGradGradGradGradGradGradGradGradGradGradGradGradGradGradGrad

 ---------------------------------------------------------------------------------------------------
                            Z-MATRIX (ANGSTROMS AND DEGREES)
   CD    Cent   Atom    N1       Length/X        N2       Alpha/Y        N3        Beta/Z          J
 ---------------------------------------------------------------------------------------------------
      1      1  C 
      2      2  C        1   1.457480(     1)
      3      3  C        1   1.320052(     2)      2  131.574(    17)
      4      4  H        1   1.086232(     3)      2  117.174(    18)      3 -171.481(    32)      0
      5      5  O        3   1.161264(     4)      1  173.939(    19)      2  171.645(    33)      0
      6      6  C        2   1.347798(     5)      1  130.527(    20)      3  -14.225(    34)      0
      7      7  H        2   1.083036(     6)      1  112.777(    21)      6  177.411(    35)      0
      8      8  C        6   1.441889(     7)      2  129.585(    22)      1   -5.598(    36)      0
      9      9  H        6   1.085932(     8)      2  115.512(    23)      8 -180.454(    37)      0
     10     10  C        8   1.390849(     9)      6  133.338(    24)      2  -26.957(    38)      0
     11     11  N        8   1.381030(    10)      6  120.427(    25)     10 -175.853(    39)      0
     12     12  H       10   1.076563(    11)      8  125.842(    26)      6   -0.385(    40)      0
     13     13  C       10   1.412676(    12)      8  108.080(    27)     12 -176.416(    41)      0
     14     14  C       11   1.361879(    13)      8  110.600(    28)      6  177.850(    42)      0
     15     15  H       11   1.006523(    14)      8  124.674(    29)     14  174.976(    43)      0
     16     16  H       13   1.077029(    15)     10  127.058(    30)      8  179.696(    44)      0
     17     17  H       14   1.076746(    16)     11  121.335(    31)      8  178.500(    45)      0
 ---------------------------------------------------------------------------------------------------
                         Z-Matrix orientation:                         
 ---------------------------------------------------------------------
 Center     Atomic      Atomic             Coordinates (Angstroms)
 Number     Number       Type             X           Y           Z
 ---------------------------------------------------------------------
      1          6           0        0.000000    0.000000    0.000000
      2          6           0        0.000000    0.000000    1.457480
      3          6           0        0.987537    0.000000   -0.875961
      4          1           0       -0.955678    0.143150   -0.496070
      5          8           0        1.770919   -0.017818   -1.733008
      6          6           0        0.993049   -0.251739    2.333287
      7          1           0       -0.955887    0.288856    1.876775
      8          6           0        2.339991   -0.705018    2.089712
      9          1           0        0.749171   -0.083315    3.377991
     10          6           0        2.925761   -1.456187    1.076264
     11          7           0        3.336202   -0.467431    3.016190
     12          1           0        2.416098   -1.869097    0.222603
     13          6           0        4.285476   -1.652007    1.405634
     14          6           0        4.512135   -1.019674    2.607629
     15          1           0        3.229268    0.103236    3.838378
     16          1           0        5.019809   -2.195220    0.834963
     17          1           0        5.411407   -0.917164    3.190883
 ---------------------------------------------------------------------
                    Distance matrix (angstroms):
                    1          2          3          4          5
     1  C    0.000000
     2  C    1.457480   0.000000
     3  C    1.320052   2.533806   0.000000
     4  H    1.086232   2.179489   1.985168   0.000000
     5  O    2.477860   3.649066   1.161264   2.998376   0.000000
     6  C    2.548284   1.347798   3.219111   3.458142   4.146632
     7  H    2.125898   1.083036   3.381995   2.377315   4.534320
     8  C    3.215510   2.524347   3.334877   4.274003   3.925465
     9  H    3.461072   2.063143   4.261439   4.238649   5.212539
    10  C    3.440771   3.290271   3.112616   4.482822   3.360740
    11  N    4.521740   3.711915   4.569853   5.579338   5.020671
    12  H    3.062778   3.294841   2.596373   3.991805   2.769097
    13  C    4.803148   4.593160   4.337188   5.857368   4.341041
    14  C    5.310257   4.766754   5.059440   6.393911   5.230594
    15  H    5.017168   4.013416   5.221208   6.025182   5.760363
    16  H    5.542079   5.514073   4.899538   6.553326   4.678765
    17  H    6.348720   5.755797   6.078737   7.433550   6.189238
                    6          7          8          9         10
     6  C    0.000000
     7  H    2.073403   0.000000
     8  C    1.441889   3.449049   0.000000
     9  H    1.085932   2.302038   2.139366   0.000000
    10  C    2.601188   4.330495   1.390849   3.452574   0.000000
    11  N    2.450151   4.504693   1.381030   2.640298   2.215720
    12  H    3.015942   4.331666   2.201584   3.990506   1.076563
    13  C    3.696128   5.608993   2.269286   4.342400   1.412676
    14  C    3.612333   5.669715   2.255096   3.953496   2.247712
    15  H    2.718819   4.625783   2.121773   2.529356   3.186408
    16  H    4.715601   6.554766   3.313084   5.400508   2.233704
    17  H    4.549741   6.612397   3.269737   4.739911   3.307657
                   11         12         13         14         15
    11  N    0.000000
    12  H    3.258126   0.000000
    13  C    2.213195   2.222895   0.000000
    14  C    1.361879   3.286829   1.376958   0.000000
    15  H    1.006523   4.198235   3.180361   2.102717   0.000000
    16  H    3.252313   2.694560   1.077029   2.186776   4.184429
    17  H    2.130553   4.323047   2.234911   1.076746   2.494433
                   16         17
    16  H    0.000000
    17  H    2.708714   0.000000
 Symmetry turned off by external request.
 Stoichiometry    C8H7NO
 Framework group  C1[X(C8H7NO)]
 Deg. of freedom    45
 Full point group                 C1      NOp   1
 Rotational constants (GHZ):           2.3613896           0.9876377           0.7303700
 Standard basis: def2TZVP (5D, 7F)
 The following finite field(s) will be applied:
 An electric field of             -0.0052 -0.0028 -0.0047
   352 basis functions,   566 primitive gaussians,   402 cartesian basis functions
    35 alpha electrons       35 beta electrons
       nuclear repulsion energy       460.1882064260 Hartrees.
 NAtoms=   17 NActive=   17 NUniq=   17 SFac= 1.00D+00 NAtFMM=   60 NAOKFM=F Big=F
 Integral buffers will be    131072 words long.
 Raffenetti 2 integral format.
 Two-electron integral symmetry is turned off.
 One-electron integrals computed using PRISM.
   1 Symmetry operations used in ECPInt.
 ECPInt:  NShTT=    9591 NPrTT=   29644 LenC2=    9224 LenP2D=   22146.
 LDataN:  DoStor=T MaxTD1= 6 Len=  172
 NBasis=   352 RedAO= T EigKep=  3.31D-05  NBF=   352
 NBsUse=   352 1.00D-06 EigRej= -1.00D+00 NBFU=   352
 The nuclear repulsion energy is now       458.2361094338 hartrees.
 Initial guess from the checkpoint file:  "checkpoint.chk"
 B after Tr=    -0.006285   -0.002185   -0.000203
         Rot=    0.999998    0.001135   -0.001046   -0.001413 Ang=   0.24 deg.
 Requested convergence on RMS density matrix=1.00D-08 within 128 cycles.
 Requested convergence on MAX density matrix=1.00D-06.
 Requested convergence on             energy=1.00D-06.
 No special actions if energy rises.
 SCF Done:  E(RB3LYP) =  -439.160613585     A.U. after   10 cycles
            NFock= 10  Conv=0.71D-08     -V/T= 2.0050
   1 Symmetry operations used in ECPInt.
 ECPInt:  NShTT=    9591 NPrTT=   29644 LenC2=    9224 LenP2D=   22146.
 LDataN:  DoStor=T MaxTD1= 7 Len=  274
 Calling FoFJK, ICntrl=      2127 FMM=F ISym2X=0 I1Cent= 0 IOpClX= 0 NMat=1 NMatS=1 NMatT=0.
 -------------------------------------------------------------------
 Center     Atomic                   Forces (Hartrees/Bohr)
 Number     Number              X              Y              Z
 -------------------------------------------------------------------
      1        6          -0.001154318   -0.000009433    0.000073943
      2        6           0.001198862    0.000028597    0.000160234
      3        6          -0.000408051   -0.000061037    0.000789900
      4        1          -0.000046599    0.000223752   -0.000093314
      5        8           0.000183953   -0.000386384   -0.000696964
      6        6           0.000378062   -0.000102654   -0.000241366
      7        1           0.000062181    0.000023552   -0.000089325
      8        6          -0.000435962    0.000444946    0.000295843
      9        1          -0.000006590    0.000123386    0.000007490
     10        6           0.000294700   -0.000118705    0.000025695
     11        7           0.000101408   -0.000381416   -0.000258209
     12        1          -0.000034070    0.000020724    0.000018848
     13        6          -0.000204946   -0.000190313   -0.000324706
     14        6          -0.000203360    0.000285693    0.000313118
     15        1           0.000127070   -0.000025627    0.000039975
     16        1           0.000087531    0.000062655    0.000051538
     17        1           0.000060129    0.000062263   -0.000072700
 -------------------------------------------------------------------
 Cartesian Forces:  Max     0.001198862 RMS     0.000337722
 -----------------------------------------------------------------------------------------------
                       Internal Coordinate Forces (Hartree/Bohr or radian)
  Cent   Atom   N1       Length/X         N2         Alpha/Y        N3         Beta/Z          J
 -----------------------------------------------------------------------------------------------
      1  C 
      2  C        1  -0.000074(     1)
      3  C        1  -0.000229(     2)      2   0.000931(    17)
      4  H        1   0.000113(     3)      2   0.000096(    18)      3   0.000391(    32)     0
      5  O        3   0.000644(     4)      1  -0.000846(    19)      2  -0.000075(    33)     0
      6  C        2  -0.000007(     5)      1  -0.000906(    20)      3   0.000665(    34)     0
      7  H        2  -0.000083(     6)      1  -0.000127(    21)      6  -0.000076(    35)     0
      8  C        6  -0.000259(     7)      2  -0.000482(    22)      1   0.000122(    36)     0
      9  H        6   0.000028(     8)      2  -0.000080(    23)      8  -0.000212(    37)     0
     10  C        8   0.000349(     9)      6  -0.000599(    24)      2   0.000010(    38)     0
     11  N        8   0.000066(    10)      6  -0.000100(    25)     10   0.000024(    39)     0
     12  H       10  -0.000007(    11)      8  -0.000089(    26)      6  -0.000024(    40)     0
     13  C       10  -0.000159(    12)      8   0.000530(    27)     12  -0.000026(    41)     0
     14  C       11  -0.000337(    13)      8   0.000552(    28)      6   0.000401(    42)     0
     15  H       11   0.000005(    14)      8   0.000258(    29)     14   0.000007(    43)     0
     16  H       13   0.000001(    15)     10   0.000222(    30)      8   0.000078(    44)     0
     17  H       14   0.000017(    16)     11   0.000095(    31)      8  -0.000177(    45)     0
 -----------------------------------------------------------------------------------------------
 Internal  Forces:  Max     0.000931362 RMS     0.000347965

 GradGradGradGradGradGradGradGradGradGradGradGradGradGradGradGradGradGrad
 Berny optimization.
 Search for a local minimum.
 Step number   2 out of a maximum of   55
 All quantities printed in internal units (Hartrees-Bohrs-Radians)
 Update second derivatives using D2CorN and points    1    2
 DE= -3.25D-05 DEPred=-2.26D-05 R= 1.44D+00
 TightC=F SS=  1.41D+00  RLast= 1.58D-02 DXNew= 1.6818D-01 4.7372D-02
 Trust test= 1.44D+00 RLast= 1.58D-02 DXMaxT set to 1.00D-01
 ITU=  1  0
     Eigenvalues ---    0.02245   0.03361   0.03961   0.04533   0.07459
     Eigenvalues ---    0.08626   0.10508   0.10823   0.17080   0.17442
     Eigenvalues ---    0.18819   0.20318   0.22567   0.23960   0.24836
     Eigenvalues ---    0.25235   0.26450   0.29489   0.30419   0.33956
     Eigenvalues ---    0.35258   0.35278   0.35658   0.36351   0.36407
     Eigenvalues ---    0.36441   0.37543   0.39041   0.39946   0.44970
     Eigenvalues ---    0.46633   0.48513   0.49069   0.51904   0.52375
     Eigenvalues ---    0.53486   0.55591   0.55812   0.61992   0.65763
     Eigenvalues ---    1.01009   1.27148   1.30401   1.90471  24.97139
 RFO step:  Lambda=-2.12823620D-05 EMin= 2.24543032D-02
 Quartic linear search produced a step of  0.78522.
 Variable       Old X    -DE/DX   Delta X   Delta X   Delta X     New X
                                 (Linear)    (Quad)   (Total)
    R2        2.75424  -0.00007   0.00225  -0.00238  -0.00013   2.75411
    R3        2.49454  -0.00023   0.00022  -0.00100  -0.00078   2.49376
    R4        2.05268   0.00011   0.00012   0.00059   0.00071   2.05339
    R5        2.19447   0.00064   0.00109   0.00005   0.00114   2.19561
    R6        2.54697  -0.00001   0.00062  -0.00057   0.00004   2.54701
    R7        2.04664  -0.00008   0.00022  -0.00069  -0.00047   2.04617
    R8        2.72477  -0.00026  -0.00132  -0.00029  -0.00162   2.72316
    R9        2.05211   0.00003  -0.00014   0.00029   0.00015   2.05227
   R10        2.62832   0.00035   0.00102   0.00002   0.00105   2.62937
   R11        2.60977   0.00007   0.00017  -0.00036  -0.00019   2.60958
   R12        2.03441  -0.00001   0.00033  -0.00033  -0.00000   2.03441
   R13        2.66957  -0.00016  -0.00085   0.00007  -0.00077   2.66880
   R14        2.57358  -0.00034  -0.00186   0.00063  -0.00123   2.57235
   R15        1.90205   0.00000   0.00086  -0.00073   0.00012   1.90218
   R16        2.03529   0.00000  -0.00007   0.00007  -0.00001   2.03528
   R17        2.03476   0.00002   0.00022  -0.00009   0.00013   2.03489
    A3        2.29639   0.00093   0.00404   0.00213   0.00618   2.30257
    A4        2.04507   0.00010  -0.00240  -0.00088  -0.00327   2.04179
    A5        3.03580  -0.00085  -0.00438  -0.00353  -0.00791   3.02789
    A6        2.27813  -0.00091  -0.00118  -0.00190  -0.00309   2.27504
    A7        1.96833  -0.00013   0.00064   0.00001   0.00065   1.96898
    A8        2.26169  -0.00048   0.00046  -0.00115  -0.00070   2.26099
    A9        2.01606  -0.00008  -0.00029  -0.00003  -0.00032   2.01574
   A10        2.32718  -0.00060  -0.00112  -0.00003  -0.00114   2.32604
   A11        2.10185  -0.00010   0.00093   0.00137   0.00230   2.10415
   A12        2.19635  -0.00009   0.00022  -0.00113  -0.00091   2.19544
   A13        1.88635   0.00053  -0.00047   0.00137   0.00090   1.88726
   A14        1.93034   0.00055  -0.00022   0.00108   0.00086   1.93120
   A15        2.17596   0.00026   0.00181  -0.00064   0.00118   2.17714
   A16        2.21759   0.00022   0.00089   0.00103   0.00192   2.21951
   A17        2.11769   0.00009  -0.00043   0.00078   0.00036   2.11805
    D4       -2.99291   0.00039   0.00462   0.00639   0.01101  -2.98190
    D5        2.99577  -0.00008   0.00146   0.00219   0.00365   2.99942
    D6       -0.24827   0.00067   0.00435   0.00923   0.01358  -0.23469
    D7        3.09640  -0.00008  -0.00548  -0.00669  -0.01217   3.08424
    D8       -0.09770   0.00012  -0.00197  -0.00503  -0.00700  -0.10470
    D9       -3.14952  -0.00021  -0.00256   0.00033  -0.00223  -3.15175
   D10       -0.47049   0.00001   0.00091   0.00299   0.00391  -0.46658
   D11       -3.06921   0.00002  -0.00036   0.00285   0.00249  -3.06672
   D12       -0.00672  -0.00002   0.00147   0.00004   0.00151  -0.00520
   D13       -3.07903  -0.00003  -0.00076  -0.00139  -0.00216  -3.08119
   D14        3.10406   0.00040  -0.00132   0.00285   0.00154   3.10560
   D15        3.05390   0.00001   0.00025  -0.00220  -0.00195   3.05195
   D16        3.13628   0.00008   0.00079   0.00143   0.00222   3.13850
   D17        3.11541  -0.00018   0.00017  -0.00290  -0.00273   3.11268
         Item               Value     Threshold  Converged?
 Maximum Force            0.000931     0.000450     NO 
 RMS     Force            0.000348     0.000300     NO 
 Maximum Displacement     0.013577     0.001800     NO 
 RMS     Displacement     0.003979     0.001200     NO 
 Predicted change in Energy=-1.639662D-05
 GradGradGradGradGradGradGradGradGradGradGradGradGradGradGradGradGradGrad

 ---------------------------------------------------------------------------------------------------
                            Z-MATRIX (ANGSTROMS AND DEGREES)
   CD    Cent   Atom    N1       Length/X        N2       Alpha/Y        N3        Beta/Z          J
 ---------------------------------------------------------------------------------------------------
      1      1  C 
      2      2  C        1   1.457413(     1)
      3      3  C        1   1.319639(     2)      2  131.928(    17)
      4      4  H        1   1.086607(     3)      2  116.986(    18)      3 -170.850(    32)      0
      5      5  O        3   1.161869(     4)      1  173.485(    19)      2  171.854(    33)      0
      6      6  C        2   1.347821(     5)      1  130.350(    20)      3  -13.447(    34)      0
      7      7  H        2   1.082789(     6)      1  112.814(    21)      6  176.714(    35)      0
      8      8  C        6   1.441034(     7)      2  129.545(    22)      1   -5.999(    36)      0
      9      9  H        6   1.086013(     8)      2  115.494(    23)      8 -180.582(    37)      0
     10     10  C        8   1.391402(     9)      6  133.273(    24)      2  -26.733(    38)      0
     11     11  N        8   1.380930(    10)      6  120.559(    25)     10 -175.710(    39)      0
     12     12  H       10   1.076561(    11)      8  125.789(    26)      6   -0.298(    40)      0
     13     13  C       10   1.412267(    12)      8  108.132(    27)     12 -176.539(    41)      0
     14     14  C       11   1.361228(    13)      8  110.650(    28)      6  177.938(    42)      0
     15     15  H       11   1.006589(    14)      8  124.741(    29)     14  174.864(    43)      0
     16     16  H       13   1.077025(    15)     10  127.168(    30)      8  179.823(    44)      0
     17     17  H       14   1.076816(    16)     11  121.355(    31)      8  178.344(    45)      0
 ---------------------------------------------------------------------------------------------------
                         Z-Matrix orientation:                         
 ---------------------------------------------------------------------
 Center     Atomic      Atomic             Coordinates (Angstroms)
 Number     Number       Type             X           Y           Z
 ---------------------------------------------------------------------
      1          6           0        0.000000    0.000000    0.000000
      2          6           0        0.000000    0.000000    1.457413
      3          6           0        0.981799    0.000000   -0.881769
      4          1           0       -0.955973    0.153977   -0.493074
      5          8           0        1.753444   -0.018678   -1.750190
      6          6           0        0.999017   -0.238865    2.330071
      7          1           0       -0.955815    0.287363    1.877261
      8          6           0        2.347969   -0.680805    2.081884
      9          1           0        0.758388   -0.065817    3.374856
     10          6           0        2.935022   -1.428102    1.065559
     11          7           0        3.347031   -0.438461    3.003898
     12          1           0        2.423969   -1.843778    0.214076
     13          6           0        4.297703   -1.613161    1.387041
     14          6           0        4.525093   -0.979380    2.588545
     15          1           0        3.241482    0.129735    3.828055
     16          1           0        5.034790   -2.148865    0.812839
     17          1           0        5.426882   -0.869314    3.166641
 ---------------------------------------------------------------------
                    Distance matrix (angstroms):
                    1          2          3          4          5
     1  C    0.000000
     2  C    1.457413   0.000000
     3  C    1.319639   2.536869   0.000000
     4  H    1.086607   2.177612   1.982360   0.000000
     5  O    2.477515   3.655631   1.161869   2.991837   0.000000
     6  C    2.546433   1.347821   3.220756   3.456365   4.155258
     7  H    2.126092   1.082789   3.383663   2.374085   4.537857
     8  C    3.211027   2.523176   3.333640   4.271218   3.934039
     9  H    3.459644   2.063025   4.262992   4.236535   5.220963
    10  C    3.433547   3.287458   3.105904   4.480195   3.363189
    11  N    4.518658   3.713015   4.570009   5.576347   5.031609
    12  H    3.053027   3.289534   2.584618   3.989373   2.763863
    13  C    4.795458   4.591023   4.329550   5.853095   4.342562
    14  C    5.304359   4.766038   5.055413   6.389285   5.237328
    15  H    5.017773   4.017957   5.225461   6.024232   5.775215
    16  H    5.534206   5.512005   4.890404   6.549636   4.676970
    17  H    6.343057   5.755711   6.074874   7.428423   6.196205
                    6          7          8          9         10
     6  C    0.000000
     7  H    2.074444   0.000000
     8  C    1.441034   3.448798   0.000000
     9  H    1.086013   2.303480   2.139335   0.000000
    10  C    2.600267   4.329005   1.391402   3.453463   0.000000
    11  N    2.450929   4.506730   1.380930   2.641505   2.215017
    12  H    3.013913   4.327920   2.201588   3.990719   1.076561
    13  C    3.695852   5.608186   2.270145   4.344241   1.412267
    14  C    3.612255   5.670178   2.255155   3.954864   2.247035
    15  H    2.721851   4.631171   2.122370   2.531676   3.186245
    16  H    4.715671   6.554048   3.314315   5.402835   2.234366
    17  H    4.550088   6.613563   3.269853   4.741708   3.306986
                   11         12         13         14         15
    11  N    0.000000
    12  H    3.257310   0.000000
    13  C    2.213125   2.222591   0.000000
    14  C    1.361228   3.286336   1.377315   0.000000
    15  H    1.006589   4.198086   3.179912   2.100995   0.000000
    16  H    3.251884   2.695919   1.077025   2.186461   4.183240
    17  H    2.130234   4.322581   2.235023   1.076816   2.492296
                   16         17
    16  H    0.000000
    17  H    2.707650   0.000000
 Symmetry turned off by external request.
 Stoichiometry    C8H7NO
 Framework group  C1[X(C8H7NO)]
 Deg. of freedom    45
 Full point group                 C1      NOp   1
 Rotational constants (GHZ):           2.3588403           0.9884616           0.7299352
 Standard basis: def2TZVP (5D, 7F)
 The following finite field(s) will be applied:
 An electric field of             -0.0052 -0.0028 -0.0047
   352 basis functions,   566 primitive gaussians,   402 cartesian basis functions
    35 alpha electrons       35 beta electrons
       nuclear repulsion energy       460.2110295155 Hartrees.
 NAtoms=   17 NActive=   17 NUniq=   17 SFac= 1.00D+00 NAtFMM=   60 NAOKFM=F Big=F
 Integral buffers will be    131072 words long.
 Raffenetti 2 integral format.
 Two-electron integral symmetry is turned off.
 One-electron integrals computed using PRISM.
   1 Symmetry operations used in ECPInt.
 ECPInt:  NShTT=    9591 NPrTT=   29644 LenC2=    9223 LenP2D=   22145.
 LDataN:  DoStor=T MaxTD1= 6 Len=  172
 NBasis=   352 RedAO= T EigKep=  3.30D-05  NBF=   352
 NBsUse=   352 1.00D-06 EigRej= -1.00D+00 NBFU=   352
 The nuclear repulsion energy is now       458.2558715595 hartrees.
 Initial guess from the checkpoint file:  "checkpoint.chk"
 B after Tr=    -0.010868   -0.004091   -0.003206
         Rot=    0.999989    0.001762   -0.002330   -0.003701 Ang=   0.54 deg.
 Requested convergence on RMS density matrix=1.00D-08 within 128 cycles.
 Requested convergence on MAX density matrix=1.00D-06.
 Requested convergence on             energy=1.00D-06.
 No special actions if energy rises.
 SCF Done:  E(RB3LYP) =  -439.160632518     A.U. after   10 cycles
            NFock= 10  Conv=0.62D-08     -V/T= 2.0050
   1 Symmetry operations used in ECPInt.
 ECPInt:  NShTT=    9591 NPrTT=   29644 LenC2=    9223 LenP2D=   22145.
 LDataN:  DoStor=T MaxTD1= 7 Len=  274
 Calling FoFJK, ICntrl=      2127 FMM=F ISym2X=0 I1Cent= 0 IOpClX= 0 NMat=1 NMatS=1 NMatT=0.
 -------------------------------------------------------------------
 Center     Atomic                   Forces (Hartrees/Bohr)
 Number     Number              X              Y              Z
 -------------------------------------------------------------------
      1        6          -0.002000135    0.000203299    0.000509998
      2        6           0.001982414    0.000545763   -0.000350322
      3        6           0.000099710   -0.000121747   -0.000288209
      4        1           0.000022582    0.000043604   -0.000143883
      5        8          -0.000087884   -0.000409722    0.000032932
      6        6           0.000017020    0.000001067    0.000274017
      7        1          -0.000031308   -0.000158743    0.000005263
      8        6           0.000040393   -0.000369037    0.000058192
      9        1           0.000029598   -0.000071747    0.000006333
     10        6          -0.000008759    0.000141210   -0.000242497
     11        7          -0.000010756    0.000326463    0.000139306
     12        1           0.000010766   -0.000076655    0.000044943
     13        6          -0.000035696    0.000042680    0.000009004
     14        6           0.000061112   -0.000151709    0.000042734
     15        1          -0.000044175    0.000015523   -0.000031009
     16        1          -0.000032378    0.000012987   -0.000032972
     17        1          -0.000012504    0.000026765   -0.000033830
 -------------------------------------------------------------------
 Cartesian Forces:  Max     0.002000135 RMS     0.000430712
 -----------------------------------------------------------------------------------------------
                       Internal Coordinate Forces (Hartree/Bohr or radian)
  Cent   Atom   N1       Length/X         N2         Alpha/Y        N3         Beta/Z          J
 -----------------------------------------------------------------------------------------------
      1  C 
      2  C        1  -0.000111(     1)
      3  C        1   0.000179(     2)      2   0.000550(    17)
      4  H        1   0.000052(     3)      2   0.000278(    18)      3   0.000085(    32)     0
      5  O        3  -0.000076(     4)      1  -0.000222(    19)      2  -0.000100(    33)     0
      6  C        2   0.000181(     5)      1   0.000018(    20)      3   0.000536(    34)     0
      7  H        2  -0.000012(     6)      1   0.000022(    21)      6   0.000304(    35)     0
      8  C        6  -0.000012(     7)      2  -0.000237(    22)      1   0.000242(    36)     0
      9  H        6  -0.000012(     8)      2   0.000100(    23)      8   0.000111(    37)     0
     10  C        8   0.000069(     9)      6  -0.000377(    24)      2  -0.000252(    38)     0
     11  N        8   0.000112(    10)      6  -0.000510(    25)     10  -0.000441(    39)     0
     12  H       10  -0.000011(    11)      8   0.000049(    26)      6  -0.000263(    40)     0
     13  C       10  -0.000078(    12)      8   0.000039(    27)     12  -0.000122(    41)     0
     14  C       11   0.000089(    13)      8  -0.000040(    28)      6  -0.000252(    42)     0
     15  H       11  -0.000012(    14)      8  -0.000100(    29)     14  -0.000025(    43)     0
     16  H       13  -0.000011(    15)     10  -0.000086(    30)      8   0.000032(    44)     0
     17  H       14  -0.000026(    16)     11   0.000006(    31)      8  -0.000064(    45)     0
 -----------------------------------------------------------------------------------------------
 Internal  Forces:  Max     0.000550121 RMS     0.000206483

 GradGradGradGradGradGradGradGradGradGradGradGradGradGradGradGradGradGrad
 Berny optimization.
 Search for a local minimum.
 Step number   3 out of a maximum of   55
 All quantities printed in internal units (Hartrees-Bohrs-Radians)
 Update second derivatives using D2CorN and points    1    2    3
 DE= -1.89D-05 DEPred=-1.64D-05 R= 1.15D+00
 TightC=F SS=  1.41D+00  RLast= 2.67D-02 DXNew= 1.6818D-01 8.0084D-02
 Trust test= 1.15D+00 RLast= 2.67D-02 DXMaxT set to 1.00D-01
 ITU=  1  1  0
     Eigenvalues ---    0.02641   0.03630   0.03999   0.04559   0.07296
     Eigenvalues ---    0.08597   0.10522   0.10824   0.16595   0.17388
     Eigenvalues ---    0.18804   0.20351   0.22406   0.23754   0.24856
     Eigenvalues ---    0.25249   0.26459   0.29456   0.30415   0.33944
     Eigenvalues ---    0.35254   0.35278   0.35657   0.36351   0.36408
     Eigenvalues ---    0.36442   0.37591   0.39003   0.39965   0.44967
     Eigenvalues ---    0.46636   0.48500   0.49088   0.51605   0.52373
     Eigenvalues ---    0.53541   0.55592   0.55814   0.61999   0.65785
     Eigenvalues ---    1.00948   1.27114   1.30410   1.90471  24.97125
 RFO step:  Lambda=-5.90650183D-06 EMin= 2.64121231D-02
 Quartic linear search produced a step of  0.09519.
 Variable       Old X    -DE/DX   Delta X   Delta X   Delta X     New X
                                 (Linear)    (Quad)   (Total)
    R2        2.75411  -0.00011  -0.00001  -0.00026  -0.00027   2.75384
    R3        2.49376   0.00018  -0.00007   0.00033   0.00026   2.49401
    R4        2.05339   0.00005   0.00007   0.00017   0.00024   2.05363
    R5        2.19561  -0.00008   0.00011  -0.00007   0.00004   2.19566
    R6        2.54701   0.00018   0.00000   0.00038   0.00039   2.54740
    R7        2.04617  -0.00001  -0.00004  -0.00003  -0.00008   2.04610
    R8        2.72316  -0.00001  -0.00015  -0.00009  -0.00024   2.72292
    R9        2.05227  -0.00001   0.00001  -0.00004  -0.00003   2.05224
   R10        2.62937   0.00007   0.00010   0.00005   0.00015   2.62952
   R11        2.60958   0.00011  -0.00002   0.00015   0.00013   2.60971
   R12        2.03441  -0.00001  -0.00000  -0.00003  -0.00003   2.03438
   R13        2.66880  -0.00008  -0.00007  -0.00022  -0.00029   2.66851
   R14        2.57235   0.00009  -0.00012   0.00023   0.00012   2.57247
   R15        1.90218  -0.00001   0.00001  -0.00001  -0.00000   1.90217
   R16        2.03528  -0.00001  -0.00000  -0.00004  -0.00004   2.03525
   R17        2.03489  -0.00003   0.00001  -0.00007  -0.00006   2.03483
    A3        2.30257   0.00055   0.00059   0.00156   0.00215   2.30472
    A4        2.04179   0.00028  -0.00031   0.00007  -0.00024   2.04155
    A5        3.02789  -0.00022  -0.00075  -0.00121  -0.00196   3.02593
    A6        2.27504   0.00002  -0.00029   0.00004  -0.00025   2.27479
    A7        1.96898   0.00002   0.00006   0.00011   0.00017   1.96915
    A8        2.26099  -0.00024  -0.00007  -0.00097  -0.00104   2.25995
    A9        2.01574   0.00010  -0.00003   0.00080   0.00077   2.01652
   A10        2.32604  -0.00038  -0.00011  -0.00036  -0.00046   2.32558
   A11        2.10415  -0.00051   0.00022  -0.00016   0.00006   2.10421
   A12        2.19544   0.00005  -0.00009   0.00034   0.00025   2.19569
   A13        1.88726   0.00004   0.00009  -0.00041  -0.00033   1.88693
   A14        1.93120  -0.00004   0.00008  -0.00052  -0.00044   1.93076
   A15        2.17714  -0.00010   0.00011   0.00019   0.00030   2.17744
   A16        2.21951  -0.00009   0.00018  -0.00047  -0.00028   2.21922
   A17        2.11805   0.00001   0.00003   0.00005   0.00008   2.11813
    D4       -2.98190   0.00009   0.00105   0.00029   0.00134  -2.98056
    D5        2.99942  -0.00010   0.00035  -0.00113  -0.00078   2.99864
    D6       -0.23469   0.00054   0.00129   0.00357   0.00487  -0.22983
    D7        3.08424   0.00030  -0.00116   0.00098  -0.00018   3.08405
    D8       -0.10470   0.00024  -0.00067   0.00048  -0.00019  -0.10489
    D9       -3.15175   0.00011  -0.00021   0.00020  -0.00001  -3.15176
   D10       -0.46658  -0.00025   0.00037  -0.00023   0.00014  -0.46644
   D11       -3.06672  -0.00044   0.00024  -0.00189  -0.00165  -3.06837
   D12       -0.00520  -0.00026   0.00014  -0.00120  -0.00106  -0.00626
   D13       -3.08119  -0.00012  -0.00021   0.00179   0.00158  -3.07961
   D14        3.10560  -0.00025   0.00015  -0.00186  -0.00171   3.10389
   D15        3.05195  -0.00003  -0.00019   0.00166   0.00148   3.05342
   D16        3.13850   0.00003   0.00021  -0.00082  -0.00061   3.13789
   D17        3.11268  -0.00006  -0.00026   0.00182   0.00156   3.11425
         Item               Value     Threshold  Converged?
 Maximum Force            0.000550     0.000450     NO 
 RMS     Force            0.000206     0.000300     YES
 Maximum Displacement     0.004867     0.001800     NO 
 RMS     Displacement     0.001076     0.001200     YES
 Predicted change in Energy=-2.908824D-06
 GradGradGradGradGradGradGradGradGradGradGradGradGradGradGradGradGradGrad

 ---------------------------------------------------------------------------------------------------
                            Z-MATRIX (ANGSTROMS AND DEGREES)
   CD    Cent   Atom    N1       Length/X        N2       Alpha/Y        N3        Beta/Z          J
 ---------------------------------------------------------------------------------------------------
      1      1  C 
      2      2  C        1   1.457268(     1)
      3      3  C        1   1.319775(     2)      2  132.051(    17)
      4      4  H        1   1.086732(     3)      2  116.972(    18)      3 -170.773(    32)      0
      5      5  O        3   1.161892(     4)      1  173.373(    19)      2  171.809(    33)      0
      6      6  C        2   1.348026(     5)      1  130.336(    20)      3  -13.168(    34)      0
      7      7  H        2   1.082748(     6)      1  112.824(    21)      6  176.703(    35)      0
      8      8  C        6   1.440907(     7)      2  129.486(    22)      1   -6.010(    36)      0
      9      9  H        6   1.085998(     8)      2  115.538(    23)      8 -180.583(    37)      0
     10     10  C        8   1.391479(     9)      6  133.246(    24)      2  -26.725(    38)      0
     11     11  N        8   1.381000(    10)      6  120.563(    25)     10 -175.805(    39)      0
     12     12  H       10   1.076547(    11)      8  125.804(    26)      6   -0.359(    40)      0
     13     13  C       10   1.412113(    12)      8  108.113(    27)     12 -176.449(    41)      0
     14     14  C       11   1.361290(    13)      8  110.625(    28)      6  177.840(    42)      0
     15     15  H       11   1.006588(    14)      8  124.758(    29)     14  174.948(    43)      0
     16     16  H       13   1.077006(    15)     10  127.152(    30)      8  179.788(    44)      0
     17     17  H       14   1.076784(    16)     11  121.360(    31)      8  178.433(    45)      0
 ---------------------------------------------------------------------------------------------------
                         Z-Matrix orientation:                         
 ---------------------------------------------------------------------
 Center     Atomic      Atomic             Coordinates (Angstroms)
 Number     Number       Type             X           Y           Z
 ---------------------------------------------------------------------
      1          6           0        0.000000    0.000000    0.000000
      2          6           0        0.000000    0.000000    1.457268
      3          6           0        0.980001    0.000000   -0.883971
      4          1           0       -0.955994    0.155293   -0.492895
      5          8           0        1.748109   -0.019103   -1.755544
      6          6           0        1.000535   -0.234086    2.329797
      7          1           0       -0.957045    0.282851    1.877272
      8          6           0        2.351098   -0.669638    2.079823
      9          1           0        0.760164   -0.062316    3.374837
     10          6           0        2.939823   -1.413939    1.062163
     11          7           0        3.350648   -0.421300    2.999817
     12          1           0        2.429313   -1.832359    0.211717
     13          6           0        4.303457   -1.593476    1.382060
     14          6           0        4.529909   -0.959026    2.583517
     15          1           0        3.244124    0.147452    3.823463
     16          1           0        5.041822   -2.126255    0.806817
     17          1           0        5.432082   -0.845680    3.160320
 ---------------------------------------------------------------------
                    Distance matrix (angstroms):
                    1          2          3          4          5
     1  C    0.000000
     2  C    1.457268   0.000000
     3  C    1.319775   2.538070   0.000000
     4  H    1.086732   2.177424   1.981195   0.000000
     5  O    2.477536   3.657651   1.161892   2.989459   0.000000
     6  C    2.546335   1.348026   3.222348   3.456474   4.158737
     7  H    2.126050   1.082748   3.384762   2.373597   4.539425
     8  C    3.209632   2.522628   3.333526   4.270392   3.936601
     9  H    3.459951   2.063687   4.264934   4.236969   5.224817
    10  C    3.430740   3.286015   3.102832   4.478625   3.362324
    11  N    4.516995   3.712653   4.569603   5.574824   5.034218
    12  H    3.050234   3.287932   2.580422   3.988426   2.760807
    13  C    4.792598   4.589614   4.326595   5.851108   4.342005
    14  C    5.302299   4.765317   5.054212   6.387578   5.239210
    15  H    5.016468   4.018079   5.225699   6.022624   5.778505
    16  H    5.530993   5.510355   4.886524   6.547405   4.674861
    17  H    6.341160   5.755265   6.073919   7.426671   6.198436
                    6          7          8          9         10
     6  C    0.000000
     7  H    2.074637   0.000000
     8  C    1.440907   3.448488   0.000000
     9  H    1.085998   2.304485   2.139386   0.000000
    10  C    2.599960   4.327711   1.391479   3.453442   0.000000
    11  N    2.450920   4.506901   1.381000   2.641991   2.215539
    12  H    3.013660   4.326153   2.201785   3.990544   1.076547
    13  C    3.695327   5.607023   2.269814   4.344023   1.412113
    14  C    3.611980   5.669895   2.254922   3.954903   2.247185
    15  H    2.722187   4.632042   2.122595   2.532849   3.186741
    16  H    4.715059   6.552562   3.313951   5.402515   2.234053
    17  H    4.549992   6.613678   3.269699   4.741993   3.307044
                   11         12         13         14         15
    11  N    0.000000
    12  H    3.257828   0.000000
    13  C    2.213363   2.222427   0.000000
    14  C    1.361290   3.286434   1.377427   0.000000
    15  H    1.006588   4.198604   3.180167   2.101191   0.000000
    16  H    3.252105   2.695501   1.077006   2.186582   4.183493
    17  H    2.130311   4.322547   2.234995   1.076784   2.492635
                   16         17
    16  H    0.000000
    17  H    2.707610   0.000000
 Symmetry turned off by external request.
 Stoichiometry    C8H7NO
 Framework group  C1[X(C8H7NO)]
 Deg. of freedom    45
 Full point group                 C1      NOp   1
 Rotational constants (GHZ):           2.3576969           0.9889807           0.7298961
 Standard basis: def2TZVP (5D, 7F)
 The following finite field(s) will be applied:
 An electric field of             -0.0052 -0.0028 -0.0047
   352 basis functions,   566 primitive gaussians,   402 cartesian basis functions
    35 alpha electrons       35 beta electrons
       nuclear repulsion energy       460.2225719606 Hartrees.
 NAtoms=   17 NActive=   17 NUniq=   17 SFac= 1.00D+00 NAtFMM=   60 NAOKFM=F Big=F
 Integral buffers will be    131072 words long.
 Raffenetti 2 integral format.
 Two-electron integral symmetry is turned off.
 One-electron integrals computed using PRISM.
   1 Symmetry operations used in ECPInt.
 ECPInt:  NShTT=    9591 NPrTT=   29644 LenC2=    9224 LenP2D=   22145.
 LDataN:  DoStor=T MaxTD1= 6 Len=  172
 NBasis=   352 RedAO= T EigKep=  3.30D-05  NBF=   352
 NBsUse=   352 1.00D-06 EigRej= -1.00D+00 NBFU=   352
 The nuclear repulsion energy is now       458.2647899927 hartrees.
 Initial guess from the checkpoint file:  "checkpoint.chk"
 B after Tr=    -0.003982   -0.003551   -0.001540
         Rot=    0.999997    0.000850   -0.000686   -0.002042 Ang=   0.27 deg.
 Requested convergence on RMS density matrix=1.00D-08 within 128 cycles.
 Requested convergence on MAX density matrix=1.00D-06.
 Requested convergence on             energy=1.00D-06.
 No special actions if energy rises.
 SCF Done:  E(RB3LYP) =  -439.160636729     A.U. after   10 cycles
            NFock= 10  Conv=0.32D-08     -V/T= 2.0050
   1 Symmetry operations used in ECPInt.
 ECPInt:  NShTT=    9591 NPrTT=   29644 LenC2=    9224 LenP2D=   22145.
 LDataN:  DoStor=T MaxTD1= 7 Len=  274
 Calling FoFJK, ICntrl=      2127 FMM=F ISym2X=0 I1Cent= 0 IOpClX= 0 NMat=1 NMatS=1 NMatT=0.
 -------------------------------------------------------------------
 Center     Atomic                   Forces (Hartrees/Bohr)
 Number     Number              X              Y              Z
 -------------------------------------------------------------------
      1        6          -0.002023560    0.000264906    0.000358395
      2        6           0.002151360    0.000529401   -0.000220380
      3        6          -0.000012004   -0.000138065   -0.000144249
      4        1           0.000007466    0.000015229   -0.000077494
      5        8          -0.000020701   -0.000400673    0.000008193
      6        6          -0.000099151    0.000037967    0.000074406
      7        1          -0.000049592   -0.000150464   -0.000000313
      8        6           0.000040223   -0.000079132   -0.000019879
      9        1          -0.000013367   -0.000067188   -0.000011137
     10        6          -0.000062941    0.000115313   -0.000006937
     11        7          -0.000047981   -0.000077643    0.000047058
     12        1           0.000004538   -0.000098136    0.000072543
     13        6           0.000080067    0.000020251    0.000098180
     14        6           0.000105231    0.000026471   -0.000131566
     15        1          -0.000063707   -0.000042422   -0.000007763
     16        1          -0.000005514   -0.000008442   -0.000010158
     17        1           0.000009631    0.000052628   -0.000028897
 -------------------------------------------------------------------
 Cartesian Forces:  Max     0.002151360 RMS     0.000434111
 -----------------------------------------------------------------------------------------------
                       Internal Coordinate Forces (Hartree/Bohr or radian)
  Cent   Atom   N1       Length/X         N2         Alpha/Y        N3         Beta/Z          J
 -----------------------------------------------------------------------------------------------
      1  C 
      2  C        1  -0.000145(     1)
      3  C        1   0.000067(     2)      2   0.000329(    17)
      4  H        1   0.000031(     3)      2   0.000146(    18)      3   0.000030(    32)     0
      5  O        3  -0.000013(     4)      1  -0.000147(    19)      2  -0.000100(    33)     0
      6  C        2   0.000031(     5)      1   0.000144(    20)      3   0.000469(    34)     0
      7  H        2   0.000004(     6)      1  -0.000004(    21)      6   0.000299(    35)     0
      8  C        6   0.000081(     7)      2   0.000004(    22)      1   0.000186(    36)     0
      9  H        6  -0.000018(     8)      2   0.000006(    23)      8   0.000124(    37)     0
     10  C        8  -0.000121(     9)      6   0.000424(    24)      2  -0.000314(    38)     0
     11  N        8  -0.000086(    10)      6   0.000277(    25)     10   0.000014(    39)     0
     12  H       10  -0.000021(    11)      8   0.000035(    26)      6  -0.000153(    40)     0
     13  C       10   0.000090(    12)      8  -0.000163(    27)     12   0.000043(    41)     0
     14  C       11   0.000117(    13)      8  -0.000135(    28)      6   0.000504(    42)     0
     15  H       11  -0.000024(    14)      8  -0.000105(    29)     14   0.000075(    43)     0
     16  H       13   0.000006(    15)     10  -0.000026(    30)      8  -0.000005(    44)     0
     17  H       14  -0.000002(    16)     11  -0.000006(    31)      8  -0.000105(    45)     0
 -----------------------------------------------------------------------------------------------
 Internal  Forces:  Max     0.000504380 RMS     0.000171960

 GradGradGradGradGradGradGradGradGradGradGradGradGradGradGradGradGradGrad
 Berny optimization.
 Search for a local minimum.
 Step number   4 out of a maximum of   55
 All quantities printed in internal units (Hartrees-Bohrs-Radians)
 Update second derivatives using D2CorN and points    1    2    3    4
 DE= -4.21D-06 DEPred=-2.91D-06 R= 1.45D+00
 TightC=F SS=  1.41D+00  RLast= 7.22D-03 DXNew= 1.6818D-01 2.1646D-02
 Trust test= 1.45D+00 RLast= 7.22D-03 DXMaxT set to 1.00D-01
 ITU=  1  1  1  0
     Eigenvalues ---    0.01547   0.03643   0.04147   0.04406   0.07197
     Eigenvalues ---    0.08724   0.10510   0.10819   0.15104   0.17304
     Eigenvalues ---    0.18923   0.20203   0.22194   0.23731   0.24839
     Eigenvalues ---    0.25350   0.26555   0.29232   0.30157   0.33937
     Eigenvalues ---    0.35249   0.35279   0.35658   0.36351   0.36408
     Eigenvalues ---    0.36442   0.37605   0.38964   0.39503   0.44972
     Eigenvalues ---    0.46637   0.48499   0.49267   0.51186   0.52393
     Eigenvalues ---    0.53398   0.55592   0.55802   0.61976   0.65830
     Eigenvalues ---    1.00998   1.27103   1.30512   1.90472  24.97156
 RFO step:  Lambda=-1.12871586D-05 EMin= 1.54652419D-02
 Quartic linear search produced a step of  0.66994.
 Variable       Old X    -DE/DX   Delta X   Delta X   Delta X     New X
                                 (Linear)    (Quad)   (Total)
    R2        2.75384  -0.00014  -0.00018  -0.00085  -0.00103   2.75281
    R3        2.49401   0.00007   0.00017   0.00007   0.00024   2.49425
    R4        2.05363   0.00003   0.00016   0.00042   0.00058   2.05420
    R5        2.19566  -0.00001   0.00003   0.00027   0.00030   2.19596
    R6        2.54740   0.00003   0.00026   0.00016   0.00042   2.54782
    R7        2.04610   0.00000  -0.00005  -0.00007  -0.00012   2.04597
    R8        2.72292   0.00008  -0.00016   0.00001  -0.00015   2.72277
    R9        2.05224  -0.00002  -0.00002  -0.00011  -0.00013   2.05211
   R10        2.62952  -0.00012   0.00010  -0.00004   0.00006   2.62957
   R11        2.60971  -0.00009   0.00009  -0.00011  -0.00002   2.60969
   R12        2.03438  -0.00002  -0.00002  -0.00015  -0.00016   2.03421
   R13        2.66851   0.00009  -0.00019   0.00002  -0.00018   2.66833
   R14        2.57247   0.00012   0.00008   0.00017   0.00024   2.57271
   R15        1.90217  -0.00002  -0.00000  -0.00005  -0.00006   1.90212
   R16        2.03525   0.00001  -0.00002   0.00004   0.00002   2.03526
   R17        2.03483  -0.00000  -0.00004   0.00005   0.00001   2.03484
    A3        2.30472   0.00033   0.00144   0.00417   0.00561   2.31033
    A4        2.04155   0.00015  -0.00016  -0.00157  -0.00173   2.03982
    A5        3.02593  -0.00015  -0.00131  -0.00436  -0.00568   3.02026
    A6        2.27479   0.00014  -0.00017  -0.00005  -0.00022   2.27457
    A7        1.96915  -0.00000   0.00012  -0.00011   0.00001   1.96916
    A8        2.25995   0.00000  -0.00070  -0.00073  -0.00142   2.25853
    A9        2.01652   0.00001   0.00052   0.00039   0.00091   2.01743
   A10        2.32558   0.00042  -0.00031  -0.00057  -0.00088   2.32470
   A11        2.10421   0.00028   0.00004   0.00125   0.00129   2.10550
   A12        2.19569   0.00003   0.00017  -0.00015   0.00002   2.19571
   A13        1.88693  -0.00016  -0.00022   0.00053   0.00031   1.88725
   A14        1.93076  -0.00014  -0.00029   0.00048   0.00018   1.93095
   A15        2.17744  -0.00011   0.00020  -0.00009   0.00012   2.17756
   A16        2.21922  -0.00003  -0.00019   0.00016  -0.00003   2.21920
   A17        2.11813  -0.00001   0.00005   0.00050   0.00056   2.11868
    D4       -2.98056   0.00003   0.00090   0.00320   0.00409  -2.97646
    D5        2.99864  -0.00010  -0.00053  -0.00221  -0.00273   2.99590
    D6       -0.22983   0.00047   0.00326   0.01174   0.01500  -0.21482
    D7        3.08405   0.00030  -0.00012  -0.00316  -0.00328   3.08077
    D8       -0.10489   0.00019  -0.00013  -0.00511  -0.00524  -0.11013
    D9       -3.15176   0.00012  -0.00001   0.00246   0.00245  -3.14931
   D10       -0.46644  -0.00031   0.00010   0.00046   0.00055  -0.46589
   D11       -3.06837   0.00001  -0.00111   0.00106  -0.00005  -3.06842
   D12       -0.00626  -0.00015  -0.00071  -0.00638  -0.00709  -0.01335
   D13       -3.07961   0.00004   0.00106   0.00305   0.00411  -3.07550
   D14        3.10389   0.00050  -0.00115   0.00477   0.00362   3.10751
   D15        3.05342   0.00007   0.00099  -0.00078   0.00021   3.05364
   D16        3.13789  -0.00001  -0.00041   0.00008  -0.00032   3.13757
   D17        3.11425  -0.00011   0.00105  -0.00195  -0.00090   3.11335
         Item               Value     Threshold  Converged?
 Maximum Force            0.000504     0.000450     NO 
 RMS     Force            0.000172     0.000300     YES
 Maximum Displacement     0.015004     0.001800     NO 
 RMS     Displacement     0.003161     0.001200     NO 
 Predicted change in Energy=-4.853993D-06
 GradGradGradGradGradGradGradGradGradGradGradGradGradGradGradGradGradGrad

 ---------------------------------------------------------------------------------------------------
                            Z-MATRIX (ANGSTROMS AND DEGREES)
   CD    Cent   Atom    N1       Length/X        N2       Alpha/Y        N3        Beta/Z          J
 ---------------------------------------------------------------------------------------------------
      1      1  C 
      2      2  C        1   1.456723(     1)
      3      3  C        1   1.319901(     2)      2  132.372(    17)
      4      4  H        1   1.087038(     3)      2  116.873(    18)      3 -170.539(    32)      0
      5      5  O        3   1.162052(     4)      1  173.048(    19)      2  171.653(    33)      0
      6      6  C        2   1.348247(     5)      1  130.323(    20)      3  -12.308(    34)      0
      7      7  H        2   1.082683(     6)      1  112.825(    21)      6  176.515(    35)      0
      8      8  C        6   1.440830(     7)      2  129.404(    22)      1   -6.310(    36)      0
      9      9  H        6   1.085929(     8)      2  115.590(    23)      8 -180.442(    37)      0
     10     10  C        8   1.391509(     9)      6  133.195(    24)      2  -26.693(    38)      0
     11     11  N        8   1.380989(    10)      6  120.636(    25)     10 -175.807(    39)      0
     12     12  H       10   1.076460(    11)      8  125.805(    26)      6   -0.765(    40)      0
     13     13  C       10   1.412020(    12)      8  108.131(    27)     12 -176.213(    41)      0
     14     14  C       11   1.361420(    13)      8  110.635(    28)      6  178.047(    42)      0
     15     15  H       11   1.006558(    14)      8  124.765(    29)     14  174.961(    43)      0
     16     16  H       13   1.077014(    15)     10  127.151(    30)      8  179.769(    44)      0
     17     17  H       14   1.076788(    16)     11  121.392(    31)      8  178.382(    45)      0
 ---------------------------------------------------------------------------------------------------
                         Z-Matrix orientation:                         
 ---------------------------------------------------------------------
 Center     Atomic      Atomic             Coordinates (Angstroms)
 Number     Number       Type             X           Y           Z
 ---------------------------------------------------------------------
      1          6           0        0.000000    0.000000    0.000000
      2          6           0        0.000000    0.000000    1.456723
      3          6           0        0.975119    0.000000   -0.889540
      4          1           0       -0.956460    0.159390   -0.491356
      5          8           0        1.733522   -0.020419   -1.769752
      6          6           0        1.004286   -0.219125    2.329170
      7          1           0       -0.960234    0.271593    1.876710
      8          6           0        2.359084   -0.639965    2.077362
      9          1           0        0.763306   -0.048690    3.374217
     10          6           0        2.952864   -1.380627    1.059942
     11          7           0        3.359010   -0.378312    2.993231
     12          1           0        2.443491   -1.812144    0.215491
     13          6           0        4.320162   -1.541182    1.373819
     14          6           0        4.543795   -0.900394    2.572307
     15          1           0        3.248408    0.188900    3.817366
     16          1           0        5.062502   -2.066886    0.797168
     17          1           0        5.447112   -0.774561    3.144722
 ---------------------------------------------------------------------
                    Distance matrix (angstroms):
                    1          2          3          4          5
     1  C    0.000000
     2  C    1.456723   0.000000
     3  C    1.319901   2.540828   0.000000
     4  H    1.087038   2.176059   1.978624   0.000000
[...]
   zz         0.122227D+03      0.181121D+02      0.201524D+02

 ----------------------------------------------------------------------
 1\1\GINC-BHC0106\Freq\RB3LYP\def2TZVP\C8H7N1O1\DHANAWAY\10-Jun-2022\1\
 \#N Geom=AllCheck Guess=TCheck SCRF=Check GenChk RB3LYP/def2TZVP Freq\
 \int_zmat_initalOpt\\0,1\C\C,1,R2\C,1,R3,2,A3\H,1,R4,2,A4,3,D4,0\O,3,R
 5,1,A5,2,D5,0\C,2,R6,1,A6,3,D6,0\H,2,R7,1,A7,6,D7,0\C,6,R8,2,A8,1,D8,0
 \H,6,R9,2,A9,8,D9,0\C,8,R10,6,A10,2,D10,0\N,8,R11,6,A11,10,D11,0\H,10,
 R12,8,A12,6,D12,0\C,10,R13,8,A13,12,D13,0\C,11,R14,8,A14,6,D14,0\H,11,
 R15,8,A15,14,D15,0\H,13,R16,10,A16,8,D16,0\H,14,R17,11,A17,8,D17,0\\R2
 =1.45638124\R3=1.32007927\R4=1.08700524\R5=1.16215507\R6=1.34813304\R7
 =1.08275023\R8=1.44093355\R9=1.08597782\R10=1.39131214\R11=1.38087756\
 R12=1.0765581\R13=1.41229819\R14=1.361531\R15=1.00652562\R16=1.0769882
 7\R17=1.07679858\A3=132.47267189\A4=116.85431308\A5=172.90136553\A6=13
 0.4101579\A7=112.78273814\A8=129.31547709\A9=115.59736849\A10=133.1517
 571\A11=120.65829283\A12=125.79964692\A13=108.11548222\A14=110.6124825
 7\A15=124.75381096\A16=127.14944097\A17=121.35896586\D4=-171.17717168\
 D5=168.9379804\D6=-10.59161915\D7=177.0422428\D8=-5.6041814\D9=-180.74
 977547\D10=-28.007743\D11=-176.04462534\D12=-1.03595899\D13=-176.08124
 015\D14=178.12202246\D15=175.08300566\D16=179.67545948\D17=178.4472745
 3\\Version=ES64L-G16RevA.03\HF=-439.1606595\RMSD=2.067e-09\RMSF=4.216e
 -04\ZeroPoint=0.130029\Thermal=0.1389665\Dipole=0.4658941,0.5014518,1.
 5185074\DipoleDeriv=-0.2825056,-0.061222,0.6032704,-0.0494213,-0.27143
 06,-0.057347,0.0361135,0.0314608,-0.5953866,-0.3808761,0.0684342,-0.24
 58076,-0.0733442,-0.1609812,-0.0372767,0.0057455,-0.0142331,0.5476858,
 0.692066,0.1295833,-1.3230342,0.0276543,0.1645138,0.0943895,-0.3659103
 ,-0.2142361,1.6860086,-0.0008268,0.0260783,-0.064734,0.0409534,0.17678
 76,0.0186606,-0.0128876,0.011181,0.0099673,-0.3702543,-0.1289187,1.002
 602,-0.0143396,-0.127276,-0.0852899,0.1471823,0.2063163,-1.5610876,0.7
 044431,-0.2595892,0.1534367,-0.2103248,-0.0591161,-0.0418093,-0.053731
 4,0.0276597,-0.1136913,-0.1010896,0.0523605,0.0447726,0.0462029,0.1311
 05,-0.0063494,0.0366505,-0.0071848,-0.0010584,-0.5062257,0.201951,-0.0
 602322,0.2551387,-0.0182187,0.1927943,0.2647616,0.0890606,0.2570369,0.
 029683,0.021694,0.0021824,0.0847697,0.1049797,0.0064006,0.0475617,-0.0
 316004,-0.0755192,0.3518487,-0.1032896,0.1419769,-0.0803548,-0.1254159
 ,0.0110691,-0.0981106,0.0687593,-0.2273493,0.2107479,-0.0160871,0.2813
 904,-0.1158935,-0.2538079,-0.1914468,0.1331563,-0.2220823,-0.4433749,0
 .0297802,-0.0358571,-0.07486,-0.0342062,0.1097313,-0.0741281,-0.055689
 8,-0.0765298,0.0140526,-0.2960961,0.0267931,-0.1477019,-0.1704956,-0.1
 637805,-0.0106773,-0.3015791,0.1381823,-0.2338204,-0.3458323,-0.016230
 9,-0.3490316,0.1947716,-0.0387915,0.3020558,0.176673,0.1191337,0.26401
 9,0.1776008,0.0254766,0.0235134,0.0408413,0.2627561,-0.0200012,0.02069
 7,-0.0101851,0.30465,0.0030124,0.0625754,0.0289273,0.0442885,0.1200413
 ,-0.0622616,0.0488577,-0.0675172,0.0736353,0.0845244,0.0062481,-0.0166
 705,0.0137595,0.1489035,-0.0387825,-0.0294904,-0.0481848,0.0942322\Pol
 ar=142.2834437,-17.9138526,67.487599,16.4104834,1.8727764,118.6311143\
 PG=C01 [X(C8H7N1O1)]\NImag=0\\0.63839199,-0.05176781,0.07359825,-0.114
 23965,-0.01754063,0.66886980,-0.08020429,0.00701501,0.01241455,0.69849
 352,0.00730664,-0.03765267,-0.00316779,-0.12827411,0.13019271,-0.02018
 957,0.00501212,-0.23045515,0.08661166,-0.01017048,0.63263208,-0.282262
 19,0.01144917,0.18092778,-0.01280460,0.00009766,0.02969495,0.75720189,
 0.00489673,-0.03364542,0.00090189,0.00328363,-0.00693208,0.00086368,-0
 .02567664,0.08463882,0.18711962,-0.00095254,-0.28680387,0.03807390,0.0
 0000400,-0.03310348,-0.66655489,0.01481872,0.89125305,-0.26368431,0.03
 623305,-0.10844010,0.00192404,0.00036918,0.00115207,-0.03225398,0.0045
 9641,-0.00554604,0.28753107,0.04102310,-0.02218314,0.01749196,0.000325
 48,0.00380705,0.00061823,-0.00284417,0.00017502,0.00068920,-0.04044511
 ,0.01375098,-0.10308661,0.01677684,-0.09516699,-0.02846222,0.00481257,
 -0.01403814,0.01840494,-0.00283420,0.00802296,0.11253532,-0.01931575,0
 .10798458,-0.01769731,-0.00308328,0.04475813,0.00526160,0.00093093,-0.
 00666591,-0.43767794,0.01382816,0.44668794,0.00470083,0.00153078,-0.00
 149144,0.45091722,-0.00184892,0.01009387,0.00111840,-0.00217436,0.0057
 8721,-0.00212142,0.01675947,-0.04457348,-0.01518400,-0.00054784,0.0027
 1126,0.00079667,-0.01414877,0.02669358,0.04661035,-0.00057161,-0.00137
 253,-0.01108477,-0.00088691,0.00222859,0.44760751,-0.01464475,-0.57996
 886,-0.00045606,0.00094638,-0.00343570,-0.48432999,0.01324338,0.586530
 89,0.00605004,-0.00032221,-0.01516001,-0.30126200,0.05404850,-0.159791
 37,0.01015473,-0.00313756,-0.00194736,0.00079727,-0.00068332,0.0021583
 7,-0.00946116,0.00278925,0.00828085,0.67405744,-0.00103933,0.00535426,
 0.00285786,0.04583891,-0.06143151,0.02329018,-0.00039667,0.00246148,0.
 00152037,0.00001587,0.00170785,-0.00050434,0.00152079,-0.00164650,-0.0
 0245229,-0.12504492,0.15954413,-0.01663743,0.00306951,-0.04156492,-0.1
 8328174,0.03148650,-0.25287985,-0.01466574,0.00093870,0.00817682,0.000
 48347,-0.00056777,-0.00399765,0.00470222,0.00014982,-0.00363393,0.1013
 3561,0.03293629,0.69160875,0.00003136,-0.00010032,-0.00150331,-0.27595
 749,0.05981148,0.09676669,0.00165073,0.00013341,-0.00111556,0.00115860
 ,-0.00050654,0.00001296,0.00013441,0.00023592,0.00005671,-0.02205866,0
 .00613134,0.00971609,0.29548507,0.00026145,0.00088272,0.00092322,0.060
 04732,-0.04323173,-0.02681940,-0.00042723,0.00080221,0.00056221,-0.000
 35817,-0.00009244,0.00022944,0.00031367,0.00047629,-0.00045612,0.00643
 377,0.00076077,-0.00042384,-0.06584201,0.03707705,0.02556195,-0.005338
 13,-0.01699634,0.09849509,-0.02494856,-0.09521205,-0.00061060,-0.00117
 507,-0.00584158,0.00042463,0.00022862,0.00128074,0.00145730,0.00045270
 ,0.00022575,-0.02077633,0.00547304,0.00850839,-0.10042506,0.02456383,0
 .10854388,0.00059413,-0.00212909,0.00936078,-0.04513475,0.00684811,-0.
 01495856,-0.00019699,0.00180857,0.00143370,0.00006980,0.00106445,0.000
 73297,0.00310273,-0.00190068,-0.00407934,-0.23582097,0.05185207,0.0477
 4327,0.00025239,0.00063381,-0.00216865,0.71766963,-0.00013614,-0.00426
 210,-0.00382756,0.01123319,0.00440979,0.00649268,-0.00276627,-0.002893
 47,-0.00112006,0.00016004,-0.00002640,-0.00038342,0.00001037,0.0019223
 8,0.00231664,0.04285627,-0.06995226,-0.02952580,0.00097458,0.00991047,
 -0.00017750,-0.12193166,0.27733730,0.00063284,0.00042272,-0.00034465,-
 0.01535478,0.00584939,0.01674814,-0.00127311,0.00025331,-0.00168024,0.
 00015771,-0.00033381,-0.00026681,-0.00035021,0.00037324,0.00184962,0.0
 1515842,-0.02169846,-0.10974432,-0.00360309,0.00105775,-0.00186299,-0.
 01883225,0.20020740,0.49909441,-0.00112624,0.00244028,-0.00380918,0.00
 664576,-0.00188474,-0.02392244,-0.00151164,0.00013748,0.00031654,-0.00
 010733,0.00011022,-0.00070490,0.00046276,-0.00007545,-0.00009959,-0.07
 204592,0.01351374,0.06261264,0.00048117,-0.00201710,-0.00093616,-0.004
 80857,0.00691823,0.03007418,0.07594149,0.00191365,0.00802180,-0.000081
 42,0.00318844,0.00331657,0.00680584,0.00116408,0.00062667,-0.00095397,
 0.00005315,0.00012698,0.00024207,-0.00091292,-0.00047929,0.00092046,0.
 00790110,-0.03799244,-0.04137849,-0.00150524,-0.00644428,0.00058698,0.
 00751914,-0.00031337,-0.01017316,-0.01937006,0.03174743,-0.00298126,-0
 .00066912,0.00052616,0.00417361,-0.00256924,-0.02121533,-0.00018265,-0
 .00020136,0.00045161,0.00000527,0.00007924,-0.00085584,0.00004134,0.00
 010947,-0.00016112,0.06001205,-0.04018686,-0.30400796,-0.00000513,0.00
 096797,0.00110061,0.00100309,-0.00181300,-0.00514979,-0.06253786,0.043
 22101,0.32661930,-0.00132999,0.00073457,-0.00253334,0.00986066,-0.0003
 3566,0.00519682,0.00281280,-0.00145625,-0.00155520,-0.00002353,0.00046
 141,0.00016328,-0.00297091,0.00056097,0.00237303,-0.02353095,0.0176281
 8,0.02178896,-0.00005330,-0.00036731,0.00004758,-0.12767262,0.04915526
 ,0.06256671,-0.00415273,-0.00012898,0.00018609,0.58681826,0.00151075,-
 0.00042874,-0.00067796,-0.00279903,0.00031468,-0.00025845,-0.00448241,
 0.00184411,0.00367402,-0.00003281,-0.00034569,-0.00007211,0.00410270,-
 0.00182271,-0.00115695,0.00768475,-0.00062919,-0.00169087,-0.00019848,
 -0.00037440,-0.00011012,0.05554301,-0.14053407,-0.10705541,-0.00088866
 ,0.00266700,0.00096502,-0.01172621,0.30175257,-0.00053514,-0.00108263,
 0.00282488,-0.00651075,0.00064741,-0.00459478,0.00187619,0.00276127,0.
 00066807,-0.00015828,-0.00021653,0.00016809,-0.00046493,-0.00101537,-0
 .00296936,0.01696692,-0.00219997,0.00594189,-0.00000286,-0.00020340,-0
 .00020032,0.06453334,-0.10092811,-0.21300428,-0.00123087,0.00032490,0.
 00087321,0.12326305,0.28995892,0.61490823,-0.00215495,0.00017749,-0.00
 011135,0.00453440,0.00061825,0.00420399,0.00551553,-0.00140216,-0.0023
 7553,-0.00016946,-0.00018130,-0.00008299,-0.00402811,0.00100462,0.0024
 5720,-0.04547031,-0.00797677,-0.02999139,-0.00066495,0.00180108,-0.000
 54848,-0.18408062,-0.02244086,-0.08399207,0.00270805,-0.00173287,-0.00
 140943,-0.01207526,-0.00907376,-0.02632636,0.61983542,0.00036704,-0.00
 003408,-0.00010272,0.00082887,0.00156993,-0.00183000,-0.00093303,0.000
 01851,-0.00060621,0.00005075,-0.00005787,-0.00002353,0.00028075,0.0000
 3929,-0.00005698,0.01125540,0.00067507,0.01034265,0.00096273,0.0003601
 7,0.00027911,-0.02555123,-0.08240562,-0.04994392,0.00032211,-0.0008894
 8,0.00047275,0.00751347,-0.01131500,-0.03991571,-0.11180979,0.35055761
 ,-0.00162800,0.00058005,0.00014879,0.00559689,-0.00176455,0.00094248,0
 .00532548,-0.00145989,-0.00240114,-0.00006812,-0.00002883,0.00019747,-
 0.00375457,0.00095863,0.00253276,-0.00450348,0.00631672,0.00697534,0.0
 0017039,-0.00075235,0.00044810,-0.07608025,-0.04933506,-0.17316807,-0.
 00048104,0.00061049,0.00147111,0.00404381,-0.04553994,-0.06310801,-0.0
 0484495,0.38267297,0.68816940,-0.00085780,0.00007984,-0.00013201,0.000
 24233,0.00001009,0.00002115,0.00104549,0.00107572,-0.00156393,-0.00004
 287,0.00012647,0.00003013,-0.00135327,0.00066430,-0.00013170,-0.000160
 93,-0.00081578,-0.00044488,0.00000976,-0.00000038,-0.00000488,0.011673
 52,0.00489638,0.01120167,0.00007356,-0.00012038,-0.00003130,-0.1190295
 7,-0.05408370,-0.10809437,-0.00183472,0.00300215,0.00330650,0.11682446
 ,-0.00124775,-0.00006921,-0.00020874,0.00106644,-0.00054740,-0.0008678
 7,0.00427297,-0.00162054,-0.00012428,-0.00007870,0.00053273,0.00021123
 ,-0.00200990,0.00015900,0.00089114,-0.00065592,-0.00181470,0.00194612,
 0.00004570,0.00011488,0.00014828,-0.01019271,-0.00356275,-0.00594728,-
 0.00004690,0.00001705,0.00002160,-0.05421893,-0.09071205,-0.11449678,0
 .00070176,0.00123021,-0.00404875,0.05820992,0.09029880,0.00030683,0.00
 035586,0.00022738,0.00018056,0.00008376,-0.00004935,-0.00191409,0.0003
 4771,0.00010161,0.00001109,-0.00009897,-0.00005626,-0.00007096,0.00114
 260,-0.00114280,-0.00054718,0.00170040,-0.00079364,0.00001764,-0.00004
 614,0.00001794,-0.01189816,-0.00348432,-0.00945424,0.00013079,-0.00001
 561,-0.00003087,-0.10577716,-0.11350924,-0.22470288,0.00199214,-0.0038
 0777,-0.00158703,0.11899625,0.11956628,0.23620114,0.00253955,-0.000174
 11,-0.00088184,-0.00544506,-0.00033066,-0.00022214,-0.00736955,0.00137
 971,0.00284682,0.00008634,-0.00026731,-0.00022746,0.00496309,-0.000668
 71,-0.00326841,0.00955799,-0.00022413,0.00157331,-0.00006005,-0.000209
 27,-0.00021698,-0.05349670,0.04027275,0.04686172,-0.00039737,0.0011215
 1,-0.00013100,-0.27947572,0.01219060,-0.05320255,-0.00704343,0.0116558
 3,0.01077112,-0.00252982,0.00228260,0.00060790,0.65609423,0.00066465,0
 .00008883,0.00124568,-0.00309951,0.00043546,-0.00095799,-0.00174437,-0
 .00028234,0.00017351,0.00006420,-0.00018031,-0.00006539,0.00140332,0.0
 0017537,-0.00073639,0.00417260,0.00011303,-0.00481529,0.00011465,-0.00
 004719,-0.00001454,0.01083537,0.00464135,-0.00627571,0.00107681,0.0000
 1230,-0.00018506,0.03048223,-0.07557955,-0.01705465,0.03523445,-0.0149
 1106,-0.03750832,-0.01385244,0.00296183,-0.00055033,-0.15232433,0.3154
 9821,0.00058330,-0.00007397,-0.00046687,-0.00464919,-0.00011590,-0.001
 81058,-0.00302601,0.00024426,0.00261700,-0.00001954,0.00043203,0.00006
 184,0.00242366,-0.00039540,-0.00276988,0.00865079,-0.00499810,-0.00249
 034,0.00001091,-0.00027616,0.00004840,-0.00334674,0.00197751,0.0143436
 2,0.00082816,0.00079101,0.00029173,-0.02687033,-0.02364141,-0.10248618
 ,0.05087743,-0.04546067,-0.04703951,-0.02147507,0.00544922,-0.00018844
 ,-0.07055939,0.28062960,0.55900681,0.00181386,-0.00048365,-0.00095237,
 -0.00554200,0.00049597,0.00161956,-0.00489244,0.00058921,0.00416109,0.
 00003044,0.00028562,-0.00004362,0.00393246,-0.00065568,-0.00401115,0.0
 0709162,-0.00131834,-0.00394045,-0.00025521,-0.00027166,-0.00019846,-0
 .08760963,0.00277545,-0.02851408,-0.00084718,0.00079786,0.00091385,-0.
 01658391,-0.00888261,-0.02250721,-0.27846768,0.07175508,0.04880038,-0.
 00617292,0.00262177,-0.00074058,-0.11154945,-0.01884683,-0.04627270,0.
 74672241,-0.00170024,0.00003277,0.00101478,0.00318446,0.00042285,-0.00
 013270,0.00472156,-0.00080658,-0.00191282,-0.00008467,-0.00001167,0.00
 005332,-0.00308982,0.00056050,0.00208513,-0.00802552,0.00109080,-0.002
 70335,-0.00019712,0.00023917,-0.00003781,0.02225132,0.00780990,-0.0036
 2837,0.00014344,-0.00080758,-0.00040949,-0.03649050,0.01187792,-0.0135
 1160,0.06404169,-0.09778549,-0.04758087,0.00086766,0.00194611,-0.00151
 620,-0.00526292,-0.13729074,-0.12352008,-0.01631603,0.26865503,-0.0014
 0865,0.00006296,0.00016663,0.00347136,0.00051303,0.00158535,0.00421833
 ,-0.00061349,-0.00115410,-0.00009282,0.00010695,0.00009303,-0.00283868
 ,0.00028994,0.00168950,-0.01041618,-0.00231598,-0.00527343,-0.00028277
 ,0.00057558,-0.00009332,-0.00039758,-0.01073579,-0.00438282,0.00034003
 ,-0.00087970,-0.00000153,-0.07148312,-0.00270110,-0.01882460,0.0441245
 7,-0.04766966,-0.11694827,-0.00177656,-0.00205088,0.00159196,-0.024482
 62,-0.12740240,-0.28585750,0.17022903,0.24026587,0.57639090,-0.0003111
 1,-0.00008676,0.00057146,-0.00043973,0.00032542,-0.00009850,0.00104265
 ,-0.00016105,-0.00046461,-0.00000668,0.00002277,0.00008496,-0.00061776
 ,0.00008723,0.00042588,0.00243306,-0.00044289,-0.00070050,-0.00002619,
 0.00002614,-0.00001555,0.01154554,-0.01506806,-0.01593969,-0.00099064,
 0.00005755,0.00087659,-0.00444900,-0.00156842,-0.00469423,-0.07803636,
 0.03731148,0.03200526,0.00089405,-0.00009289,-0.00106331,-0.00662032,0
 .00281986,0.00182171,0.00710123,0.01490770,0.02567052,0.06753898,0.000
 00705,0.00002271,0.00010281,0.00024270,-0.00019378,0.00014428,0.000211
 95,-0.00001947,-0.00033700,0.00001889,0.00002998,0.00003558,-0.0002188
 7,0.00004738,0.00025794,-0.00015140,-0.00128742,0.00106533,0.00007355,
 0.00006546,0.00001325,0.00116465,-0.00562582,0.00163371,-0.00054156,0.
 00054149,0.00003648,0.00000298,0.00102083,-0.00050382,0.03880523,-0.15
 088219,-0.20859060,0.00033341,0.00184334,-0.00097454,0.00137214,0.0014
 4211,-0.00092289,-0.00314311,-0.00704406,-0.00256303,-0.03799421,0.159
 60443,-0.00013085,-0.00000010,0.00028621,0.00002606,0.00015946,-0.0005
 1523,0.00023478,0.00003482,-0.00032432,0.00000333,-0.00000706,0.000011
 91,-0.00017151,-0.00005284,0.00039078,0.00039640,0.00129637,0.00088405
 ,0.00003006,-0.00011120,0.00001367,0.00791492,-0.00561621,-0.01216425,
 -0.00023187,-0.00013832,0.00006580,-0.00451363,-0.00050859,-0.00054365
 ,0.03288492,-0.20424493,-0.30356174,0.00037628,-0.00121448,0.00029568,
 0.00181283,-0.00041742,0.00302073,0.00055426,-0.00009995,-0.00498782,-
 0.03909375,0.21046669,0.31676688,0.00019939,0.00000431,-0.00021043,-0.
 00015025,-0.00001258,0.00024532,-0.00047882,0.00009193,0.00055950,-0.0
 0001133,-0.00000775,-0.00001346,0.00039256,-0.00008872,-0.00044452,0.0
 0045803,0.00065858,0.00088294,-0.00004572,-0.00004916,-0.00003148,-0.0
 0513144,0.00048565,-0.00233425,-0.00035808,0.00006381,0.00007361,-0.00
 913087,0.01189445,0.01667893,0.00088660,-0.00090119,-0.00294735,0.0007
 6517,-0.00074000,-0.00021266,-0.20442611,0.10278102,0.10970332,0.00855
 146,-0.00417547,-0.00365038,0.00070438,0.00010896,-0.00030739,0.207975
 64,0.00006184,0.00005363,-0.00000404,-0.00025387,0.00001033,0.00003965
 ,-0.00005830,0.00016268,-0.00017460,0.00000839,-0.00002149,0.00000152,
 -0.00003572,-0.00008756,0.00010792,0.00055922,0.00091491,-0.00067066,-
 0.00001373,-0.00010785,0.00000987,-0.00037692,0.00314978,-0.00159415,0
 .00017563,-0.00021067,0.00008191,-0.00155118,0.00037237,0.00170688,0.0
 0030912,0.00197319,-0.00427846,0.00010595,-0.00164350,0.00124416,0.100
 70534,-0.10010002,-0.08798589,0.01034022,-0.00410060,-0.00154329,0.000
 71205,0.00154925,-0.00081249,-0.11005169,0.10005543,0.00003202,-0.0000
 3731,-0.00002921,0.00016566,-0.00000469,0.00003654,-0.00009356,-0.0000
 5510,0.00015788,-0.00000293,-0.00000590,-0.00000152,0.00009878,0.00002
 209,-0.00009032,-0.00019869,-0.00018512,0.00101919,0.00001501,0.000047
 55,-0.00000784,-0.00305675,-0.00164520,0.00000656,-0.00031226,0.000146
 67,0.00006743,-0.00631260,0.00680172,0.00802109,-0.00137475,-0.0046987
 6,-0.00336330,0.00101758,0.00083428,-0.00065087,0.10781203,-0.08715409
 ,-0.13432602,0.02018699,-0.00708958,-0.00589720,0.00106510,-0.00102628
 ,0.00056759,-0.11883134,0.09249159,0.13490967,0.00000786,0.00001351,-0
 .00005910,-0.00002212,-0.00002448,0.00033626,0.00002435,0.00001269,-0.
 00007599,0.00000111,-0.00001479,-0.00001024,-0.00006120,0.00000736,0.0
 0009402,-0.00078929,0.00009936,-0.00117637,-0.00008189,0.00002506,-0.0
 0005391,-0.00095545,0.00260482,0.00354028,0.00003291,-0.00000984,-0.00
 000689,0.00098665,0.00080983,0.00040912,-0.01945414,-0.00611042,-0.015
 71206,0.00045357,0.00008253,-0.00001911,0.00517240,0.00021833,0.001319
 68,-0.26332307,-0.03477553,-0.13122449,0.00023790,-0.00029237,0.000215
 16,-0.00020059,-0.00063635,-0.00021031,0.27797101,-0.00027270,0.000126
 52,-0.00004573,0.00034641,-0.00027740,-0.00010834,0.00065224,0.0000438
 8,-0.00007657,-0.00002264,0.00007716,0.00003949,-0.00042218,-0.0000565
 7,0.00019302,0.00032001,0.00213175,-0.00015884,-0.00011993,-0.00039130
 ,0.00004603,0.00256177,0.00039488,-0.00314723,-0.00001348,0.00005983,0
 .00007866,-0.00026403,0.00189192,-0.00427080,0.01192382,0.00185681,0.0
 0974876,-0.00049921,0.00086620,-0.00043765,-0.01151904,0.00302270,-0.0
 0213314,-0.03974327,-0.04478833,-0.04333900,-0.00085591,-0.00111424,0.
 00126627,-0.00006215,-0.00196988,0.00155813,0.03799030,0.03812607,-0.0
 0000977,-0.00001403,0.00015068,0.00013410,0.00007201,-0.00029924,0.000
 03071,-0.00018050,-0.00017141,0.00001097,-0.00001797,-0.00000172,-0.00
 003118,0.00011208,0.00009661,0.00038121,-0.00085011,0.00127162,0.00014
 131,0.00016106,0.00002695,0.00209620,-0.00240222,-0.00081990,-0.000036
 18,-0.00002875,-0.00004453,-0.00058394,-0.00447754,-0.00297138,0.01451
 706,0.00459340,0.01029161,-0.00129485,-0.00010908,0.00022069,-0.019093
 33,0.00108879,-0.00195483,-0.13928454,-0.04127628,-0.13809679,-0.00045
 134,0.00116211,-0.00020629,0.00083963,0.00138009,-0.00041967,0.1426339
 5,0.04078694,0.13292759\\0.00205709,-0.00037452,0.00001135,-0.00204858
 ,-0.00028187,-0.00000890,-0.00000962,0.00063847,0.00001188,-0.00000211
 ,-0.00000283,-0.00000407,0.00000059,0.00002581,-0.00001047,-0.00000150
 ,-0.00004265,0.00001306,0.00000135,0.00000183,0.00000053,0.00000252,0.
 00006057,-0.00003127,0.00000296,0.00000652,-0.00000059,-0.00000389,-0.
 00004265,0.00002471,0.00000748,0.00001493,-0.00001045,0.00000467,0.000
 01431,-0.00001060,-0.00000379,-0.00000497,0.00000104,-0.00000421,-0.00
 000372,0.00000747,-0.00000354,-0.00001334,0.00000821,0.00000133,0.0000
 0704,-0.00000405,-0.00000075,-0.00000292,0.00000216\\\@


    THE DOUGHNUT CREED
 AS YOU RAMBLE ON THROUGH LIFE, BROTHER
 WHATEVER BE YOUR GOAL
 KEEP YOUR EYE UPON THE DOUGHNUT
 AND NOT UPON THE HOLE.
 Job cpu time:       0 days  2 hours  1 minutes  4.2 seconds.
 Elapsed time:       0 days  0 hours 10 minutes  6.1 seconds.
 File lengths (MBytes):  RWF=    182 Int=      0 D2E=      0 Chk=     32 Scr=      1
 Normal termination of Gaussian 16 at Fri Jun 10 04:49:58 2022.
