 Entering Gaussian System, Link 0=g16
 Input=int_zmat_field_N100.gjf
 Output=int_zmat_field_N100.out
 Initial command:
 /software/gaussian/g16-a03/l1.exe "/local_scratch/11174657/Gau-13608.inp" -scrdir="/local_scratch/11174657/"
 Entering Link 1 = /software/gaussian/g16-a03/l1.exe PID=     13609.
  
 Copyright (c) 1988,1990,1992,1993,1995,1998,2003,2009,2016,
            Gaussian, Inc.  All Rights Reserved.
  
 This is part of the Gaussian(R) 16 program.  It is based on
 the Gaussian(R) 09 system (copyright 2009, Gaussian, Inc.),
 the Gaussian(R) 03 system (copyright 2003, Gaussian, Inc.),
 the Gaussian(R) 98 system (copyright 1998, Gaussian, Inc.),
 the Gaussian(R) 94 system (copyright 1995, Gaussian, Inc.),
 the Gaussian 92(TM) system (copyright 1992, Gaussian, Inc.),
 the Gaussian 90(TM) system (copyright 1990, Gaussian, Inc.),
 the Gaussian 88(TM) system (copyright 1988, Gaussian, Inc.),
 the Gaussian 86(TM) system (copyright 1986, Carnegie Mellon
 University), and the Gaussian 82(TM) system (copyright 1983,
 Carnegie Mellon University). Gaussian is a federally registered
 trademark of Gaussian, Inc.
  
 This software contains proprietary and confidential information,
 including trade secrets, belonging to Gaussian, Inc.
  
 This software is provided under written license and may be
 used, copied, transmitted, or stored only in accord with that
 written license.
  
 The following legend is applicable only to US Government
 contracts under FAR:
  
                    RESTRICTED RIGHTS LEGEND
  
 Use, reproduction and disclosure by the US Government is
 subject to restrictions as set forth in subparagraphs (a)
 and (c) of the Commercial Computer Software - Restricted
 Rights clause in FAR 52.227-19.
  
 Gaussian, Inc.
 340 Quinnipiac St., Bldg. 40, Wallingford CT 06492
  
  
 ---------------------------------------------------------------
 Warning -- This program may not be used in any manner that
 competes with the business of Gaussian, Inc. or will provide
 assistance to any competitor of Gaussian, Inc.  The licensee
 of this program is prohibited from giving any competitor of
 Gaussian, Inc. access to this program.  By using this program,
 the user acknowledges that Gaussian, Inc. is engaged in the
 business of creating and licensing software in the field of
 computational chemistry and represents and warrants to the
 licensee that it is not a competitor of Gaussian, Inc. and that
 it will not use this program in any manner prohibited above.
 ---------------------------------------------------------------
  

 Cite this work as:
 Gaussian 16, Revision A.03,
 M. J. Frisch, G. W. Trucks, H. B. Schlegel, G. E. Scuseria, 
 M. A. Robb, J. R. Cheeseman, G. Scalmani, V. Barone, 
 G. A. Petersson, H. Nakatsuji, X. Li, M. Caricato, A. V. Marenich, 
 J. Bloino, B. G. Janesko, R. Gomperts, B. Mennucci, H. P. Hratchian, 
 J. V. Ortiz, A. F. Izmaylov, J. L. Sonnenberg, D. Williams-Young, 
 F. Ding, F. Lipparini, F. Egidi, J. Goings, B. Peng, A. Petrone, 
 T. Henderson, D. Ranasinghe, V. G. Zakrzewski, J. Gao, N. Rega, 
 G. Zheng, W. Liang, M. Hada, M. Ehara, K. Toyota, R. Fukuda, 
 J. Hasegawa, M. Ishida, T. Nakajima, Y. Honda, O. Kitao, H. Nakai, 
 T. Vreven, K. Throssell, J. A. Montgomery, Jr., J. E. Peralta, 
 F. Ogliaro, M. J. Bearpark, J. J. Heyd, E. N. Brothers, K. N. Kudin, 
 V. N. Staroverov, T. A. Keith, R. Kobayashi, J. Normand, 
 K. Raghavachari, A. P. Rendell, J. C. Burant, S. S. Iyengar, 
 J. Tomasi, M. Cossi, J. M. Millam, M. Klene, C. Adamo, R. Cammi, 
 J. W. Ochterski, R. L. Martin, K. Morokuma, O. Farkas, 
 J. B. Foresman, and D. J. Fox, Gaussian, Inc., Wallingford CT, 2016.
 
 ******************************************
 Gaussian 16:  ES64L-G16RevA.03 25-Dec-2016
                11-Jun-2022 
 ******************************************
 %nprocshared=12
 Will use up to   12 processors via shared memory.
 %chk=checkpoint.chk
 %mem=12GB
 ----------------------------------------------------------------------
 # Opt=(Z-matrix, MaxStep=10) B3LYP/Def2TZVP geom=allcheckpoint guess=r
 ead Field=read NoSymm freq=noraman pop=none
 ----------------------------------------------------------------------
 1/8=10,10=7,18=40,26=3,29=7,38=1/1,3;
 2/12=2,15=1,29=3,40=1/2;
 3/5=44,7=101,11=2,14=-6,25=1,30=1,71=1,74=-5,116=-2/1,2,3;
 4/5=1/1;
 5/5=2,38=6/2;
 7/29=1,30=1/1,2,3,16;
 1/8=10,10=7,18=40,26=3/3(2);
 2/15=1,29=3/2;
 99//99;
 2/15=1,29=3/2;
 3/5=44,7=101,11=2,14=-2,25=1,30=1,71=1,74=-5/1,2,3;
 4/5=5,16=3,69=1/1;
 5/5=2,38=5/2;
 7/30=1/1,2,3,16;
 1/8=10,18=40,26=3/3(-5);
 2/15=1,29=3/2;
 99/9=1/99;
 Structure from the checkpoint file:  "checkpoint.chk"
 ------------------
 int_zmat_initalOpt
 ------------------
 Charge =  0 Multiplicity = 1
 Z-Matrix found in chk file.
 H
 C,1,R2
 C,2,R3,1,A3
 C,2,R4,1,A4,3,D4,0
 H,3,R5,2,A5,1,D5,0
 C,3,R6,2,A6,5,D6,0
 C,4,R7,2,A7,1,D7,0
 H,4,R8,2,A8,7,D8,0
 C,6,R9,3,A9,2,D9,0
 C,6,R10,3,A10,9,D10,0
 H,7,R11,4,A11,2,D11,0
 H,9,R12,6,A12,3,D12,0
 C,9,R13,6,A13,12,D13,0
 H,9,R14,6,A14,12,D14,0
 H,13,R15,9,A15,6,D15,0
 H,13,R16,9,A16,15,D16,0
      Variables:
 R2=1.0824446
 R3=1.39839362
 R4=1.39732122
 R5=1.08320975
 R6=1.38275707
 R7=1.39832434
 R8=1.08244738
 R9=1.5202068
 R10=1.38878709
 R11=1.08320625
 R12=1.09324905
 R13=1.579678
 R14=1.0932501
 R15=1.09324792
 R16=1.09324487
 A3=119.54754696
 A4=118.73238116
 A5=120.64590813
 A6=115.94413989
 A7=121.72654421
 A8=118.77932126
 A9=144.07065043
 A10=122.33423215
 A11=120.6390172
 A12=115.76633947
 A13=86.40074698
 A14=115.76743966
 A15=114.54858174
 A16=114.55177159
 D4=179.98570877
 D5=-0.01228879
 D6=179.99586327
 D7=-179.98540034
 D8=-180.000884
 D9=-179.99478108
 D10=179.98841562
 D11=-180.00515228
 D12=-64.42714911
 D13=-115.57484087
 D14=128.84804024
 D15=-116.74770722
 D16=-126.52009456
 Recover connectivity data from disk.

 GradGradGradGradGradGradGradGradGradGradGradGradGradGradGradGradGradGrad
 Berny optimization.
 Initialization pass.
                       ----------------------------
                       !    Initial Parameters    !
                       ! (Angstroms and Degrees)  !
 ----------------------                            ----------------------
 !      Name          Value   Derivative information (Atomic Units)     !
 ------------------------------------------------------------------------
 !       R2          1.0824   estimate D2E/DX2                          !
 !       R3          1.3984   estimate D2E/DX2                          !
 !       R4          1.3973   estimate D2E/DX2                          !
 !       R5          1.0832   estimate D2E/DX2                          !
 !       R6          1.3828   estimate D2E/DX2                          !
 !       R7          1.3983   estimate D2E/DX2                          !
 !       R8          1.0824   estimate D2E/DX2                          !
 !       R9          1.5202   estimate D2E/DX2                          !
 !       R10         1.3888   estimate D2E/DX2                          !
 !       R11         1.0832   estimate D2E/DX2                          !
 !       R12         1.0932   estimate D2E/DX2                          !
 !       R13         1.5797   estimate D2E/DX2                          !
 !       R14         1.0933   estimate D2E/DX2                          !
 !       R15         1.0932   estimate D2E/DX2                          !
 !       R16         1.0932   estimate D2E/DX2                          !
 !       A3        119.5475   estimate D2E/DX2                          !
 !       A4        118.7324   estimate D2E/DX2                          !
 !       A5        120.6459   estimate D2E/DX2                          !
 !       A6        115.9441   estimate D2E/DX2                          !
 !       A7        121.7265   estimate D2E/DX2                          !
 !       A8        118.7793   estimate D2E/DX2                          !
 !       A9        144.0707   estimate D2E/DX2                          !
 !       A10       122.3342   estimate D2E/DX2                          !
 !       A11       120.639    estimate D2E/DX2                          !
 !       A12       115.7663   estimate D2E/DX2                          !
 !       A13        86.4007   estimate D2E/DX2                          !
 !       A14       115.7674   estimate D2E/DX2                          !
 !       A15       114.5486   estimate D2E/DX2                          !
 !       A16       114.5518   estimate D2E/DX2                          !
 !       D4        179.9857   estimate D2E/DX2                          !
 !       D5         -0.0123   estimate D2E/DX2                          !
 !       D6        179.9959   estimate D2E/DX2                          !
 !       D7       -179.9854   estimate D2E/DX2                          !
 !       D8       -180.0009   estimate D2E/DX2                          !
 !       D9       -179.9948   estimate D2E/DX2                          !
 !       D10       179.9884   estimate D2E/DX2                          !
 !       D11      -180.0052   estimate D2E/DX2                          !
 !       D12       -64.4271   estimate D2E/DX2                          !
 !       D13      -115.5748   estimate D2E/DX2                          !
 !       D14       128.848    estimate D2E/DX2                          !
 !       D15      -116.7477   estimate D2E/DX2                          !
 !       D16      -126.5201   estimate D2E/DX2                          !
 ------------------------------------------------------------------------
 Trust Radius=1.00D-01 FncErr=1.00D-07 GrdErr=1.00D-06 EigMax=2.50D+02 EigMin=1.00D-04
 Number of steps in this run=     52 maximum allowed number of steps=    100.
 GradGradGradGradGradGradGradGradGradGradGradGradGradGradGradGradGradGrad

 ---------------------------------------------------------------------------------------------------
                            Z-MATRIX (ANGSTROMS AND DEGREES)
   CD    Cent   Atom    N1       Length/X        N2       Alpha/Y        N3        Beta/Z          J
 ---------------------------------------------------------------------------------------------------
      1      1  H 
      2      2  C        1   1.082445(     1)
      3      3  C        2   1.398394(     2)      1  119.548(    16)
      4      4  C        2   1.397321(     3)      1  118.732(    17)      3  179.986(    30)      0
      5      5  H        3   1.083210(     4)      2  120.646(    18)      1   -0.012(    31)      0
      6      6  C        3   1.382757(     5)      2  115.944(    19)      5  179.996(    32)      0
      7      7  C        4   1.398324(     6)      2  121.727(    20)      1 -179.985(    33)      0
      8      8  H        4   1.082447(     7)      2  118.779(    21)      7 -180.001(    34)      0
      9      9  C        6   1.520207(     8)      3  144.071(    22)      2 -179.995(    35)      0
     10     10  C        6   1.388787(     9)      3  122.334(    23)      9  179.988(    36)      0
     11     11  H        7   1.083206(    10)      4  120.639(    24)      2 -180.005(    37)      0
     12     12  H        9   1.093249(    11)      6  115.766(    25)      3  -64.427(    38)      0
     13     13  C        9   1.579678(    12)      6   86.401(    26)     12 -115.575(    39)      0
     14     14  H        9   1.093250(    13)      6  115.767(    27)     12  128.848(    40)      0
     15     15  H       13   1.093248(    14)      9  114.549(    28)      6 -116.748(    41)      0
     16     16  H       13   1.093245(    15)      9  114.552(    29)     15 -126.520(    42)      0
 ---------------------------------------------------------------------------------------------------
                         Z-Matrix orientation:                         
 ---------------------------------------------------------------------
 Center     Atomic      Atomic             Coordinates (Angstroms)
 Number     Number       Type             X           Y           Z
 ---------------------------------------------------------------------
      1          1           0        0.000000    0.000000    0.000000
      2          6           0        0.000000    0.000000    1.082445
      3          6           0        1.216528    0.000000    1.772056
      4          6           0       -1.225275    0.000306    1.754164
      5          1           0        2.156438   -0.000200    1.233622
      6          6           0        1.129622    0.000356    3.152080
      7          6           0       -1.298316    0.000627    3.150579
      8          1           0       -2.138321    0.000306    1.172752
      9          6           0        1.942530    0.000643    4.436684
     10          6           0       -0.088188    0.000825    3.819663
     11          1           0       -2.257864    0.000945    3.653176
     12          1           0        2.555736   -0.887446    4.611239
     13          6           0        0.557275    0.000962    5.195928
     14          1           0        2.555915    0.888705    4.610752
     15          1           0        0.374152    0.889165    5.806462
     16          1           0        0.373841   -0.886974    5.806752
 ---------------------------------------------------------------------
                    Distance matrix (angstroms):
                    1          2          3          4          5
     1  H    0.000000
     2  C    1.082445   0.000000
     3  C    2.149447   1.398394   0.000000
     4  C    2.139717   1.397321   2.441869   0.000000
     5  H    2.484361   2.161731   1.083210   3.421543   0.000000
     6  C    3.348380   2.357845   1.382757   2.738560   2.175967
     7  C    3.407605   2.441885   2.867885   1.398324   3.950956
     8  H    2.438804   2.140227   3.407958   1.082447   4.295191
     9  C    4.843304   3.876125   2.761761   4.151013   3.210197
    10  C    3.820681   2.738639   2.427958   2.357807   3.424319
    11  H    4.294606   3.421492   3.950950   2.161593   5.033916
    12  H    5.346295   4.446542   3.262207   4.821518   3.514960
    13  C    5.225727   4.151061   3.486763   3.875981   4.272844
    14  H    5.346170   4.446510   3.262200   4.821489   3.514932
    15  H    5.886052   4.821509   4.216236   4.446275   4.987824
    16  H    5.885988   4.821366   4.216114   4.446112   4.987740
                    6          7          8          9         10
     6  C    0.000000
     7  C    2.427938   0.000000
     8  H    3.820627   2.148816   0.000000
     9  C    1.520207   3.486710   5.225572   0.000000
    10  C    1.388787   1.382781   3.348012   2.122388   0.000000
    11  H    3.424348   1.083206   2.483303   4.272844   2.176054
    12  H    2.225116   4.216150   5.886041   1.093249   2.899303
    13  C    2.122475   2.761643   4.842746   1.579678   1.520108
    14  H    2.225130   4.216146   5.885997   1.093250   2.899213
    15  H    2.899390   3.261957   5.345453   2.263973   2.224922
    16  H    2.899284   3.261779   5.345296   2.264009   2.224901
                   11         12         13         14         15
    11  H    0.000000
    12  H    4.987772   0.000000
    13  C    3.210154   2.263841   0.000000
    14  H    4.987739   1.776151   2.263865   0.000000
    15  H    3.514696   3.056831   1.093248   2.487934   0.000000
    16  H    3.514565   2.487955   1.093245   3.056943   1.776139
                   16
    16  H    0.000000
 Symmetry turned off by external request.
 Stoichiometry    C8H8
 Framework group  C1[X(C8H8)]
 Deg. of freedom    42
 Full point group                 C1      NOp   1
 Rotational constants (GHZ):           4.4806110           2.0913918           1.4519010
 Standard basis: def2TZVP (5D, 7F)
 The following finite field(s) will be applied:
 An electric field of              0.0048 -0.0000  0.0088
   296 basis functions,   472 primitive gaussians,   336 cartesian basis functions
    28 alpha electrons       28 beta electrons
       nuclear repulsion energy       333.0609091339 Hartrees.
 NAtoms=   16 NActive=   16 NUniq=   16 SFac= 1.00D+00 NAtFMM=   60 NAOKFM=F Big=F
 Integral buffers will be    131072 words long.
 Raffenetti 2 integral format.
 Two-electron integral symmetry is turned off.
 One-electron integrals computed using PRISM.
   1 Symmetry operations used in ECPInt.
 ECPInt:  NShTT=    7260 NPrTT=   21936 LenC2=    7147 LenP2D=   17609.
 LDataN:  DoStor=T MaxTD1= 6 Len=  172
 NBasis=   296 RedAO= T EigKep=  8.46D-06  NBF=   296
 NBsUse=   296 1.00D-06 EigRej= -1.00D+00 NBFU=   296
 The nuclear repulsion energy is now       336.0803229409 hartrees.
 Initial guess from the checkpoint file:  "checkpoint.chk"
 B after Tr=     0.000000    0.000000    0.000000
         Rot=    1.000000   -0.000000    0.000000   -0.000000 Ang=   0.00 deg.
 Requested convergence on RMS density matrix=1.00D-08 within 128 cycles.
 Requested convergence on MAX density matrix=1.00D-06.
 Requested convergence on             energy=1.00D-06.
 No special actions if energy rises.
 SCF Done:  E(RB3LYP) =  -309.746569999     A.U. after    9 cycles
            NFock=  9  Conv=0.76D-08     -V/T= 2.0054
   1 Symmetry operations used in ECPInt.
 ECPInt:  NShTT=    7260 NPrTT=   21936 LenC2=    7147 LenP2D=   17609.
 LDataN:  DoStor=T MaxTD1= 7 Len=  274
 Calling FoFJK, ICntrl=      2127 FMM=F ISym2X=0 I1Cent= 0 IOpClX= 0 NMat=1 NMatS=1 NMatT=0.
 -------------------------------------------------------------------
 Center     Atomic                   Forces (Hartrees/Bohr)
 Number     Number              X              Y              Z
 -------------------------------------------------------------------
      1        1          -0.000004639   -0.000011547    0.000047963
      2        6           0.000436094    0.000016590   -0.000214081
      3        6           0.000203023   -0.000000088   -0.000053160
      4        6          -0.000474649   -0.000005621    0.000325423
      5        1          -0.000129907   -0.000002377   -0.000172010
      6        6          -0.000683185    0.000021120    0.000264433
      7        6          -0.000109598    0.000023031    0.000206918
      8        1           0.000101250   -0.000000618   -0.000068721
      9        6          -0.000243180   -0.000013583   -0.000278404
     10        6           0.000536270   -0.000038681   -0.000481507
     11        1          -0.000066832   -0.000004068   -0.000191010
     12        1           0.000302477   -0.000377178    0.000148877
     13        6          -0.000131094    0.000017919   -0.000354860
     14        1           0.000298323    0.000376875    0.000148581
     15        1          -0.000019689    0.000372736    0.000336638
     16        1          -0.000014664   -0.000374509    0.000334919
 -------------------------------------------------------------------
 Cartesian Forces:  Max     0.000683185 RMS     0.000255131
 -----------------------------------------------------------------------------------------------
                       Internal Coordinate Forces (Hartree/Bohr or radian)
  Cent   Atom   N1       Length/X         N2         Alpha/Y        N3         Beta/Z          J
 -----------------------------------------------------------------------------------------------
      1  H 
      2  C        1  -0.000048(     1)
      3  C        2   0.000050(     2)      1  -0.001131(    16)
      4  C        2   0.000613(     3)      1  -0.001170(    17)      3  -0.000023(    30)     0
      5  H        3  -0.000027(     4)      2  -0.000438(    18)      1   0.000086(    31)     0
      6  C        3   0.000116(     5)      2   0.000294(    19)      5   0.000090(    32)     0
      7  C        4   0.000025(     6)      2   0.000873(    20)      1   0.000044(    33)     0
      8  H        4  -0.000048(     7)      2  -0.000230(    21)      7   0.000001(    34)     0
      9  C        6   0.000386(     8)      3  -0.000589(    22)      2   0.000064(    35)     0
     10  C        6  -0.000702(     9)      3  -0.000432(    23)      9   0.000085(    36)     0
     11  H        7  -0.000029(    10)      4  -0.000410(    24)      2   0.000007(    37)     0
     12  H        9   0.000500(    11)      6   0.000161(    25)      3  -0.000031(    38)     0
     13  C        9   0.000297(    12)      6   0.000785(    26)     12  -0.000037(    39)     0
     14  H        9   0.000497(    13)      6   0.000158(    27)     12   0.000013(    40)     0
     15  H       13   0.000494(    14)      9  -0.000059(    28)      6  -0.000000(    41)     0
     16  H       13   0.000494(    15)      9  -0.000071(    29)     15   0.000164(    42)     0
 -----------------------------------------------------------------------------------------------
 Internal  Forces:  Max     0.001169760 RMS     0.000416631

 GradGradGradGradGradGradGradGradGradGradGradGradGradGradGradGradGradGrad
 Berny optimization.
 Search for a local minimum.
 Step number   1 out of a maximum of   52
 All quantities printed in internal units (Hartrees-Bohrs-Radians)
 Second derivative matrix not updated -- first step.
 ITU=  0
     Eigenvalues ---   -0.22007  -0.03107   0.00934   0.02530   0.04041
     Eigenvalues ---    0.05370   0.06369   0.07547   0.09603   0.13244
     Eigenvalues ---    0.13763   0.14635   0.21355   0.22042   0.23942
     Eigenvalues ---    0.26993   0.28489   0.30174   0.32437   0.33628
     Eigenvalues ---    0.34439   0.34441   0.34442   0.34452   0.35480
     Eigenvalues ---    0.35610   0.35612   0.35700   0.35701   0.36073
     Eigenvalues ---    0.45910   0.46199   0.46436   0.48338   0.50936
     Eigenvalues ---    0.58216   1.01147   1.11215   2.73310   5.14434
     Eigenvalues ---    8.19357  38.33641
 RFO step:  Lambda=-2.20065148D-01 EMin=-2.20065145D-01
 I=     1 Eig=   -2.20D-01 Dot1= -1.62D-06
 I=     1 Stepn= -2.50D-01 RXN=   2.50D-01 EDone=F
 I=     2 Eig=   -3.11D-02 Dot1= -1.10D-06
 I=     2 Stepn= -1.25D-01 RXN=   2.80D-01 EDone=F
 Mixed    2 eigenvectors in step.  Raw Step.Grad=  2.72D-06.
 RFO eigenvector is Hessian eigenvector with negative curvature.
 Taking step of  2.80D-01 in eigenvector direction(s).  Step.Grad=  2.64D-04.
 Linear search not attempted -- first point.
 Maximum step size (   0.100) exceeded in Quadratic search.
    -- Step size scaled by   0.358
 Variable       Old X    -DE/DX   Delta X   Delta X   Delta X     New X
                                 (Linear)    (Quad)   (Total)
    R2        2.04552  -0.00005   0.00000  -0.00000  -0.00000   2.04552
    R3        2.64258   0.00005   0.00000  -0.00013  -0.00013   2.64245
    R4        2.64055   0.00061   0.00000   0.00008   0.00008   2.64063
    R5        2.04697  -0.00003   0.00000   0.00000   0.00000   2.04697
    R6        2.61303   0.00012   0.00000  -0.00021  -0.00021   2.61282
    R7        2.64245   0.00003   0.00000   0.00022   0.00022   2.64267
    R8        2.04553  -0.00005   0.00000  -0.00000  -0.00000   2.04553
    R9        2.87277   0.00039   0.00000  -0.00020  -0.00020   2.87257
   R10        2.62443  -0.00070   0.00000   0.00024   0.00024   2.62466
   R11        2.04696  -0.00003   0.00000  -0.00000  -0.00000   2.04696
   R12        2.06594   0.00050   0.00000  -0.00022  -0.00022   2.06572
   R13        2.98516   0.00030   0.00000  -0.00047  -0.00047   2.98469
   R14        2.06594   0.00050   0.00000   0.00023   0.00023   2.06617
   R15        2.06594   0.00049   0.00000  -0.00022  -0.00022   2.06572
   R16        2.06593   0.00049   0.00000   0.00023   0.00023   2.06617
    A3        2.08650  -0.00113   0.00000  -0.00126  -0.00126   2.08524
    A4        2.07227  -0.00117   0.00000   0.00125   0.00125   2.07352
    A5        2.10567  -0.00044   0.00000  -0.00012  -0.00012   2.10555
    A6        2.02361   0.00029   0.00000   0.00016   0.00016   2.02377
    A7        2.12453   0.00087   0.00000  -0.00012  -0.00012   2.12441
    A8        2.07309  -0.00023   0.00000   0.00003   0.00003   2.07312
    A9        2.51451  -0.00059   0.00000  -0.00019  -0.00019   2.51431
   A10        2.13514  -0.00043   0.00000   0.00005   0.00005   2.13519
   A11        2.10555  -0.00041   0.00000   0.00002   0.00002   2.10557
   A12        2.02050   0.00016   0.00000  -0.00643  -0.00643   2.01407
   A13        1.50798   0.00078   0.00000   0.00010   0.00010   1.50807
   A14        2.02052   0.00016   0.00000   0.00321   0.00321   2.02373
   A15        1.99925  -0.00006   0.00000  -0.01281  -0.01281   1.98644
   A16        1.99931  -0.00007   0.00000   0.00948   0.00948   2.00879
    D4        3.14134  -0.00002   0.00000  -0.02997  -0.02997   3.11137
    D5       -0.00021   0.00009   0.00000  -0.02455  -0.02455  -0.02476
    D6        3.14152   0.00009   0.00000  -0.00586  -0.00586   3.13566
    D7       -3.14134   0.00004   0.00000   0.03276   0.03276  -3.10858
    D8       -3.14161   0.00000   0.00000  -0.00134  -0.00134  -3.14295
    D9       -3.14150   0.00006   0.00000  -0.04775  -0.04775  -3.18926
   D10        3.14139   0.00009   0.00000   0.01840   0.01840   3.15979
   D11       -3.14168   0.00001   0.00000  -0.00564  -0.00564  -3.14732
   D12       -1.12447  -0.00003   0.00000  -0.04931  -0.04931  -1.17377
   D13       -2.01716  -0.00004   0.00000  -0.00542  -0.00542  -2.02258
   D14        2.24882   0.00001   0.00000  -0.01221  -0.01221   2.23662
   D15       -2.03763  -0.00000   0.00000   0.04063   0.04063  -1.99700
   D16       -2.20819   0.00016   0.00000   0.01299   0.01299  -2.19520
         Item               Value     Threshold  Converged?
 Maximum Force            0.001170     0.000450     NO 
 RMS     Force            0.000417     0.000300     NO 
 Maximum Displacement     0.049308     0.001800     NO 
 RMS     Displacement     0.015430     0.001200     NO 
 Predicted change in Energy=-9.123029D-04
 GradGradGradGradGradGradGradGradGradGradGradGradGradGradGradGradGradGrad

 ---------------------------------------------------------------------------------------------------
                            Z-MATRIX (ANGSTROMS AND DEGREES)
   CD    Cent   Atom    N1       Length/X        N2       Alpha/Y        N3        Beta/Z          J
 ---------------------------------------------------------------------------------------------------
      1      1  H 
      2      2  C        1   1.082445(     1)
      3      3  C        2   1.398323(     2)      1  119.475(    16)
      4      4  C        2   1.397363(     3)      1  118.804(    17)      3  178.268(    30)      0
      5      5  H        3   1.083211(     4)      2  120.639(    18)      1   -1.419(    31)      0
      6      6  C        3   1.382645(     5)      2  115.953(    19)      5  179.660(    32)      0
      7      7  C        4   1.398440(     6)      2  121.720(    20)      1 -178.108(    33)      0
      8      8  H        4   1.082446(     7)      2  118.781(    21)      7 -180.078(    34)      0
      9      9  C        6   1.520101(     8)      3  144.060(    22)      2 -182.731(    35)      0
     10     10  C        6   1.388911(     9)      3  122.337(    23)      9  181.043(    36)      0
     11     11  H        7   1.083205(    10)      4  120.640(    24)      2 -180.328(    37)      0
     12     12  H        9   1.093131(    11)      6  115.398(    25)      3  -67.252(    38)      0
     13     13  C        9   1.579428(    12)      6   86.406(    26)     12 -115.886(    39)      0
     14     14  H        9   1.093372(    13)      6  115.951(    27)     12  128.149(    40)      0
     15     15  H       13   1.093133(    14)      9  113.815(    28)      6 -114.420(    41)      0
     16     16  H       13   1.093369(    15)      9  115.095(    29)     15 -125.776(    42)      0
 ---------------------------------------------------------------------------------------------------
                         Z-Matrix orientation:                         
 ---------------------------------------------------------------------
 Center     Atomic      Atomic             Coordinates (Angstroms)
 Number     Number       Type             X           Y           Z
 ---------------------------------------------------------------------
      1          1           0        0.000000    0.000000    0.000000
      2          6           0        0.000000    0.000000    1.082445
      3          6           0        1.217334    0.000000    1.770489
      4          6           0       -1.223909    0.037001    1.755720
      5          1           0        2.156364   -0.023077    1.231011
      6          6           0        1.132682    0.038156    3.150013
      7          6           0       -1.294135    0.078407    3.151781
      8          1           0       -2.137963    0.034591    1.175901
      9          6           0        1.946116    0.017659    4.433996
     10          6           0       -0.082949    0.108971    3.818071
     11          1           0       -2.252465    0.112043    3.655571
     12          1           0        2.461638   -0.922345    4.647455
     13          6           0        0.572558    0.208366    5.190013
     14          1           0        2.658801    0.836897    4.562023
     15          1           0        0.486739    1.163125    5.715379
     16          1           0        0.312919   -0.591447    5.888829
 ---------------------------------------------------------------------
                    Distance matrix (angstroms):
                    1          2          3          4          5
     1  H    0.000000
     2  C    1.082445   0.000000
     3  C    2.148612   1.398323   0.000000
     4  C    2.140531   1.397363   2.441568   0.000000
     5  H    2.483108   2.161599   1.083211   3.421282   0.000000
     6  C    3.347687   2.357809   1.382645   2.738171   2.175831
     7  C    3.408028   2.441943   2.867331   1.398440   3.950392
     8  H    2.440251   2.140285   3.407749   1.082446   4.295068
     9  C    4.842313   3.875639   2.761468   4.150012   3.210136
    10  C    3.820526   2.739052   2.428004   2.358021   3.424155
    11  H    4.295271   3.421569   3.950392   2.161711   5.033341
    12  H    5.339403   4.429411   3.267407   4.781813   3.545978
    13  C    5.225656   4.152512   3.486015   3.879566   4.270328
    14  H    5.346183   4.458373   3.251290   4.857017   3.476728
    15  H    5.852806   4.801444   4.177175   4.457957   4.929937
    16  H    5.926723   4.852738   4.257758   4.454142   5.041488
                    6          7          8          9         10
     6  C    0.000000
     7  C    2.427151   0.000000
     8  H    3.820242   2.148970   0.000000
     9  C    1.520101   3.485253   5.224478   0.000000
    10  C    1.388911   1.382695   3.348086   2.122453   0.000000
    11  H    3.423488   1.083205   2.483521   4.271175   2.175596
    12  H    2.220590   4.164658   5.841554   1.093131   2.868173
    13  C    2.122336   2.766915   4.846671   1.579428   1.523743
    14  H    2.227286   4.264949   5.926084   1.093372   2.932667
    15  H    2.874701   3.304567   5.363722   2.254732   2.244006
    16  H    2.927376   3.243880   5.348873   2.270437   2.221562
                   11         12         13         14         15
    11  H    0.000000
    12  H    4.927125   0.000000
    13  C    3.216294   2.267488   0.000000
    14  H    5.046544   1.772317   2.267562   0.000000
    15  H    3.584804   3.064291   1.093133   2.480829   0.000000
    16  H    3.473260   2.503498   1.093369   3.050205   1.771672
                   16
    16  H    0.000000
 Symmetry turned off by external request.
 Stoichiometry    C8H8
 Framework group  C1[X(C8H8)]
 Deg. of freedom    42
 Full point group                 C1      NOp   1
 Rotational constants (GHZ):           4.4812529           2.0891917           1.4519425
 Standard basis: def2TZVP (5D, 7F)
 The following finite field(s) will be applied:
 An electric field of              0.0048 -0.0000  0.0088
   296 basis functions,   472 primitive gaussians,   336 cartesian basis functions
    28 alpha electrons       28 beta electrons
       nuclear repulsion energy       333.0025036313 Hartrees.
 NAtoms=   16 NActive=   16 NUniq=   16 SFac= 1.00D+00 NAtFMM=   60 NAOKFM=F Big=F
 Integral buffers will be    131072 words long.
 Raffenetti 2 integral format.
 Two-electron integral symmetry is turned off.
 One-electron integrals computed using PRISM.
   1 Symmetry operations used in ECPInt.
 ECPInt:  NShTT=    7260 NPrTT=   21936 LenC2=    7147 LenP2D=   17609.
 LDataN:  DoStor=T MaxTD1= 6 Len=  172
 NBasis=   296 RedAO= T EigKep=  8.83D-06  NBF=   296
 NBsUse=   296 1.00D-06 EigRej= -1.00D+00 NBFU=   296
 The nuclear repulsion energy is now       336.0229495821 hartrees.
 Initial guess from the checkpoint file:  "checkpoint.chk"
 B after Tr=    -0.008324   -0.128662    0.004139
         Rot=    0.999585    0.022911   -0.001114    0.017409 Ang=   3.30 deg.
 ExpMin= 9.52D-02 ExpMax= 1.36D+04 ExpMxC= 4.63D+02 IAcc=2 IRadAn=         4 AccDes= 0.00D+00
 Harris functional with IExCor=  402 and IRadAn=       4 diagonalized for initial guess.
 HarFok:  IExCor=  402 AccDes= 0.00D+00 IRadAn=         4 IDoV= 1 UseB2=F ITyADJ=14
 ICtDFT=  3500011 ScaDFX=  1.000000  1.000000  1.000000  1.000000
 FoFCou: FMM=F IPFlag=           0 FMFlag=      100000 FMFlg1=           0
         NFxFlg=           0 DoJE=T BraDBF=F KetDBF=T FulRan=T
         wScrn=  0.000000 ICntrl=       500 IOpCl=  0 I1Cent=   200000004 NGrid=           0
         NMat0=    1 NMatS0=      1 NMatT0=    0 NMatD0=    1 NMtDS0=    0 NMtDT0=    0
 Symmetry not used in FoFCou.
 Requested convergence on RMS density matrix=1.00D-08 within 128 cycles.
 Requested convergence on MAX density matrix=1.00D-06.
 Requested convergence on             energy=1.00D-06.
 No special actions if energy rises.
 Integral accuracy reduced to 1.0D-05 until final iterations.
 Initial convergence to 1.0D-05 achieved.  Increase integral accuracy.
 SCF Done:  E(RB3LYP) =  -309.745719621     A.U. after   10 cycles
            NFock= 10  Conv=0.99D-08     -V/T= 2.0054
   1 Symmetry operations used in ECPInt.
 ECPInt:  NShTT=    7260 NPrTT=   21936 LenC2=    7147 LenP2D=   17609.
 LDataN:  DoStor=T MaxTD1= 7 Len=  274
 Calling FoFJK, ICntrl=      2127 FMM=F ISym2X=0 I1Cent= 0 IOpClX= 0 NMat=1 NMatS=1 NMatT=0.
 -------------------------------------------------------------------
 Center     Atomic                   Forces (Hartrees/Bohr)
 Number     Number              X              Y              Z
 -------------------------------------------------------------------
      1        1          -0.000189447   -0.001166736    0.000044499
      2        6           0.000444890    0.003138741   -0.000244046
      3        6           0.000236540   -0.001436215    0.000048478
      4        6          -0.000350884   -0.002061282    0.000258521
      5        1          -0.000127248   -0.000719985   -0.000136467
      6        6          -0.000632442   -0.001980760    0.000346970
      7        6          -0.000321928    0.003653118    0.000394783
      8        1           0.000080797   -0.000294950   -0.000025560
      9        6           0.001085511    0.006042470   -0.001468476
     10        6           0.001476241    0.002770058    0.000757752
     11        1          -0.000097212    0.000307456   -0.000256926
     12        1          -0.001083400   -0.000698307    0.000197646
     13        6          -0.000495003   -0.008581889    0.000012028
     14        1           0.000756421    0.000643059    0.000712391
     15        1          -0.001733106    0.000933768   -0.002214628
     16        1           0.000950270   -0.000548546    0.001573034
 -------------------------------------------------------------------
 Cartesian Forces:  Max     0.008581889 RMS     0.001918947
 -----------------------------------------------------------------------------------------------
                       Internal Coordinate Forces (Hartree/Bohr or radian)
  Cent   Atom   N1       Length/X         N2         Alpha/Y        N3         Beta/Z          J
 -----------------------------------------------------------------------------------------------
      1  H 
      2  C        1  -0.000044(     1)
      3  C        2   0.000293(     2)      1  -0.001414(    16)
      4  C        2   0.000825(     3)      1  -0.002192(    17)      3  -0.004196(    30)     0
      5  H        3  -0.000027(     4)      2  -0.000391(    18)      1   0.015498(    31)     0
      6  C        3  -0.000142(     5)      2  -0.000109(    19)      5   0.016763(    32)     0
      7  C        4   0.000276(     6)      2   0.001768(    20)      1   0.009392(    33)     0
      8  H        4  -0.000054(     7)      2  -0.000152(    21)      7   0.000525(    34)     0
      9  C        6  -0.001252(     8)      3   0.004119(    22)      2   0.013001(    35)     0
     10  C        6  -0.000786(     9)      3   0.003612(    23)      9  -0.006239(    36)     0
     11  H        7  -0.000024(    10)      4  -0.000548(    24)      2  -0.000551(    37)     0
     12  H        9   0.000128(    11)      6  -0.001048(    25)      3   0.023018(    38)     0
     13  C        9  -0.000180(    12)      6  -0.004354(    26)     12   0.024987(    39)     0
     14  H        9   0.001058(    13)      6   0.001229(    27)     12   0.000260(    40)     0
     15  H       13  -0.000113(    14)      9   0.001367(    28)      6   0.007953(    41)     0
     16  H       13   0.001181(    15)      9  -0.001461(    29)     15   0.002499(    42)     0
 -----------------------------------------------------------------------------------------------
 Internal  Forces:  Max     0.024987175 RMS     0.007122921

 GradGradGradGradGradGradGradGradGradGradGradGradGradGradGradGradGradGrad
 Berny optimization.
 Search for a local minimum.
 Step number   2 out of a maximum of   52
 All quantities printed in internal units (Hartrees-Bohrs-Radians)
 Update second derivatives using D2CorN and points    2    1
 ITU=  0  0
     Eigenvalues ---   -0.07114   0.00900   0.02258   0.03820   0.05297
     Eigenvalues ---    0.06366   0.06942   0.08667   0.13227   0.13317
     Eigenvalues ---    0.13766   0.15951   0.21358   0.22043   0.23943
     Eigenvalues ---    0.27003   0.28492   0.30531   0.32467   0.33636
     Eigenvalues ---    0.34439   0.34441   0.34451   0.34460   0.35503
     Eigenvalues ---    0.35610   0.35613   0.35700   0.35701   0.36094
     Eigenvalues ---    0.45910   0.46199   0.46436   0.48338   0.50936
     Eigenvalues ---    0.58216   1.05518   1.11242   2.73315   5.14485
     Eigenvalues ---    8.19375  38.33641
 RFO step:  Lambda=-7.11414038D-02 EMin=-7.11413995D-02
 I=     1 Eig=   -7.11D-02 Dot1= -1.94D-06
 I=     1 Stepn= -2.50D-01 RXN=   2.50D-01 EDone=F
 Mixed    1 eigenvectors in step.  Raw Step.Grad=  1.94D-06.
 RFO eigenvector is Hessian eigenvector with negative curvature.
 Taking step of  2.50D-01 in eigenvector direction(s).  Step.Grad= -7.63D-05.
 Quartic linear search produced a step of -0.99942.
 Maximum step size (   0.100) exceeded in Quadratic search.
    -- Step size scaled by   0.400
 Variable       Old X    -DE/DX   Delta X   Delta X   Delta X     New X
                                 (Linear)    (Quad)   (Total)
    R2        2.04552  -0.00004   0.00000  -0.00000  -0.00000   2.04552
    R3        2.64245   0.00029   0.00013  -0.00003   0.00010   2.64255
    R4        2.64063   0.00082  -0.00008   0.00001  -0.00007   2.64056
    R5        2.04697  -0.00003  -0.00000   0.00000  -0.00000   2.04697
    R6        2.61282  -0.00014   0.00021  -0.00001   0.00020   2.61302
    R7        2.64267   0.00028  -0.00022   0.00001  -0.00021   2.64246
    R8        2.04553  -0.00005   0.00000  -0.00000   0.00000   2.04553
    R9        2.87257  -0.00125   0.00020  -0.00007   0.00013   2.87270
   R10        2.62466  -0.00079  -0.00023  -0.00013  -0.00037   2.62429
   R11        2.04696  -0.00002   0.00000  -0.00000  -0.00000   2.04696
   R12        2.06572   0.00013   0.00022  -0.00016   0.00007   2.06578
   R13        2.98469  -0.00018   0.00047   0.00023   0.00070   2.98539
   R14        2.06617   0.00106  -0.00023   0.00013  -0.00010   2.06607
   R15        2.06572  -0.00011   0.00022   0.00033   0.00055   2.06627
   R16        2.06617   0.00118  -0.00023  -0.00035  -0.00059   2.06558
    A3        2.08524  -0.00141   0.00126  -0.00041   0.00085   2.08609
    A4        2.07352  -0.00219  -0.00125   0.00045  -0.00080   2.07273
    A5        2.10555  -0.00039   0.00012  -0.00007   0.00004   2.10559
    A6        2.02377  -0.00011  -0.00016   0.00005  -0.00011   2.02365
    A7        2.12441   0.00177   0.00012  -0.00004   0.00007   2.12449
    A8        2.07312  -0.00015  -0.00003   0.00001  -0.00002   2.07310
    A9        2.51431   0.00412   0.00019   0.00002   0.00022   2.51453
   A10        2.13519   0.00361  -0.00005   0.00001  -0.00004   2.13515
   A11        2.10557  -0.00055  -0.00002   0.00003   0.00001   2.10558
   A12        2.01407  -0.00105   0.00643  -0.01733  -0.01090   2.00317
   A13        1.50807  -0.00435  -0.00010   0.00015   0.00005   1.50813
   A14        2.02373   0.00123  -0.00320   0.01762   0.01442   2.03815
   A15        1.98644   0.00137   0.01280   0.00397   0.01677   2.00322
   A16        2.00879  -0.00146  -0.00948  -0.00255  -0.01203   1.99676
    D4        3.11137  -0.00420   0.02996   0.01729   0.04725   3.15862
    D5       -0.02476   0.01550   0.02453   0.03494   0.05947   0.03471
    D6        3.13566   0.01676   0.00586   0.04467   0.05053   3.18619
    D7       -3.10858   0.00939  -0.03274  -0.03577  -0.06851  -3.17709
    D8       -3.14295   0.00053   0.00134   0.00098   0.00232  -3.14063
    D9       -3.18926   0.01300   0.04773  -0.06086  -0.01314  -3.20239
   D10        3.15979  -0.00624  -0.01839   0.01235  -0.00604   3.15375
   D11       -3.14732  -0.00055   0.00564  -0.00238   0.00326  -3.14407
   D12       -1.17377   0.02302   0.04928   0.01006   0.05934  -1.11443
   D13       -2.02258   0.02499   0.00542   0.01180   0.01722  -2.00537
   D14        2.23662   0.00026   0.01220   0.00307   0.01527   2.25189
   D15       -1.99700   0.00795  -0.04061  -0.02041  -0.06102  -2.05802
   D16       -2.19520   0.00250  -0.01298  -0.00643  -0.01941  -2.21461
         Item               Value     Threshold  Converged?
 Maximum Force            0.024987     0.000450     NO 
 RMS     Force            0.007123     0.000300     NO 
 Maximum Displacement     0.068509     0.001800     NO 
 RMS     Displacement     0.022964     0.001200     NO 
 Predicted change in Energy=-8.529851D-04
 GradGradGradGradGradGradGradGradGradGradGradGradGradGradGradGradGradGrad

 ---------------------------------------------------------------------------------------------------
                            Z-MATRIX (ANGSTROMS AND DEGREES)
   CD    Cent   Atom    N1       Length/X        N2       Alpha/Y        N3        Beta/Z          J
 ---------------------------------------------------------------------------------------------------
      1      1  H 
      2      2  C        1   1.082444(     1)
      3      3  C        2   1.398377(     2)      1  119.524(    16)
      4      4  C        2   1.397326(     3)      1  118.758(    17)      3  180.975(    30)      0
      5      5  H        3   1.083210(     4)      2  120.642(    18)      1    1.989(    31)      0
      6      6  C        3   1.382752(     5)      2  115.947(    19)      5  182.555(    32)      0
      7      7  C        4   1.398330(     6)      2  121.724(    20)      1 -182.034(    33)      0
      8      8  H        4   1.082447(     7)      2  118.780(    21)      7 -179.945(    34)      0
      9      9  C        6   1.520167(     8)      3  144.072(    22)      2 -183.484(    35)      0
     10     10  C        6   1.388717(     9)      3  122.335(    23)      9  180.697(    36)      0
     11     11  H        7   1.083205(    10)      4  120.641(    24)      2 -180.142(    37)      0
     12     12  H        9   1.093166(    11)      6  114.773(    25)      3  -63.852(    38)      0
     13     13  C        9   1.579800(    12)      6   86.409(    26)     12 -114.899(    39)      0
     14     14  H        9   1.093318(    13)      6  116.777(    27)     12  129.024(    40)      0
     15     15  H       13   1.093424(    14)      9  114.776(    28)      6 -117.916(    41)      0
     16     16  H       13   1.093059(    15)      9  114.406(    29)     15 -126.888(    42)      0
 ---------------------------------------------------------------------------------------------------
                         Z-Matrix orientation:                         
 ---------------------------------------------------------------------
 Center     Atomic      Atomic             Coordinates (Angstroms)
 Number     Number       Type             X           Y           Z
 ---------------------------------------------------------------------
      1          1           0        0.000000    0.000000    0.000000
      2          6           0        0.000000    0.000000    1.082444
      3          6           0        1.216796    0.000000    1.771550
      4          6           0       -1.224796   -0.020855    1.754722
      5          1           0        2.156170    0.032341    1.233149
      6          6           0        1.132447   -0.098501    3.148207
      7          6           0       -1.296775   -0.064295    3.150523
      8          1           0       -2.138266   -0.003648    1.174231
      9          6           0        1.947472   -0.209357    4.426626
     10          6           0       -0.084001   -0.135163    3.817121
     11          1           0       -2.255921   -0.077596    3.653707
     12          1           0        2.542893   -1.122101    4.512563
     13          6           0        0.563499   -0.269143    5.186107
     14          1           0        2.576581    0.646541    4.685477
     15          1           0        0.389054    0.552576    5.886053
     16          1           0        0.369254   -1.215668    5.697122
 ---------------------------------------------------------------------
                    Distance matrix (angstroms):
                    1          2          3          4          5
     1  H    0.000000
     2  C    1.082444   0.000000
     3  C    2.149182   1.398377   0.000000
     4  C    2.140003   1.397326   2.441740   0.000000
     5  H    2.484104   2.161672   1.083210   3.421374   0.000000
     6  C    3.347140   2.357862   1.382752   2.739420   2.175449
     7  C    3.407573   2.441865   2.867706   1.398330   3.950758
     8  H    2.439470   2.140238   3.407821   1.082447   4.294990
     9  C    4.840609   3.875568   2.761729   4.151854   3.209403
    10  C    3.820437   2.739303   2.427901   2.359655   3.423935
    11  H    4.294738   3.421490   3.950735   2.161616   5.033660
    12  H    5.299872   4.414876   3.245119   4.797282   3.498120
    13  C    5.223570   4.150906   3.486895   3.877377   4.272397
    14  H    5.386138   4.476453   3.279940   4.846155   3.531651
    15  H    5.924722   4.850914   4.233159   4.472274   5.004285
    16  H    5.837071   4.786382   4.195986   4.417136   4.967660
                    6          7          8          9         10
     6  C    0.000000
     7  C    2.429463   0.000000
     8  H    3.821405   2.148840   0.000000
     9  C    1.520167   3.489215   5.226245   0.000000
    10  C    1.388717   1.385712   3.349950   2.122235   0.000000
    11  H    3.425931   1.083205   2.483367   4.275895   2.178820
    12  H    2.213274   4.209176   5.857358   1.093166   2.891065
    13  C    2.122700   2.765174   4.844086   1.579800   1.520306
    14  H    2.236920   4.226613   5.914505   1.093318   2.905822
    15  H    2.910728   3.271953   5.375686   2.266967   2.230974
    16  H    2.885739   3.253687   5.311609   2.262210   2.215251
                   11         12         13         14         15
    11  H    0.000000
    12  H    4.985704   0.000000
    13  C    3.214665   2.258141   0.000000
    14  H    4.994197   1.777394   2.267511   0.000000
    15  H    3.518008   3.054512   1.093424   2.497096   0.000000
    16  H    3.516006   2.477225   1.093059   3.059990   1.778418
                   16
    16  H    0.000000
 Symmetry turned off by external request.
 Stoichiometry    C8H8
 Framework group  C1[X(C8H8)]
 Deg. of freedom    42
 Full point group                 C1      NOp   1
 Rotational constants (GHZ):           4.4784934           2.0903688           1.4517541
 Standard basis: def2TZVP (5D, 7F)
 The following finite field(s) will be applied:
 An electric field of              0.0048 -0.0000  0.0088
   296 basis functions,   472 primitive gaussians,   336 cartesian basis functions
    28 alpha electrons       28 beta electrons
       nuclear repulsion energy       333.0032191950 Hartrees.
 NAtoms=   16 NActive=   16 NUniq=   16 SFac= 1.00D+00 NAtFMM=   60 NAOKFM=F Big=F
 Integral buffers will be    131072 words long.
 Raffenetti 2 integral format.
 Two-electron integral symmetry is turned off.
 One-electron integrals computed using PRISM.
   1 Symmetry operations used in ECPInt.
 ECPInt:  NShTT=    7260 NPrTT=   21936 LenC2=    7149 LenP2D=   17607.
 LDataN:  DoStor=T MaxTD1= 6 Len=  172
 NBasis=   296 RedAO= T EigKep=  8.84D-06  NBF=   296
 NBsUse=   296 1.00D-06 EigRej= -1.00D+00 NBFU=   296
 The nuclear repulsion energy is now       336.0204558433 hartrees.
 Lowest energy guess from the checkpoint file:  "checkpoint.chk"
 B after Tr=    -0.002596    0.188301    0.006664
         Rot=    0.999445   -0.033085   -0.000764    0.003885 Ang=  -3.82 deg.
 B after Tr=     0.002489    0.316788    0.016933
         Rot=    0.998341   -0.055975    0.001034   -0.013447 Ang=  -6.60 deg.
 Requested convergence on RMS density matrix=1.00D-08 within 128 cycles.
 Requested convergence on MAX density matrix=1.00D-06.
 Requested convergence on             energy=1.00D-06.
 No special actions if energy rises.
 Integral accuracy reduced to 1.0D-05 until final iterations.
 Initial convergence to 1.0D-05 achieved.  Increase integral accuracy.
 SCF Done:  E(RB3LYP) =  -309.746108038     A.U. after   11 cycles
            NFock= 11  Conv=0.46D-08     -V/T= 2.0054
   1 Symmetry operations used in ECPInt.
 ECPInt:  NShTT=    7260 NPrTT=   21936 LenC2=    7149 LenP2D=   17607.
 LDataN:  DoStor=T MaxTD1= 7 Len=  274
 Calling FoFJK, ICntrl=      2127 FMM=F ISym2X=0 I1Cent= 0 IOpClX= 0 NMat=1 NMatS=1 NMatT=0.
 -------------------------------------------------------------------
 Center     Atomic                   Forces (Hartrees/Bohr)
 Number     Number              X              Y              Z
 -------------------------------------------------------------------
      1        1          -0.000059130    0.002025467    0.000041077
      2        6           0.000600597    0.000486031   -0.000165214
      3        6           0.000385039   -0.004088350   -0.000469229
      4        6          -0.000445730    0.000973405    0.000645338
      5        1          -0.000133127   -0.000132045   -0.000228248
      6        6          -0.001005020    0.003270258    0.000692706
      7        6           0.001743646   -0.003308448    0.001024935
      8        1           0.000082973    0.000073839   -0.000050369
      9        6          -0.000483710   -0.002533662   -0.000250845
     10        6          -0.001245126    0.001408695   -0.001719188
     11        1          -0.000012980   -0.000011087   -0.000152622
     12        1           0.001091014   -0.000021055    0.000739547
     13        6          -0.000597793    0.001037661   -0.000830972
     14        1          -0.000180055    0.000631272   -0.000491533
     15        1          -0.000080180    0.000292792    0.000347452
     16        1           0.000339583   -0.000104770    0.000867163
 -------------------------------------------------------------------
 Cartesian Forces:  Max     0.004088350 RMS     0.001203789
 -----------------------------------------------------------------------------------------------
                       Internal Coordinate Forces (Hartree/Bohr or radian)
  Cent   Atom   N1       Length/X         N2         Alpha/Y        N3         Beta/Z          J
 -----------------------------------------------------------------------------------------------
      1  H 
      2  C        1  -0.000041(     1)
      3  C        2  -0.002323(     2)      1   0.009467(    16)
      4  C        2  -0.000459(     3)      1   0.009152(    17)      3   0.005796(    30)     0
      5  H        3  -0.000006(     4)      2  -0.000536(    18)      1  -0.016469(    31)     0
      6  C        3  -0.000795(     5)      2  -0.010311(    19)      5  -0.016228(    32)     0
      7  C        4   0.000885(     6)      2  -0.004412(    20)      1  -0.007525(    33)     0
      8  H        4  -0.000042(     7)      2  -0.000182(    21)      7  -0.000130(    34)     0
      9  C        6   0.000419(     8)      3  -0.000504(    22)      2  -0.003347(    35)     0
     10  C        6   0.000225(     9)      3  -0.005766(    23)      9  -0.002815(    36)     0
     11  H        7  -0.000059(    10)      4  -0.000288(    24)      2   0.000028(    37)     0
     12  H        9   0.000670(    11)      6   0.002111(    25)      3  -0.002732(    38)     0
     13  C        9   0.000434(    12)      6   0.000941(    26)     12  -0.003909(    39)     0
     14  H        9   0.000274(    13)      6  -0.001572(    27)     12   0.000248(    40)     0
     15  H       13   0.000455(    14)      9   0.000081(    28)      6   0.001436(    41)     0
     16  H       13   0.000436(    15)      9  -0.000129(    29)     15   0.001556(    42)     0
 -----------------------------------------------------------------------------------------------
 Internal  Forces:  Max     0.016468697 RMS     0.004929259

 GradGradGradGradGradGradGradGradGradGradGradGradGradGradGradGradGradGrad
 Berny optimization.
 Search for a local minimum.
 Step number   3 out of a maximum of   52
 All quantities printed in internal units (Hartrees-Bohrs-Radians)
 Update second derivatives using D2CorN and points    2    3    1
 ITU=  0  0  0
 Energy rises -- skip Quadratic search.
 Quartic linear search produced a step of -0.99940.
 Variable       Old X    -DE/DX   Delta X   Delta X   Delta X     New X
                                 (Linear)    (Quad)   (Total)
    R2        2.04552  -0.00004   0.00000   0.00000   0.00000   2.04552
    R3        2.64255  -0.00232   0.00003   0.00000   0.00003   2.64258
    R4        2.64056  -0.00046  -0.00001   0.00000  -0.00001   2.64055
    R5        2.04697  -0.00001  -0.00000   0.00000  -0.00000   2.04697
    R6        2.61302  -0.00079   0.00001   0.00000   0.00001   2.61303
    R7        2.64246   0.00088  -0.00001   0.00000  -0.00001   2.64245
    R8        2.04553  -0.00004   0.00000   0.00000   0.00000   2.04553
    R9        2.87270   0.00042   0.00007   0.00000   0.00007   2.87277
   R10        2.62429   0.00023   0.00013   0.00000   0.00013   2.62443
   R11        2.04696  -0.00006   0.00000   0.00000   0.00000   2.04696
   R12        2.06578   0.00067   0.00016   0.00000   0.00016   2.06594
   R13        2.98539   0.00043  -0.00023   0.00000  -0.00023   2.98516
   R14        2.06607   0.00027  -0.00013   0.00000  -0.00013   2.06594
   R15        2.06627   0.00046  -0.00033   0.00000  -0.00033   2.06594
   R16        2.06558   0.00044   0.00035   0.00000   0.00035   2.06593
    A3        2.08609   0.00947   0.00041   0.00000   0.00041   2.08650
    A4        2.07273   0.00915  -0.00045   0.00000  -0.00045   2.07227
    A5        2.10559  -0.00054   0.00007   0.00000   0.00007   2.10567
    A6        2.02365  -0.01031  -0.00005   0.00000  -0.00005   2.02361
    A7        2.12449  -0.00441   0.00004   0.00000   0.00004   2.12453
    A8        2.07310  -0.00018  -0.00001   0.00000  -0.00001   2.07309
    A9        2.51453  -0.00050  -0.00002   0.00000  -0.00002   2.51451
   A10        2.13515  -0.00577  -0.00001   0.00000  -0.00001   2.13514
   A11        2.10558  -0.00029  -0.00003   0.00000  -0.00003   2.10555
   A12        2.00317   0.00211   0.01733   0.00000   0.01733   2.02049
   A13        1.50813   0.00094  -0.00015   0.00000  -0.00015   1.50798
   A14        2.03815  -0.00157  -0.01761   0.00000  -0.01761   2.02053
   A15        2.00322   0.00008  -0.00396   0.00000  -0.00396   1.99925
   A16        1.99676  -0.00013   0.00254   0.00000   0.00254   1.99930
    D4        3.15862   0.00580  -0.01726   0.00000  -0.01726   3.14135
    D5        0.03471  -0.01647  -0.03490   0.00000  -0.03490  -0.00019
    D6        3.18619  -0.01623  -0.04464   0.00000  -0.04464   3.14155
    D7       -3.17709  -0.00752   0.03573   0.00000   0.03573  -3.14136
    D8       -3.14063  -0.00013  -0.00098   0.00000  -0.00098  -3.14161
    D9       -3.20239  -0.00335   0.06085   0.00000   0.06085  -3.14154
   D10        3.15375  -0.00281  -0.01235   0.00000  -0.01235   3.14140
   D11       -3.14407   0.00003   0.00238   0.00000   0.00238  -3.14168
   D12       -1.11443  -0.00273  -0.01003   0.00000  -0.01003  -1.12446
   D13       -2.00537  -0.00391  -0.01179   0.00000  -0.01179  -2.01715
   D14        2.25189   0.00025  -0.00306   0.00000  -0.00306   2.24882
   D15       -2.05802   0.00144   0.02038   0.00000   0.02038  -2.03764
   D16       -2.21461   0.00156   0.00642   0.00000   0.00642  -2.20820
         Item               Value     Threshold  Converged?
 Maximum Force            0.016469     0.000450     NO 
 RMS     Force            0.004929     0.000300     NO 
 Maximum Displacement     0.060854     0.001800     NO 
 RMS     Displacement     0.015420     0.001200     NO 
 Predicted change in Energy=-6.583692D-06
 GradGradGradGradGradGradGradGradGradGradGradGradGradGradGradGradGradGrad

 ---------------------------------------------------------------------------------------------------
                            Z-MATRIX (ANGSTROMS AND DEGREES)
   CD    Cent   Atom    N1       Length/X        N2       Alpha/Y        N3        Beta/Z          J
 ---------------------------------------------------------------------------------------------------
      1      1  H 
      2      2  C        1   1.082445(     1)
      3      3  C        2   1.398394(     2)      1  119.548(    16)
      4      4  C        2   1.397321(     3)      1  118.732(    17)      3  179.986(    30)      0
      5      5  H        3   1.083210(     4)      2  120.646(    18)      1   -0.011(    31)      0
      6      6  C        3   1.382757(     5)      2  115.944(    19)      5  179.997(    32)      0
      7      7  C        4   1.398324(     6)      2  121.727(    20)      1 -179.987(    33)      0
      8      8  H        4   1.082447(     7)      2  118.779(    21)      7 -180.001(    34)      0
      9      9  C        6   1.520207(     8)      3  144.071(    22)      2 -179.997(    35)      0
     10     10  C        6   1.388787(     9)      3  122.334(    23)      9  179.989(    36)      0
     11     11  H        7   1.083206(    10)      4  120.639(    24)      2 -180.005(    37)      0
     12     12  H        9   1.093249(    11)      6  115.766(    25)      3  -64.427(    38)      0
     13     13  C        9   1.579678(    12)      6   86.401(    26)     12 -115.574(    39)      0
     14     14  H        9   1.093250(    13)      6  115.768(    27)     12  128.848(    40)      0
     15     15  H       13   1.093248(    14)      9  114.549(    28)      6 -116.748(    41)      0
     16     16  H       13   1.093245(    15)      9  114.552(    29)     15 -126.520(    42)      0
 ---------------------------------------------------------------------------------------------------
                         Z-Matrix orientation:                         
 ---------------------------------------------------------------------
 Center     Atomic      Atomic             Coordinates (Angstroms)
 Number     Number       Type             X           Y           Z
 ---------------------------------------------------------------------
      1          1           0        0.000000    0.000000    0.000000
      2          6           0        0.000000    0.000000    1.082445
      3          6           0        1.216528    0.000000    1.772056
      4          6           0       -1.225275    0.000293    1.754164
      5          1           0        2.156438   -0.000180    1.233621
      6          6           0        1.129622    0.000297    3.152079
      7          6           0       -1.298315    0.000588    3.150579
      8          1           0       -2.138321    0.000304    1.172752
      9          6           0        1.942531    0.000517    4.436684
     10          6           0       -0.088188    0.000744    3.819663
     11          1           0       -2.257863    0.000898    3.653176
     12          1           0        2.555726   -0.887589    4.611187
     13          6           0        0.557276    0.000799    5.195928
     14          1           0        2.555925    0.888563    4.610804
     15          1           0        0.374158    0.888966    5.806518
     16          1           0        0.373835   -0.887175    5.806694
 ---------------------------------------------------------------------
                    Distance matrix (angstroms):
                    1          2          3          4          5
     1  H    0.000000
     2  C    1.082445   0.000000
     3  C    2.149447   1.398394   0.000000
     4  C    2.139718   1.397321   2.441869   0.000000
     5  H    2.484361   2.161731   1.083210   3.421542   0.000000
     6  C    3.348380   2.357845   1.382757   2.738560   2.175967
     7  C    3.407605   2.441885   2.867885   1.398324   3.950956
     8  H    2.438804   2.140227   3.407958   1.082447   4.295191
     9  C    4.843304   3.876125   2.761761   4.151013   3.210197
    10  C    3.820681   2.738639   2.427958   2.357807   3.424319
    11  H    4.294606   3.421492   3.950950   2.161593   5.033916
    12  H    5.346270   4.446524   3.262197   4.821503   3.514950
    13  C    5.225728   4.151061   3.486763   3.875981   4.272844
    14  H    5.346196   4.446529   3.262211   4.821503   3.514942
    15  H    5.886077   4.821527   4.216246   4.446290   4.987834
    16  H    5.885961   4.821345   4.216102   4.446095   4.987728
                    6          7          8          9         10
     6  C    0.000000
     7  C    2.427938   0.000000
     8  H    3.820627   2.148816   0.000000
     9  C    1.520207   3.486710   5.225572   0.000000
    10  C    1.388787   1.382781   3.348012   2.122388   0.000000
    11  H    3.424348   1.083206   2.483303   4.272844   2.176054
    12  H    2.225109   4.216144   5.886023   1.093249   2.899298
    13  C    2.122475   2.761643   4.842746   1.579678   1.520108
    14  H    2.225137   4.216151   5.886014   1.093250   2.899217
    15  H    2.899397   3.261961   5.345470   2.263974   2.224925
    16  H    2.899276   3.261772   5.345275   2.264008   2.224895
                   11         12         13         14         15
    11  H    0.000000
    12  H    4.987769   0.000000
    13  C    3.210154   2.263838   0.000000
    14  H    4.987741   1.776152   2.263867   0.000000
    15  H    3.514694   3.056830   1.093248   2.487939   0.000000
    16  H    3.514563   2.487949   1.093245   3.056945   1.776141
                   16
    16  H    0.000000
 Symmetry turned off by external request.
 Stoichiometry    C8H8
 Framework group  C1[X(C8H8)]
 Deg. of freedom    42
 Full point group                 C1      NOp   1
 Rotational constants (GHZ):           4.4806110           2.0913919           1.4519011
 Standard basis: def2TZVP (5D, 7F)
 The following finite field(s) will be applied:
 An electric field of              0.0048 -0.0000  0.0088
   296 basis functions,   472 primitive gaussians,   336 cartesian basis functions
    28 alpha electrons       28 beta electrons
       nuclear repulsion energy       333.0609124267 Hartrees.
 NAtoms=   16 NActive=   16 NUniq=   16 SFac= 1.00D+00 NAtFMM=   60 NAOKFM=F Big=F
 Integral buffers will be    131072 words long.
 Raffenetti 2 integral format.
 Two-electron integral symmetry is turned off.
 One-electron integrals computed using PRISM.
   1 Symmetry operations used in ECPInt.
 ECPInt:  NShTT=    7260 NPrTT=   21936 LenC2=    7147 LenP2D=   17609.
 LDataN:  DoStor=T MaxTD1= 6 Len=  172
 NBasis=   296 RedAO= T EigKep=  8.46D-06  NBF=   296
 NBsUse=   296 1.00D-06 EigRej= -1.00D+00 NBFU=   296
 The nuclear repulsion energy is now       336.0803264101 hartrees.
 Lowest energy guess from the checkpoint file:  "checkpoint.chk"
 B after Tr=    -0.000000    0.000113   -0.000000
         Rot=    1.000000   -0.000020   -0.000000    0.000002 Ang=  -0.00 deg.
 B after Tr=     0.004059   -0.188191    0.005801
         Rot=    0.999445    0.033065    0.000764   -0.003882 Ang=   3.82 deg.
 Requested convergence on RMS density matrix=1.00D-08 within 128 cycles.
 Requested convergence on MAX density matrix=1.00D-06.
 Requested convergence on             energy=1.00D-06.
 No special actions if energy rises.
 Integral accuracy reduced to 1.0D-05 until final iterations.
 Initial convergence to 1.0D-05 achieved.  Increase integral accuracy.
 SCF Done:  E(RB3LYP) =  -309.746569999     A.U. after    8 cycles
            NFock=  8  Conv=0.98D-08     -V/T= 2.0054
   1 Symmetry operations used in ECPInt.
 ECPInt:  NShTT=    7260 NPrTT=   21936 LenC2=    7147 LenP2D=   17609.
 LDataN:  DoStor=T MaxTD1= 7 Len=  274
 Calling FoFJK, ICntrl=      2127 FMM=F ISym2X=0 I1Cent= 0 IOpClX= 0 NMat=1 NMatS=1 NMatT=0.
 -------------------------------------------------------------------
 Center     Atomic                   Forces (Hartrees/Bohr)
 Number     Number              X              Y              Z
 -------------------------------------------------------------------
      1        1          -0.000004668   -0.000010326    0.000047938
      2        6           0.000436177    0.000016869   -0.000214054
      3        6           0.000203002   -0.000002547   -0.000053193
      4        6          -0.000474696   -0.000005022    0.000325488
      5        1          -0.000129905   -0.000002456   -0.000172017
      6        6          -0.000683216    0.000023072    0.000264514
      7        6          -0.000109621    0.000021096    0.000206835
      8        1           0.000101252   -0.000000574   -0.000068721
      9        6          -0.000243338   -0.000015084   -0.000278248
     10        6           0.000536376   -0.000037891   -0.000481569
     11        1          -0.000066838   -0.000004071   -0.000191016
     12        1           0.000302925   -0.000376910    0.000149209
     13        6          -0.000131286    0.000018495   -0.000355194
     14        1           0.000298015    0.000376973    0.000148184
     15        1          -0.000019724    0.000372672    0.000336641
     16        1          -0.000014456   -0.000374296    0.000335202
 -------------------------------------------------------------------
 Cartesian Forces:  Max     0.000683216 RMS     0.000255153
 -----------------------------------------------------------------------------------------------
                       Internal Coordinate Forces (Hartree/Bohr or radian)
  Cent   Atom   N1       Length/X         N2         Alpha/Y        N3         Beta/Z          J
 -----------------------------------------------------------------------------------------------
      1  H 
      2  C        1  -0.000048(     1)
      3  C        2   0.000050(     2)      1  -0.001131(    16)
      4  C        2   0.000613(     3)      1  -0.001170(    17)      3  -0.000020(    30)     0
      5  H        3  -0.000027(     4)      2  -0.000438(    18)      1   0.000077(    31)     0
      6  C        3   0.000116(     5)      2   0.000295(    19)      5   0.000081(    32)     0
      7  C        4   0.000025(     6)      2   0.000873(    20)      1   0.000039(    33)     0
      8  H        4  -0.000048(     7)      2  -0.000230(    21)      7   0.000001(    34)     0
      9  C        6   0.000386(     8)      3  -0.000589(    22)      2   0.000062(    35)     0
     10  C        6  -0.000702(     9)      3  -0.000432(    23)      9   0.000084(    36)     0
     11  H        7  -0.000029(    10)      4  -0.000410(    24)      2   0.000007(    37)     0
     12  H        9   0.000500(    11)      6   0.000162(    25)      3  -0.000033(    38)     0
     13  C        9   0.000297(    12)      6   0.000785(    26)     12  -0.000039(    39)     0
     14  H        9   0.000497(    13)      6   0.000157(    27)     12   0.000013(    40)     0
     15  H       13   0.000494(    14)      9  -0.000059(    28)      6   0.000001(    41)     0
     16  H       13   0.000494(    15)      9  -0.000071(    29)     15   0.000165(    42)     0
 -----------------------------------------------------------------------------------------------
 Internal  Forces:  Max     0.001170010 RMS     0.000416579

 GradGradGradGradGradGradGradGradGradGradGradGradGradGradGradGradGradGrad
 Berny optimization.
 Search for a local minimum.
 Step number   4 out of a maximum of   52
 All quantities printed in internal units (Hartrees-Bohrs-Radians)
 Update second derivatives using D2CorN and points    2    3    4
 ITU=  0  0  0  0
     Eigenvalues ---   -0.02486   0.00954   0.02033   0.04129   0.04984
     Eigenvalues ---    0.06333   0.06507   0.10215   0.13076   0.13402
     Eigenvalues ---    0.14462   0.15560   0.21359   0.22089   0.23943
     Eigenvalues ---    0.27009   0.28495   0.30875   0.32506   0.33658
     Eigenvalues ---    0.34439   0.34442   0.34452   0.34482   0.35540
     Eigenvalues ---    0.35610   0.35616   0.35701   0.35701   0.36149
     Eigenvalues ---    0.45911   0.46200   0.46437   0.48339   0.50936
     Eigenvalues ---    0.58216   1.11075   1.14378   2.73325   5.15007
     Eigenvalues ---    8.19414  38.33699
 RFO step:  Lambda=-2.48645562D-02 EMin=-2.48645473D-02
 I=     1 Eig=   -2.49D-02 Dot1=  4.24D-06
 I=     1 Stepn=  2.50D-01 RXN=   2.50D-01 EDone=F
 Mixed    1 eigenvectors in step.  Raw Step.Grad=  4.24D-06.
 RFO eigenvector is Hessian eigenvector with negative curvature.
 Taking step of  2.50D-01 in eigenvector direction(s).  Step.Grad=  7.01D-05.
 Quartic linear search produced a step of -0.01198.
 Maximum step size (   0.100) exceeded in Quadratic search.
    -- Step size scaled by   0.400
 Variable       Old X    -DE/DX   Delta X   Delta X   Delta X     New X
                                 (Linear)    (Quad)   (Total)
    R2        2.04552  -0.00005   0.00000  -0.00000  -0.00000   2.04552
    R3        2.64258   0.00005   0.00000  -0.00092  -0.00092   2.64166
    R4        2.64055   0.00061  -0.00000   0.00040   0.00040   2.64096
    R5        2.04697  -0.00003  -0.00000   0.00003   0.00003   2.04700
    R6        2.61303   0.00012   0.00000  -0.00090  -0.00090   2.61213
    R7        2.64245   0.00003  -0.00000   0.00090   0.00090   2.64335
    R8        2.04553  -0.00005   0.00000  -0.00001  -0.00001   2.04552
    R9        2.87277   0.00039   0.00000  -0.00063  -0.00063   2.87214
   R10        2.62443  -0.00070   0.00000  -0.00033  -0.00033   2.62410
   R11        2.04696  -0.00003   0.00000  -0.00004  -0.00004   2.04692
   R12        2.06594   0.00050   0.00000   0.00079   0.00079   2.06673
   R13        2.98516   0.00030  -0.00000   0.00056   0.00056   2.98572
   R14        2.06594   0.00050  -0.00000  -0.00112  -0.00112   2.06482
   R15        2.06594   0.00049  -0.00000   0.00108   0.00108   2.06702
   R16        2.06593   0.00049   0.00000  -0.00123  -0.00123   2.06470
    A3        2.08650  -0.00113   0.00000  -0.00968  -0.00968   2.07682
    A4        2.07227  -0.00117  -0.00000   0.01005   0.01005   2.08232
    A5        2.10567  -0.00044   0.00000  -0.00145  -0.00145   2.10421
    A6        2.02361   0.00029  -0.00000   0.00133   0.00133   2.02494
    A7        2.12453   0.00087   0.00000  -0.00111  -0.00111   2.12342
    A8        2.07309  -0.00023  -0.00000   0.00035   0.00035   2.07344
    A9        2.51451  -0.00059  -0.00000  -0.00108  -0.00108   2.51343
   A10        2.13514  -0.00043  -0.00000  -0.00030  -0.00030   2.13484
   A11        2.10555  -0.00041  -0.00000   0.00054   0.00054   2.10609
   A12        2.02049   0.00016   0.00000   0.00783   0.00784   2.02833
   A13        1.50798   0.00078  -0.00000   0.00030   0.00030   1.50828
   A14        2.02053   0.00016  -0.00000  -0.01109  -0.01109   2.00945
   A15        1.99925  -0.00006  -0.00000   0.00371   0.00371   2.00296
   A16        1.99930  -0.00007   0.00000  -0.00820  -0.00820   1.99110
    D4        3.14135  -0.00002  -0.00000   0.05842   0.05842   3.19977
    D5       -0.00019   0.00008  -0.00000   0.04091   0.04091   0.04071
    D6        3.14155   0.00008  -0.00000  -0.00891  -0.00891   3.13263
    D7       -3.14136   0.00004   0.00000  -0.05086  -0.05085  -3.19221
    D8       -3.14161   0.00000  -0.00000   0.01001   0.01001  -3.13160
    D9       -3.14154   0.00006   0.00000   0.02054   0.02054  -3.12099
   D10        3.14140   0.00008  -0.00000  -0.00385  -0.00385   3.13755
   D11       -3.14168   0.00001   0.00000   0.01703   0.01703  -3.12465
   D12       -1.12446  -0.00003  -0.00000   0.01138   0.01138  -1.11308
   D13       -2.01715  -0.00004  -0.00000  -0.01929  -0.01929  -2.03645
   D14        2.24882   0.00001  -0.00000  -0.00551  -0.00551   2.24332
   D15       -2.03764   0.00000   0.00000  -0.01902  -0.01902  -2.05667
   D16       -2.20820   0.00017   0.00000   0.00724   0.00724  -2.20096
         Item               Value     Threshold  Converged?
 Maximum Force            0.001170     0.000450     NO 
 RMS     Force            0.000417     0.000300     NO 
 Maximum Displacement     0.058416     0.001800     NO 
 RMS     Displacement     0.015430     0.001200     NO 
 Predicted change in Energy=-1.260192D-04
 GradGradGradGradGradGradGradGradGradGradGradGradGradGradGradGradGradGrad

 ---------------------------------------------------------------------------------------------------
                            Z-MATRIX (ANGSTROMS AND DEGREES)
   CD    Cent   Atom    N1       Length/X        N2       Alpha/Y        N3        Beta/Z          J
 ---------------------------------------------------------------------------------------------------
      1      1  H 
      2      2  C        1   1.082443(     1)
      3      3  C        2   1.397904(     2)      1  118.993(    16)
      4      4  C        2   1.397535(     3)      1  119.308(    17)      3  183.333(    30)      0
      5      5  H        3   1.083226(     4)      2  120.563(    18)      1    2.333(    31)      0
      6      6  C        3   1.382280(     5)      2  116.020(    19)      5  179.487(    32)      0
      7      7  C        4   1.398803(     6)      2  121.663(    20)      1 -182.900(    33)      0
      8      8  H        4   1.082442(     7)      2  118.799(    21)      7 -179.427(    34)      0
      9      9  C        6   1.519874(     8)      3  144.009(    22)      2 -178.820(    35)      0
     10     10  C        6   1.388615(     9)      3  122.317(    23)      9  179.768(    36)      0
     11     11  H        7   1.083183(    10)      4  120.670(    24)      2 -179.029(    37)      0
     12     12  H        9   1.093668(    11)      6  116.215(    25)      3  -63.775(    38)      0
     13     13  C        9   1.579977(    12)      6   86.418(    26)     12 -116.680(    39)      0
     14     14  H        9   1.092655(    13)      6  115.133(    27)     12  128.532(    40)      0
     15     15  H       13   1.093820(    14)      9  114.761(    28)      6 -117.838(    41)      0
     16     16  H       13   1.092593(    15)      9  114.082(    29)     15 -126.106(    42)      0
 ---------------------------------------------------------------------------------------------------
                         Z-Matrix orientation:                         
 ---------------------------------------------------------------------
 Center     Atomic      Atomic             Coordinates (Angstroms)
 Number     Number       Type             X           Y           Z
 ---------------------------------------------------------------------
      1          1           0        0.000000    0.000000    0.000000
      2          6           0        0.000000    0.000000    1.082443
      3          6           0        1.222717    0.000000    1.760013
      4          6           0       -1.216585   -0.070857    1.766551
      5          1           0        2.156214    0.037964    1.211816
      6          6           0        1.151338   -0.039438    3.139885
      7          6           0       -1.271200   -0.134384    3.162843
      8          1           0       -2.135928   -0.085810    1.195355
      9          6           0        1.979232   -0.043699    4.414478
     10          6           0       -0.058353   -0.096380    3.819338
     11          1           0       -2.222549   -0.204633    3.675955
     12          1           0        2.637316   -0.904973    4.560231
     13          6           0        0.603854   -0.101396    5.189934
     14          1           0        2.553290    0.867708    4.598029
     15          1           0        0.407179    0.757218    5.838427
     16          1           0        0.457282   -1.015417    5.770313
 ---------------------------------------------------------------------
                    Distance matrix (angstroms):
                    1          2          3          4          5
     1  H    0.000000
     2  C    1.082443   0.000000
     3  C    2.143054   1.397904   0.000000
     4  C    2.146113   1.397535   2.440339   0.000000
     5  H    2.473702   2.160426   1.083226   3.419846   0.000000
     6  C    3.344549   2.358007   1.382280   2.737533   2.175596
     7  C    3.411390   2.441735   2.864544   1.398803   3.947579
     8  H    2.449168   2.140631   3.406860   1.082442   4.293958
     9  C    4.838066   3.875787   2.760509   4.150362   3.208588
    10  C    3.820999   2.739212   2.427189   2.357135   3.423671
    11  H    4.300494   3.421681   3.947476   2.162333   5.030348
    12  H    5.345102   4.457513   3.265163   4.832489   3.511762
    13  C    5.225929   4.152878   3.486780   3.877432   4.272548
    14  H    5.330486   4.430750   3.252334   4.807300   3.508929
    15  H    5.901390   4.833069   4.227522   4.461221   4.998197
    16  H    5.876793   4.818330   4.207074   4.441186   4.977537
                    6          7          8          9         10
     6  C    0.000000
     7  C    2.424506   0.000000
     8  H    3.819615   2.149679   0.000000
     9  C    1.519874   3.484268   5.224851   0.000000
    10  C    1.388615   1.379648   3.346896   2.123375   0.000000
    11  H    3.420201   1.083183   2.484955   4.269225   2.171641
    12  H    2.230396   4.221729   5.897226   1.093668   2.910219
    13  C    2.122800   2.761524   4.843894   1.579977   1.522195
    14  H    2.216883   4.206028   5.871640   1.092655   2.890762
    15  H    2.910423   3.281869   5.360617   2.267256   2.240998
    16  H    2.890225   3.250042   5.340332   2.258065   2.217389
                   11         12         13         14         15
    11  H    0.000000
    12  H    4.989059   0.000000
    13  C    3.208012   2.275352   0.000000
    14  H    4.980841   1.775074   2.256062   0.000000
    15  H    3.537925   3.061074   1.093820   2.481247   0.000000
    16  H    3.496455   2.495805   1.092593   3.051829   1.774651
                   16
    16  H    0.000000
 Symmetry turned off by external request.
 Stoichiometry    C8H8
 Framework group  C1[X(C8H8)]
 Deg. of freedom    42
 Full point group                 C1      NOp   1
 Rotational constants (GHZ):           4.4844019           2.0913023           1.4523022
 Standard basis: def2TZVP (5D, 7F)
 The following finite field(s) will be applied:
 An electric field of              0.0048 -0.0000  0.0088
   296 basis functions,   472 primitive gaussians,   336 cartesian basis functions
[...]
     6         -0.98787331         -0.00006062         -1.79100829
     6          0.39487439         -0.00011680         -4.04245130
     6         -3.62948786         -0.00008056         -1.78315270
     1          2.44141576         -0.00019204         -4.00682100
     6         -1.01033840         -0.00023053         -6.24616252
     6         -5.02571116         -0.00025237         -4.02624434
     1         -4.60707088          0.00003211          0.01349641
     6         -0.83757080         -0.00054849         -9.11417153
     6         -3.63375671         -0.00040772         -6.23832900
     1         -7.07198272         -0.00038341         -3.97825494
     1          0.01798808          1.67847836         -9.96464338
     6         -3.82373206         -0.00054917         -9.10512496
     1          0.01802441         -1.67978163         -9.96419525
     1         -4.68460343         -1.67957321         -9.95018459
     1         -4.68450204          1.67851704         -9.95020556

 Electric dipole moment (dipole orientation):
 (Debye = 10**-18 statcoulomb cm , SI units = C m)
                  (au)            (Debye)         (10**-30 SI)
   Tot        0.947084D+00      0.240725D+01      0.802971D+01
   x          0.000000D+00      0.000000D+00      0.000000D+00
   y          0.000000D+00      0.000000D+00      0.000000D+00
   z          0.947084D+00      0.240725D+01      0.802971D+01

 Dipole polarizability, Alpha (dipole orientation).
 (esu units = cm**3 , SI units = C**2 m**2 J**-1)
 Alpha(0;0):
               (au)            (10**-24 esu)      (10**-40 SI)
   iso        0.885781D+02      0.131259D+02      0.146045D+02
   aniso      0.517172D+02      0.766369D+01      0.852701D+01
   xx         0.958162D+02      0.141985D+02      0.157980D+02
   yx         0.898438D-03      0.133135D-03      0.148132D-03
   yy         0.557655D+02      0.826360D+01      0.919449D+01
   zx         0.540889D-01      0.801515D-02      0.891806D-02
   zy         0.340895D-02      0.505154D-03      0.562060D-03
   zz         0.114152D+03      0.169156D+02      0.188212D+02

 ----------------------------------------------------------------------
 1\1\GINC-BHC0068\Freq\RB3LYP\def2TZVP\C8H8\DHANAWAY\11-Jun-2022\1\\#N 
 Geom=AllCheck Guess=TCheck SCRF=Check GenChk RB3LYP/def2TZVP Freq\\int
 _zmat_initalOpt\\0,1\H\C,1,R2\C,2,R3,1,A3\C,2,R4,1,A4,3,D4,0\H,3,R5,2,
 A5,1,D5,0\C,3,R6,2,A6,5,D6,0\C,4,R7,2,A7,1,D7,0\H,4,R8,2,A8,7,D8,0\C,6
 ,R9,3,A9,2,D9,0\C,6,R10,3,A10,9,D10,0\H,7,R11,4,A11,2,D11,0\H,9,R12,6,
 A12,3,D12,0\C,9,R13,6,A13,12,D13,0\H,9,R14,6,A14,12,D14,0\H,13,R15,9,A
 15,6,D15,0\H,13,R16,9,A16,15,D16,0\\R2=1.08237172\R3=1.3981686\R4=1.39
 78884\R5=1.08314717\R6=1.38306375\R7=1.39815986\R8=1.0823733\R9=1.5204
 3622\R10=1.38825938\R11=1.08313802\R12=1.09405574\R13=1.58021574\R14=1
 .09405484\R15=1.09404711\R16=1.09404743\A3=119.56341168\A4=118.7095947
 4\A5=120.55918973\A6=115.91946799\A7=121.73001519\A8=118.72164196\A9=1
 44.02877016\A10=122.35283855\A11=120.55693889\A12=115.81129678\A13=86.
 37911631\A14=115.80905684\A15=114.52894861\A16=114.52582672\D4=179.999
 99973\D5=0.00298809\D6=179.99609309\D7=-179.99758623\D8=-180.00027711\
 D9=-179.99278364\D10=179.98963953\D11=-180.00385533\D12=-64.44977669\D
 13=-115.555129\D14=128.88890924\D15=-116.79351414\D16=-126.42570215\\V
 ersion=ES64L-G16RevA.03\HF=-309.7465736\RMSD=1.643e-09\RMSF=2.367e-05\
 ZeroPoint=0.1338765\Thermal=0.1398629\Dipole=-0.4574192,0.0000281,-0.8
 292982\DipoleDeriv=0.0728782,-0.0000008,-0.003713,0.0000004,0.1393619,
 -0.0000064,0.0038414,-0.0000015,-0.0113273,-0.099478,-0.0000078,-0.101
 3152,-0.0000148,-0.117312,0.0000184,0.0273844,-0.0000097,0.0648067,0.0
 767076,0.0000061,-0.1246885,0.0000185,-0.0929714,-0.0000437,-0.0679993
 ,-0.0000049,0.0421094,0.0507717,0.0000099,0.1233824,0.0000269,-0.11713
 92,-0.000006,-0.0051723,0.0000053,-0.0854221,-0.0632355,-0.0000017,0.0
 777861,-0.0000159,0.1265757,0.0000181,0.0573142,-0.0000005,0.0353326,-
 0.0039815,0.0000122,0.2121768,0.0000481,-0.1126959,0.0000734,-0.002701
 6,0.0000095,-0.0362892,0.1395417,-0.0000114,-0.0278956,-0.0000569,-0.0
 927529,0.0000543,-0.0846109,0.0000073,-0.0208064,0.0132616,-0.0000031,
 -0.034324,-0.0000065,0.1393755,-0.0000024,-0.0418411,-0.0000023,0.0485
 915,0.1676407,-0.0000181,0.0472756,-0.0000502,0.2590892,-0.0000674,0.1
 060729,-0.0000282,0.0405151,-0.1219694,0.0000024,-0.0780067,-0.0000063
 ,-0.1125843,-0.0000948,0.1366393,0.0000069,0.0819437,-0.0539921,0.0000
 045,0.0626639,0.0000266,0.1266173,-0.0000207,0.083049,-0.0000062,0.026
 8399,-0.1113555,0.0901157,-0.0750787,0.1736025,-0.1011736,0.0828936,-0
 .0861978,0.0328797,-0.0319737,0.0081132,-0.0000031,0.0036958,0.0000173
 ,0.2588096,0.0000736,-0.0550375,0.0000249,0.2000648,-0.1113205,-0.0901
 109,-0.0750538,-0.1735932,-0.1011949,-0.0828754,-0.0861656,-0.0328562,
 -0.0319617,0.0182091,0.0208089,-0.0034414,0.0236125,-0.1009966,-0.1907
 391,0.0077194,-0.0935412,-0.1612122,0.0182088,-0.0208029,-0.0034638,-0
 .0236089,-0.1010083,0.1907244,0.0077054,0.093517,-0.161211\Polar=100.0
 47711,0.0002928,55.7655083,7.7257043,0.0017549,109.9209663\PG=C01 [X(C
 8H8)]\NImag=0\\0.06033448,0.00000005,0.02658393,-0.00023021,0.00000023
 ,0.35898792,-0.05937932,-0.00000154,0.00026584,0.63497967,-0.00000020,
 -0.03834588,-0.00000004,0.00000226,0.13992409,-0.00037072,-0.00000023,
 -0.34032739,0.00317540,0.00000267,0.73235928,0.00349668,0.00000064,0.0
 0160393,-0.27101491,-0.00000022,-0.11213710,0.69985503,-0.00000003,0.0
 0342491,-0.00000010,0.,-0.06178488,0.00000041,0.00001226,0.13029540,-0
 .02843773,0.00000099,-0.01039638,-0.04620797,0.00000020,-0.17220712,-0
 .06617907,-0.00000073,0.67351128,0.00339449,0.00000079,-0.00139508,-0.
 26925293,-0.00000087,0.10961801,-0.05516814,-0.00000166,-0.02704336,0.
 70131206,0.00000011,0.00386709,-0.00000015,-0.00000185,-0.06699465,-0.
 00000056,0.00000051,0.00664750,0.00000124,0.00000904,0.13998345,0.0292
 9011,-0.00000049,-0.01075323,0.04183480,0.00000029,-0.17245026,0.01913
 547,0.00000080,0.06397002,0.04551720,0.00001928,0.66609163,0.00109898,
 0.00000022,-0.00013215,-0.01883354,-0.00000062,0.01606076,-0.26487991,
 -0.00001027,0.11752212,-0.00265680,-0.00000046,-0.00409371,0.28080848,
 0.00000006,-0.00388192,0.,0.00000007,0.00290113,0.00000009,-0.00001229
 ,-0.03628442,0.00000706,0.00000028,0.00763512,-0.00000010,0.00001121,0
 .02453262,0.00053266,-0.00000012,0.00078149,-0.01435516,-0.00000041,0.
 01222558,0.12020260,0.00000633,-0.12894711,-0.00323012,0.00000016,-0.0
 0095368,-0.13002556,-0.00000644,0.13041747,-0.00473825,0.00000050,-0.0
 0290143,0.03893115,0.00000008,-0.03207071,-0.13303629,-0.00000406,-0.0
 0298429,-0.02265535,0.00000102,0.03297825,0.00283740,0.00000065,0.0303
 5342,0.57023799,-0.00000017,0.00700498,-0.00000004,-0.00000266,0.00710
 212,-0.00000186,-0.00000129,-0.05899349,-0.00000506,0.00000185,-0.0068
 5356,-0.00000268,0.00000007,0.00249764,0.00000084,-0.00000333,0.153816
 41,-0.00309290,-0.00000091,0.00008869,-0.08071722,-0.00000073,-0.03663
 615,0.04669722,-0.00000137,-0.33749629,0.03183340,-0.00000047,-0.05085
 321,0.00008443,-0.00000077,-0.00780786,-0.04747718,0.00002699,0.760278
 09,-0.00440971,-0.00000012,0.00238829,0.03300825,0.00000024,0.02930993
 ,-0.01333920,-0.00000032,-0.03081958,-0.12902407,0.00000199,0.04455585
 ,0.00004496,0.00000023,-0.00063621,-0.05751892,-0.00000004,0.02165249,
 0.74128893,0.00000013,0.00688726,0.00000007,0.00000201,0.00664087,-0.0
 0000097,-0.00000082,-0.00490077,-0.00000222,-0.00000011,-0.06183788,-0
 .00001152,0.00000005,-0.00067863,-0.00000004,0.00000002,0.00917320,0.0
 0000276,-0.00000876,0.13034411,0.00242451,0.00000022,0.00063384,0.0754
 8218,-0.00000127,-0.02420811,-0.02542561,-0.00000153,-0.04929695,-0.02
 139044,-0.00000989,-0.31424583,-0.00052963,0.00000033,-0.00089259,-0.0
 3099069,0.00000380,0.05896456,-0.03975184,0.00002846,0.63220567,0.0009
 7415,0.00000014,0.00004020,-0.01929291,-0.00000060,-0.01589515,-0.0030
 1018,-0.00000024,0.00328043,-0.25887820,-0.00000780,-0.12717487,-0.000
 93564,0.00000004,-0.00073342,0.00009783,0.00000002,0.00117445,0.005806
 73,0.00000012,0.00307927,0.27264540,-0.00000002,-0.00412933,-0.0000000
 3,0.00000088,0.00386355,0.00000002,-0.00000019,0.00688680,-0.00000038,
 -0.00000835,-0.03836239,-0.00000534,0.00000003,0.00003404,0.00000004,-
 0.00000012,-0.00119354,0.00000033,-0.00000071,0.00343809,-0.00000053,0
 .00000832,0.02659239,-0.00021220,0.00000014,0.00086498,0.01478411,0.00
 000025,0.01195046,0.00331823,-0.00000013,-0.00076378,-0.12779730,-0.00
 000520,-0.14085443,0.00082293,-0.00000003,0.00038156,0.00064347,0.,-0.
 00066900,-0.02696790,-0.00000082,-0.01271648,0.13540059,0.00000608,0.1
 4669687,0.00044526,0.,0.00024668,0.00402192,-0.00000014,0.00260115,0.0
 0569164,0.00000017,-0.00118000,-0.00250765,0.00000007,0.00220917,-0.00
 007983,0.,-0.00064960,-0.08892814,-0.00000341,-0.04142462,-0.00481698,
 0.00000019,-0.00133965,0.00006032,0.00000002,-0.00011578,0.52668939,0.
 00000007,0.00086937,0.00000010,-0.00000042,0.00730510,0.00000058,0.000
 00087,-0.00258167,0.00000050,-0.00000016,-0.00129210,-0.00000043,0.000
 00017,-0.00345008,-0.00000014,-0.00000879,-0.06806408,-0.00000851,0.00
 000062,0.00860072,-0.00000033,0.00000003,-0.00114478,0.00000008,0.0000
 0373,0.56505723,-0.00070138,0.00000007,0.00010453,0.00502183,-0.000000
 65,-0.00251015,-0.01268619,-0.00000192,-0.00795081,-0.00070741,0.00000
 019,0.00081492,0.00062157,0.00000053,0.00048818,-0.07715985,-0.0000051
 2,-0.14486429,-0.00011346,-0.00000091,-0.00028025,-0.00004575,0.000000
 10,-0.00008945,0.07699981,-0.00001964,0.34096089,-0.00127161,-0.000000
 62,0.00030072,-0.07207102,-0.00000018,0.00025312,0.02940428,0.00000389
 ,0.07721695,0.03644623,-0.00000276,-0.08230812,0.00223810,-0.00000014,
 -0.00141849,-0.27172001,0.00000925,0.05576880,-0.29806417,-0.00000621,
 -0.05874373,0.00140755,0.00000034,0.00083380,-0.08263960,0.00000104,-0
 .01952352,0.74828883,-0.00000008,-0.00119457,0.00000006,0.00000031,-0.
 00683764,0.00000006,0.00000016,0.00915666,-0.00000059,-0.00000069,0.00
 710274,-0.00000132,-0.00000049,0.00904025,0.00000018,0.00001628,-0.075
 21071,-0.00000842,-0.00000717,-0.05899409,-0.00000701,-0.00000005,0.00
 700477,-0.00000049,-0.00000311,0.01451989,-0.00000309,-0.00000495,0.15
 380064,-0.00023144,-0.00000010,0.00070021,0.00141751,0.00000034,-0.001
 43483,0.02457114,-0.00000142,-0.02797811,-0.03367175,-0.00000282,-0.03
 413646,-0.00116602,-0.00000085,-0.00388179,0.14432192,-0.00000797,-0.1
 4382875,-0.10842758,-0.00000666,-0.17250714,0.00102748,-0.00000056,-0.
 00606044,-0.02723868,-0.00000172,-0.01225435,0.06631747,0.00002081,0.5
 8233123,-0.00004047,0.00000002,-0.00016182,0.00187338,0.00000026,-0.00
 033546,-0.00009049,-0.00000007,-0.00072293,0.00245183,0.00000006,-0.00
 075943,-0.00004992,-0.00000005,0.00017098,-0.00093481,-0.00000005,-0.0
 0344288,-0.27628619,0.00001329,0.11295190,0.00069209,-0.00000016,0.000
 27143,-0.00076883,0.,-0.00009289,-0.01852328,0.00000170,0.01668732,0.2
 9206598,0.00000013,0.00003330,-0.00000002,0.00000034,0.00763235,-0.000
 00046,-0.00000020,-0.00067716,-0.00000047,0.00000089,0.00291285,0.0000
 0084,0.00000005,-0.00175236,-0.00000004,-0.00000059,0.00903905,-0.0000
 0027,0.00001510,-0.03631016,-0.00001026,0.00000003,-0.00388288,0.00000
 021,-0.00000011,-0.00045702,0.00000017,-0.00000084,0.00250667,0.000000
 50,-0.00001482,0.02454226,0.00139425,0.00000013,-0.00051388,-0.0011951
 1,-0.00000064,-0.00548429,-0.00061765,0.,-0.00075620,0.02965555,-0.000
 00141,-0.00905534,0.00008936,0.00000012,0.00011653,-0.00319374,-0.0000
 0076,-0.00071002,0.11026921,-0.00000862,-0.11758218,-0.00039011,0.0000
 0031,0.00118864,-0.00053473,0.00000007,0.00022505,-0.01357460,0.000001
 13,0.01356863,-0.12285067,0.00000944,0.11918510,-0.00002925,-0.0000405
 0,-0.00003218,-0.00088251,-0.00065902,-0.00017854,0.00062077,0.0000400
 6,0.00129202,0.00015825,0.00007402,-0.00033747,0.00012341,0.00057999,-
 0.00021880,-0.00853064,0.00892430,-0.00338282,-0.00032420,-0.00200128,
 -0.00030692,0.00001400,0.00030957,-0.00006730,-0.12020238,0.11396789,-
 0.01957524,-0.00324834,0.00001723,-0.00155034,-0.00018003,0.00005869,-
 0.00000055,0.13226471,0.00004297,0.00001518,0.00001613,0.00070020,-0.0
 0000564,0.00013343,0.00014594,0.00031379,-0.00065032,-0.00027715,-0.00
 005204,0.00041361,0.00003463,-0.00010885,0.00006969,-0.00030850,0.0032
 3644,0.00140022,-0.00029518,-0.00020854,-0.00040306,-0.00000564,-0.000
 00210,0.00000160,0.11299094,-0.21877995,0.03059738,-0.00022557,0.00034
 543,0.00111806,0.00004442,0.00004047,0.00001593,-0.12484989,0.23474725
 ,-0.00007844,-0.00010752,-0.00006212,-0.00083665,-0.00135485,-0.000080
 06,-0.00028254,0.00009127,0.00156352,0.00011229,0.00027960,-0.00047160
 ,0.00022816,0.00065553,-0.00030034,-0.01411852,0.02325492,-0.00218106,
 -0.00047793,-0.00059445,0.00089073,0.00002155,0.00000414,0.00005427,-0
 .02074104,0.03336920,-0.05101004,-0.00091362,-0.00056583,-0.00311012,-
 0.00025262,0.00000427,-0.00013127,0.02529737,-0.03560636,0.05112166,0.
 00002709,0.00000004,-0.00006684,-0.00083266,0.,0.00036469,-0.00093874,
 -0.00000008,0.00237016,-0.00407299,-0.00000013,-0.00015585,0.00022199,
 -0.00000005,0.00054069,-0.01144988,0.00000216,0.02598636,0.00229680,0.
 00000086,-0.01485477,0.00040962,-0.00000003,-0.00072451,-0.11091779,0.
 00000125,0.04381234,-0.07485619,-0.00000311,-0.06818740,0.00033570,-0.
 00000022,0.00088489,-0.00981808,-0.00270632,0.00745245,0.32503519,-0.0
 0000004,-0.00114570,-0.00000007,0.00000089,-0.00129132,0.00000045,0.00
 000039,0.00860216,-0.00000143,-0.00000111,0.00730768,0.00000052,0.,-0.
 00045667,-0.00000028,0.00000148,0.01452303,-0.00000758,-0.00000052,-0.
 00257369,-0.00000164,-0.00000002,0.00086711,-0.00000011,-0.00000095,-0
 .08445212,0.00000200,0.00000144,-0.06806336,-0.00000021,-0.00000014,-0
 .00345082,0.00000027,0.01830608,0.00133893,-0.01594128,-0.00000625,0.5
 6505764,-0.00013677,0.00000014,-0.00005629,0.00328119,0.00000004,-0.00
 086348,0.00113880,-0.00000066,-0.00415861,-0.00257240,-0.00000031,0.00
 558758,0.00009876,0.00000002,-0.00076532,0.01826104,-0.00000392,-0.083
 45154,-0.00335502,0.00000063,-0.00455922,0.00022368,-0.00000007,0.0001
 4019,0.03156624,0.00000106,-0.06273661,-0.03243940,-0.00000371,-0.1590
 3822,-0.00038270,0.00000018,0.00007204,-0.00424384,-0.00091577,0.00193
 317,-0.05195028,0.00001337,0.54280838,-0.00002923,0.00004047,-0.000032
 17,-0.00088256,0.00065904,-0.00017841,0.00062099,-0.00003986,0.0012920
 6,0.00015817,-0.00007397,-0.00033744,0.00012345,-0.00058005,-0.0002188
 3,-0.00853075,-0.00892625,-0.00338270,-0.00032425,0.00200122,-0.000307
 33,0.00001401,-0.00030956,-0.00006725,-0.12018261,-0.11396433,-0.01955
 130,-0.00324632,-0.00001746,-0.00154962,-0.00017999,-0.00005867,-0.000
 00053,0.01090308,0.01433118,0.00291350,-0.00981570,-0.01830774,-0.0042
 4135,0.13224087,-0.00004298,0.00001517,-0.00001615,-0.00070019,-0.0000
 0531,-0.00013346,-0.00014593,0.00031384,0.00065047,0.00027710,-0.00005
 209,-0.00041338,-0.00003458,-0.00010902,-0.00006979,0.00030537,0.00323
 163,-0.00140088,0.00029469,-0.00020839,0.00040276,0.00000565,-0.000002
 12,-0.00000160,-0.11298739,-0.21881574,-0.03057026,0.00022564,0.000345
 29,-0.00111816,-0.00004447,0.00004050,-0.00001596,-0.01432708,-0.02222
 188,-0.00371772,0.00270615,0.00134063,0.00091570,0.12484594,0.23478598
 ,-0.00007839,0.00010750,-0.00006209,-0.00083702,0.00135483,-0.00007978
 ,-0.00028188,-0.00009093,0.00156402,0.00011217,-0.00027963,-0.00047182
 ,0.00022823,-0.00065558,-0.00030042,-0.01411893,-0.02325788,-0.0021794
 7,-0.00047758,0.00059464,0.00089032,0.00002157,-0.00000412,0.00005427,
 -0.02071736,-0.03334173,-0.05099592,-0.00091374,0.00056587,-0.00311022
 ,-0.00025257,-0.00000433,-0.00013122,0.00291548,0.00372198,0.00132723,
 0.00745084,0.01594295,0.00193032,0.02527226,0.03557588,0.05110905,0.00
 006338,0.00016309,0.00005311,-0.00018602,-0.00019580,-0.00010837,0.000
 89453,-0.00057609,0.00030061,0.00014743,0.00078714,-0.00017699,-0.0000
 3057,0.00002806,-0.00015711,-0.00203073,0.00048492,-0.00013808,0.00083
 094,-0.00005369,-0.00014882,-0.00000239,0.00006850,-0.00006117,-0.0029
 3140,0.02328951,0.01185015,0.00392845,-0.01478754,-0.00615855,-0.00018
 250,-0.00024108,0.00003224,-0.00223468,-0.00001439,0.00293558,-0.05281
 533,0.03328844,0.02237928,0.00136598,-0.00039273,-0.00125950,0.0517171
 7,-0.00000431,-0.00000191,0.00000390,-0.00049681,-0.00005196,0.0000108
 8,0.00018054,-0.00020928,0.00046536,0.00026432,-0.00000587,-0.00066084
 ,0.00001053,0.00004057,-0.00004599,-0.00106436,0.00034533,-0.00041021,
 0.00062739,0.00031390,0.00022667,0.00000961,0.00001519,-0.00004484,-0.
 00068648,0.00134333,0.00277663,-0.00134375,0.00323896,-0.00049380,-0.0
 0004006,-0.00010850,-0.00006690,-0.00013408,0.00043044,-0.00006813,0.0
 3509589,-0.21879154,-0.11169920,0.00026598,0.00091083,-0.00029745,-0.0
 3726712,0.23475601,-0.00003569,-0.00026305,0.00000484,-0.00055664,-0.0
 0021300,-0.00012673,0.00047158,0.00200617,-0.00032888,0.00047932,0.001
 28543,-0.00110892,0.00009536,-0.00005162,-0.00028095,-0.00077131,0.000
 28807,-0.00432793,0.00142546,-0.00008228,0.00135140,-0.00001496,0.0000
 9170,-0.00008884,0.00015891,-0.00683463,-0.00495094,0.00457401,-0.0200
 4692,-0.01462778,-0.00041388,-0.00084197,0.00000425,-0.00008747,0.0001
 4962,-0.00041251,0.02354157,-0.11401088,-0.11843048,0.00047661,0.00006
 231,0.00086845,-0.02622185,0.12438380,0.13168374,0.00006335,-0.0001631
 6,0.00005311,-0.00018599,0.00019576,-0.00010859,0.00089395,0.00057631,
 0.00030057,0.00014766,-0.00078698,-0.00017698,-0.00003053,-0.00002802,
 -0.00015705,-0.00203059,-0.00048539,-0.00013875,0.00083106,0.00005299,
 -0.00014845,-0.00000239,-0.00006851,-0.00006114,-0.00293332,-0.0232914
 9,0.01185129,0.00392709,0.01478895,-0.00616146,-0.00018249,0.00024129,
 0.00003220,0.00136589,0.00039237,-0.00125955,-0.05280904,-0.03328193,0
 .02237276,-0.00223516,0.00001480,0.00293640,0.00146573,0.00458275,-0.0
 0312101,0.05171480,0.00000432,-0.00000189,-0.00000389,0.00049651,-0.00
 005196,-0.00001105,-0.00018036,-0.00020939,-0.00046463,-0.00026417,-0.
 00000584,0.00066075,-0.00001054,0.00004058,0.00004601,0.00106436,0.000
 34554,0.00040980,-0.00062743,0.00031401,-0.00022670,-0.00000960,0.0000
 1519,0.00004485,0.00068648,0.00134191,-0.00277550,0.00134341,0.0032390
 6,0.00049457,0.00004007,-0.00010856,0.00006690,-0.00026598,0.00091107,
 0.00029720,-0.03509017,-0.21881198,0.11169249,0.00013405,0.00043069,0.
 00006801,-0.00458121,-0.02222549,0.01407725,0.03726026,0.23477705,-0.0
 0003567,0.00026299,0.00000487,-0.00055708,0.00021297,-0.00012696,0.000
 47106,-0.00200619,-0.00032858,0.00047991,-0.00128546,-0.00110936,0.000
 09539,0.00005170,-0.00028076,-0.00077146,-0.00028934,-0.00432577,0.001
 42588,0.00008195,0.00135224,-0.00001496,-0.00009170,-0.00008881,0.0001
 5949,0.00683554,-0.00495076,0.00457034,0.02004926,-0.01463186,-0.00041
 378,0.00084220,0.00000416,0.00047659,-0.00006214,0.00086855,0.02353567
 ,0.11400392,-0.11841191,-0.00008750,-0.00014976,-0.00041270,-0.0031205
 5,-0.01407989,0.01077130,-0.02621333,-0.12437604,0.13166636\\-0.000015
 92,0.00000048,0.00000078,-0.00003330,0.00000229,0.00000255,0.00000837,
 -0.00000291,0.00003906,0.00004008,0.00000080,-0.00005000,0.00000131,0.
 00000285,-0.00000027,0.00004979,-0.00000958,-0.00006440,0.00003186,-0.
 00000563,0.00002922,-0.00000491,-0.00000098,0.00000840,-0.00000442,0.0
 0000373,0.00002425,-0.00008942,0.00000923,0.00002875,-0.00000150,0.000
 00160,-0.00000152,-0.00000025,-0.00000969,-0.00000035,0.00002397,-0.00
 000019,-0.00002512,0.00000116,0.00000946,-0.00000267,-0.00000307,0.000
 00489,0.00000707,-0.00000377,-0.00000634,0.00000426\\\@


 EVERY WORD THAT YOU WRITE IS A BLOW THAT SMITES THE DEVIL.
     -- ST. BERNARD OF CLAIRVAUX
 Job cpu time:       0 days  1 hours 13 minutes 39.7 seconds.
 Elapsed time:       0 days  0 hours  6 minutes  8.9 seconds.
 File lengths (MBytes):  RWF=    122 Int=      0 D2E=      0 Chk=     32 Scr=      1
 Normal termination of Gaussian 16 at Sat Jun 11 00:21:43 2022.
