 Entering Gaussian System, Link 0=g16
 Input=int_zmat_field_N25.gjf
 Output=int_zmat_field_N25.out
 Initial command:
 /software/gaussian/g16-a03/l1.exe "/local_scratch/11174463/Gau-16825.inp" -scrdir="/local_scratch/11174463/"
 Entering Link 1 = /software/gaussian/g16-a03/l1.exe PID=     16826.
  
 Copyright (c) 1988,1990,1992,1993,1995,1998,2003,2009,2016,
            Gaussian, Inc.  All Rights Reserved.
  
 This is part of the Gaussian(R) 16 program.  It is based on
 the Gaussian(R) 09 system (copyright 2009, Gaussian, Inc.),
 the Gaussian(R) 03 system (copyright 2003, Gaussian, Inc.),
 the Gaussian(R) 98 system (copyright 1998, Gaussian, Inc.),
 the Gaussian(R) 94 system (copyright 1995, Gaussian, Inc.),
 the Gaussian 92(TM) system (copyright 1992, Gaussian, Inc.),
 the Gaussian 90(TM) system (copyright 1990, Gaussian, Inc.),
 the Gaussian 88(TM) system (copyright 1988, Gaussian, Inc.),
 the Gaussian 86(TM) system (copyright 1986, Carnegie Mellon
 University), and the Gaussian 82(TM) system (copyright 1983,
 Carnegie Mellon University). Gaussian is a federally registered
 trademark of Gaussian, Inc.
  
 This software contains proprietary and confidential information,
 including trade secrets, belonging to Gaussian, Inc.
  
 This software is provided under written license and may be
 used, copied, transmitted, or stored only in accord with that
 written license.
  
 The following legend is applicable only to US Government
 contracts under FAR:
  
                    RESTRICTED RIGHTS LEGEND
  
 Use, reproduction and disclosure by the US Government is
 subject to restrictions as set forth in subparagraphs (a)
 and (c) of the Commercial Computer Software - Restricted
 Rights clause in FAR 52.227-19.
  
 Gaussian, Inc.
 340 Quinnipiac St., Bldg. 40, Wallingford CT 06492
  
  
 ---------------------------------------------------------------
 Warning -- This program may not be used in any manner that
 competes with the business of Gaussian, Inc. or will provide
 assistance to any competitor of Gaussian, Inc.  The licensee
 of this program is prohibited from giving any competitor of
 Gaussian, Inc. access to this program.  By using this program,
 the user acknowledges that Gaussian, Inc. is engaged in the
 business of creating and licensing software in the field of
 computational chemistry and represents and warrants to the
 licensee that it is not a competitor of Gaussian, Inc. and that
 it will not use this program in any manner prohibited above.
 ---------------------------------------------------------------
  

 Cite this work as:
 Gaussian 16, Revision A.03,
 M. J. Frisch, G. W. Trucks, H. B. Schlegel, G. E. Scuseria, 
 M. A. Robb, J. R. Cheeseman, G. Scalmani, V. Barone, 
 G. A. Petersson, H. Nakatsuji, X. Li, M. Caricato, A. V. Marenich, 
 J. Bloino, B. G. Janesko, R. Gomperts, B. Mennucci, H. P. Hratchian, 
 J. V. Ortiz, A. F. Izmaylov, J. L. Sonnenberg, D. Williams-Young, 
 F. Ding, F. Lipparini, F. Egidi, J. Goings, B. Peng, A. Petrone, 
 T. Henderson, D. Ranasinghe, V. G. Zakrzewski, J. Gao, N. Rega, 
 G. Zheng, W. Liang, M. Hada, M. Ehara, K. Toyota, R. Fukuda, 
 J. Hasegawa, M. Ishida, T. Nakajima, Y. Honda, O. Kitao, H. Nakai, 
 T. Vreven, K. Throssell, J. A. Montgomery, Jr., J. E. Peralta, 
 F. Ogliaro, M. J. Bearpark, J. J. Heyd, E. N. Brothers, K. N. Kudin, 
 V. N. Staroverov, T. A. Keith, R. Kobayashi, J. Normand, 
 K. Raghavachari, A. P. Rendell, J. C. Burant, S. S. Iyengar, 
 J. Tomasi, M. Cossi, J. M. Millam, M. Klene, C. Adamo, R. Cammi, 
 J. W. Ochterski, R. L. Martin, K. Morokuma, O. Farkas, 
 J. B. Foresman, and D. J. Fox, Gaussian, Inc., Wallingford CT, 2016.
 
 ******************************************
 Gaussian 16:  ES64L-G16RevA.03 25-Dec-2016
                10-Jun-2022 
 ******************************************
 %nprocshared=12
 Will use up to   12 processors via shared memory.
 %chk=checkpoint.chk
 %mem=12GB
 ----------------------------------------------------------------------
 # Opt=(Z-matrix, MaxStep=10) B3LYP/Def2TZVP Field=read NoSymm freq=nor
 aman pop=none
 ----------------------------------------------------------------------
 1/8=10,10=7,18=40,26=3,38=1/1,3;
 2/12=2,15=1,17=6,18=5,29=3,40=1/2;
 3/5=44,7=101,11=2,14=-6,25=1,30=1,71=1,74=-5/1,2,3;
 4//1;
 5/5=2,38=5/2;
 7/29=1,30=1/1,2,3,16;
 1/8=10,10=7,18=40,26=3/3(2);
 2/15=1,29=3/2;
 99//99;
 2/15=1,29=3/2;
 3/5=44,7=101,11=2,14=-2,25=1,30=1,71=1,74=-5/1,2,3;
 4/5=5,16=3,69=1/1;
 5/5=2,38=5/2;
 7/30=1/1,2,3,16;
 1/8=10,18=40,26=3/3(-5);
 2/15=1,29=3/2;
 99/9=1/99;
 ------------------
 int_zmat_initalOpt
 ------------------
 Symbolic Z-matrix:
 Charge =  0 Multiplicity = 1
 H
 C                    1    R2
 C                    2    R3       1    A3
 O                    2    R4       1    A4       3    D4       0
 H                    2    R5       1    A5       3    D5       0
 C                    4    R6       2    A6       1    D6       0
 C                    3    R7       2    A7       1    D7       0
 C                    3    R8       2    A8       7    D8       0
 H                    6    R9       4    A9       2    D9       0
 H                    6    R10      4    A10      9    D10      0
 C                    7    R11      3    A11      2    D11      0
 H                    7    R12      3    A12      11   D12      0
 H                    8    R13      3    A13      2    D13      0
 C                    8    R14      3    A14      13   D14      0
 C                    11   R15      7    A15      3    D15      0
 H                    11   R16      7    A16      15   D16      0
 H                    14   R17      8    A17      3    D17      0
 H                    14   R18      8    A18      17   D18      0
 H                    14   R19      8    A19      17   D19      0
 H                    15   R20      11   A20      7    D20      0
 H                    15   R21      11   A21      20   D21      0
       Variables:
  R2                    1.09915                  
  R3                    1.51627                  
  R4                    1.42565                  
  R5                    1.09206                  
  R6                    1.42273                  
  R7                    1.5266                   
  R8                    1.3278                   
  R9                    1.08929                  
  R10                   1.09849                  
  R11                   1.499                    
  R12                   1.09959                  
  R13                   1.086                    
  R14                   1.49924                  
  R15                   1.32762                  
  R16                   1.08619                  
  R17                   1.09003                  
  R18                   1.09441                  
  R19                   1.0942                   
  R20                   1.08303                  
  R21                   1.08257                  
  A3                  110.97614                  
  A4                  110.23605                  
  A5                  108.05106                  
  A6                  107.34275                  
  A7                  106.13511                  
  A8                  126.50411                  
  A9                  107.86764                  
  A10                 110.50275                  
  A11                 115.93038                  
  A12                 107.04803                  
  A13                 118.75148                  
  A14                 125.78011                  
  A15                 126.55846                  
  A16                 115.12804                  
  A17                 112.56644                  
  A18                 110.97917                  
  A19                 110.93573                  
  A20                 122.69595                  
  A21                 120.97619                  
  D4                  117.36482                  
  D5                 -125.08575                  
  D6                  -93.97585                  
  D7                  116.46951                  
  D8                 -179.05065                  
  D9                 -160.68102                  
  D10                -118.99562                  
  D11                -146.56692                  
  D12                -120.09737                  
  D13                 178.67023                  
  D14                -179.96343                  
  D15                 127.61282                  
  D16                 178.32528                  
  D17                   1.2261                   
  D18                -120.85814                  
  D19                 120.9069                   
  D20                  -0.9114                   
  D21                 179.9403                   
 

 GradGradGradGradGradGradGradGradGradGradGradGradGradGradGradGradGradGrad
 Berny optimization.
 Initialization pass.
                       ----------------------------
                       !    Initial Parameters    !
                       ! (Angstroms and Degrees)  !
 ----------------------                            ----------------------
 !      Name          Value   Derivative information (Atomic Units)     !
 ------------------------------------------------------------------------
 !       R2          1.0992   estimate D2E/DX2                          !
 !       R3          1.5163   estimate D2E/DX2                          !
 !       R4          1.4257   estimate D2E/DX2                          !
 !       R5          1.0921   estimate D2E/DX2                          !
 !       R6          1.4227   estimate D2E/DX2                          !
 !       R7          1.5266   estimate D2E/DX2                          !
 !       R8          1.3278   estimate D2E/DX2                          !
 !       R9          1.0893   estimate D2E/DX2                          !
 !       R10         1.0985   estimate D2E/DX2                          !
 !       R11         1.499    estimate D2E/DX2                          !
 !       R12         1.0996   estimate D2E/DX2                          !
 !       R13         1.086    estimate D2E/DX2                          !
 !       R14         1.4992   estimate D2E/DX2                          !
 !       R15         1.3276   estimate D2E/DX2                          !
 !       R16         1.0862   estimate D2E/DX2                          !
 !       R17         1.09     estimate D2E/DX2                          !
 !       R18         1.0944   estimate D2E/DX2                          !
 !       R19         1.0942   estimate D2E/DX2                          !
 !       R20         1.083    estimate D2E/DX2                          !
 !       R21         1.0826   estimate D2E/DX2                          !
 !       A3        110.9761   estimate D2E/DX2                          !
 !       A4        110.236    estimate D2E/DX2                          !
 !       A5        108.0511   estimate D2E/DX2                          !
 !       A6        107.3427   estimate D2E/DX2                          !
 !       A7        106.1351   estimate D2E/DX2                          !
 !       A8        126.5041   estimate D2E/DX2                          !
 !       A9        107.8676   estimate D2E/DX2                          !
 !       A10       110.5028   estimate D2E/DX2                          !
 !       A11       115.9304   estimate D2E/DX2                          !
 !       A12       107.048    estimate D2E/DX2                          !
 !       A13       118.7515   estimate D2E/DX2                          !
 !       A14       125.7801   estimate D2E/DX2                          !
 !       A15       126.5585   estimate D2E/DX2                          !
 !       A16       115.128    estimate D2E/DX2                          !
 !       A17       112.5664   estimate D2E/DX2                          !
 !       A18       110.9792   estimate D2E/DX2                          !
 !       A19       110.9357   estimate D2E/DX2                          !
 !       A20       122.696    estimate D2E/DX2                          !
 !       A21       120.9762   estimate D2E/DX2                          !
 !       D4        117.3648   estimate D2E/DX2                          !
 !       D5       -125.0857   estimate D2E/DX2                          !
 !       D6        -93.9758   estimate D2E/DX2                          !
 !       D7        116.4695   estimate D2E/DX2                          !
 !       D8       -179.0507   estimate D2E/DX2                          !
 !       D9       -160.681    estimate D2E/DX2                          !
 !       D10      -118.9956   estimate D2E/DX2                          !
 !       D11      -146.5669   estimate D2E/DX2                          !
 !       D12      -120.0974   estimate D2E/DX2                          !
 !       D13       178.6702   estimate D2E/DX2                          !
 !       D14      -179.9634   estimate D2E/DX2                          !
 !       D15       127.6128   estimate D2E/DX2                          !
 !       D16       178.3253   estimate D2E/DX2                          !
 !       D17         1.2261   estimate D2E/DX2                          !
 !       D18      -120.8581   estimate D2E/DX2                          !
 !       D19       120.9069   estimate D2E/DX2                          !
 !       D20        -0.9114   estimate D2E/DX2                          !
 !       D21       179.9403   estimate D2E/DX2                          !
 ------------------------------------------------------------------------
 Trust Radius=1.00D-01 FncErr=1.00D-07 GrdErr=1.00D-06 EigMax=2.50D+02 EigMin=1.00D-04
 Number of steps in this run=     67 maximum allowed number of steps=    114.
 GradGradGradGradGradGradGradGradGradGradGradGradGradGradGradGradGradGrad

 ---------------------------------------------------------------------------------------------------
                            Z-MATRIX (ANGSTROMS AND DEGREES)
   CD    Cent   Atom    N1       Length/X        N2       Alpha/Y        N3        Beta/Z          J
 ---------------------------------------------------------------------------------------------------
      1      1  H 
      2      2  C        1   1.099154(     1)
      3      3  C        2   1.516267(     2)      1  110.976(    21)
      4      4  O        2   1.425655(     3)      1  110.236(    22)      3  117.365(    40)      0
      5      5  H        2   1.092063(     4)      1  108.051(    23)      3 -125.086(    41)      0
      6      6  C        4   1.422730(     5)      2  107.343(    24)      1  -93.976(    42)      0
      7      7  C        3   1.526597(     6)      2  106.135(    25)      1  116.470(    43)      0
      8      8  C        3   1.327797(     7)      2  126.504(    26)      7 -179.051(    44)      0
      9      9  H        6   1.089295(     8)      4  107.868(    27)      2 -160.681(    45)      0
     10     10  H        6   1.098491(     9)      4  110.503(    28)      9 -118.996(    46)      0
     11     11  C        7   1.498997(    10)      3  115.930(    29)      2 -146.567(    47)      0
     12     12  H        7   1.099591(    11)      3  107.048(    30)     11 -120.097(    48)      0
     13     13  H        8   1.085998(    12)      3  118.751(    31)      2  178.670(    49)      0
     14     14  C        8   1.499240(    13)      3  125.780(    32)     13 -179.963(    50)      0
     15     15  C       11   1.327623(    14)      7  126.558(    33)      3  127.613(    51)      0
     16     16  H       11   1.086185(    15)      7  115.128(    34)     15  178.325(    52)      0
     17     17  H       14   1.090035(    16)      8  112.566(    35)      3    1.226(    53)      0
     18     18  H       14   1.094414(    17)      8  110.979(    36)     17 -120.858(    54)      0
     19     19  H       14   1.094198(    18)      8  110.936(    37)     17  120.907(    55)      0
     20     20  H       15   1.083032(    19)     11  122.696(    38)      7   -0.911(    56)      0
     21     21  H       15   1.082574(    20)     11  120.976(    39)     20  179.940(    57)      0
 ---------------------------------------------------------------------------------------------------
                         Z-Matrix orientation:                         
 ---------------------------------------------------------------------
 Center     Atomic      Atomic             Coordinates (Angstroms)
 Number     Number       Type             X           Y           Z
 ---------------------------------------------------------------------
      1          1           0        0.000000    0.000000    0.000000
      2          6           0        0.000000    0.000000    1.099154
      3          6           0        1.415784    0.000000    1.641946
      4          8           0       -0.614860    1.187970    1.592272
      5          1           0       -0.596824   -0.849644    1.437545
      6          6           0        0.420384    2.135170    1.827312
      7          6           0        1.577928    1.312736    2.404135
      8          6           0        2.329259   -0.947405    1.465794
      9          1           0        0.032483    2.892321    2.507619
     10          1           0        0.719371    2.619442    0.887754
     11          6           0        2.944533    1.927575    2.367326
     12          1           0        1.333433    1.106947    3.456263
     13          1           0        3.316724   -0.807325    1.895542
     14          6           0        2.130185   -2.227593    0.711334
     15          6           0        3.241637    3.174467    2.021534
     16          1           0        3.752717    1.274708    2.684189
     17          1           0        1.131469   -2.309331    0.282309
     18          1           0        2.285859   -3.093946    1.361672
     19          1           0        2.853422   -2.316910   -0.104889
     20          1           0        2.490974    3.889073    1.707206
     21          1           0        4.264001    3.529864    2.042256
 ---------------------------------------------------------------------
                    Distance matrix (angstroms):
                    1          2          3          4          5
     1  H    0.000000
     2  C    1.099154   0.000000
     3  C    2.168047   1.516267   0.000000
     4  O    2.079581   1.425655   2.353138   0.000000
     5  H    1.773311   1.092063   2.194143   2.043560   0.000000
     6  C    2.841609   2.294752   2.363077   1.422730   3.177380
     7  C    3.161170   2.432305   1.526597   2.341582   3.215545
     8  C    2.910597   2.541151   1.327797   3.639185   2.927852
     9  H    3.828149   3.217196   3.320908   2.040030   3.942510
    10  H    2.857810   2.724640   2.813410   2.079815   3.750893
    11  C    4.241468   3.740866   2.564916   3.717123   4.595503
    12  H    3.866411   2.925635   2.126937   2.697569   3.410185
    13  H    3.904550   3.505234   2.080783   4.419336   3.940483
    14  C    3.163203   3.106487   2.517653   4.469608   3.140494
    15  C    4.967097   4.629928   3.681720   4.359244   5.591806
    16  H    4.786714   4.268501   2.858742   4.502836   4.998550
    17  H    2.587070   2.698234   2.694895   4.122716   2.540129
    18  H    4.080662   3.855719   3.226157   5.177080   3.654109
    19  H    3.677104   3.867791   3.238257   5.214741   4.054155
    20  H    4.923860   4.658279   4.035490   4.117690   5.662389
    21  H    5.900208   5.615255   4.553299   5.430492   6.570646
                    6          7          8          9         10
     6  C    0.000000
     7  C    1.532654   0.000000
     8  C    3.643730   2.559926   0.000000
     9  H    1.089295   2.212283   4.593918   0.000000
    10  H    1.098491   2.178075   3.955790   1.780517   0.000000
    11  C    2.589602   1.498997   3.075197   3.070904   2.760282
    12  H    2.131756   1.099591   3.028862   2.404154   3.043346
    13  H    4.129373   2.788681   1.085998   4.984803   4.416403
    14  C    4.816900   3.962890   1.499240   5.817260   5.051264
    15  C    3.012861   2.525936   4.258064   3.257999   2.820520
    16  H    3.546699   2.193076   2.906632   4.060540   3.773151
    17  H    4.758809   4.221474   2.165682   5.763415   4.982890
    18  H    5.571397   4.583312   2.149503   6.498176   5.943172
    19  H    5.429004   4.593084   2.148799   6.474487   5.468737
    20  H    2.716237   2.820793   4.845199   2.770985   2.328527
    21  H    4.094480   3.501657   4.911362   4.304506   3.837466
                   11         12         13         14         15
    11  C    0.000000
    12  H    2.110653   0.000000
    13  H    2.800141   3.167607   0.000000
    14  C    4.546526   4.391880   2.197131   0.000000
    15  C    1.327623   3.158216   3.984492   5.668704   0.000000
    16  H    1.086185   2.545030   2.268682   4.334845   2.075908
    17  H    5.058248   4.667519   3.103849   1.090035   6.127785
    18  H    5.163416   4.789774   2.564437   1.094414   6.375102
    19  H    4.912821   5.168653   2.548572   1.094198   5.901492
    20  H    2.118714   3.484153   4.772158   6.207700   1.083032
    21  H    2.100952   4.056868   4.441855   6.282742   1.082574
                   16         17         18         19         20
    16  H    0.000000
    17  H    5.048297   0.000000
    18  H    4.794358   1.764443   0.000000
    19  H    4.635452   1.764965   1.754057   0.000000
    20  H    3.062906   6.503753   6.994571   6.475283   0.000000
    21  H    2.399837   6.856119   6.946302   6.386293   1.839814
                   21
    21  H    0.000000
 Symmetry turned off by external request.
 Stoichiometry    C8H12O
 Framework group  C1[X(C8H12O)]
 Deg. of freedom    57
 Full point group                 C1      NOp   1
 Rotational constants (GHZ):           2.1699049           1.3231418           0.8735132
 Standard basis: def2TZVP (5D, 7F)
 The following finite field(s) will be applied:
 An electric field of             -0.0013  0.0013 -0.0017
   351 basis functions,   555 primitive gaussians,   396 cartesian basis functions
    34 alpha electrons       34 beta electrons
       nuclear repulsion energy       444.5741881660 Hartrees.
 NAtoms=   21 NActive=   21 NUniq=   21 SFac= 1.00D+00 NAtFMM=   60 NAOKFM=F Big=F
 Integral buffers will be    131072 words long.
 Raffenetti 2 integral format.
 Two-electron integral symmetry is turned off.
 One-electron integrals computed using PRISM.
   1 Symmetry operations used in ECPInt.
 ECPInt:  NShTT=   10878 NPrTT=   32112 LenC2=   10560 LenP2D=   24705.
 LDataN:  DoStor=T MaxTD1= 6 Len=  172
 NBasis=   351 RedAO= T EigKep=  6.87D-05  NBF=   351
 NBsUse=   351 1.00D-06 EigRej= -1.00D+00 NBFU=   351
 The nuclear repulsion energy is now       444.0838488473 hartrees.
 ExpMin= 9.52D-02 ExpMax= 2.70D+04 ExpMxC= 9.22D+02 IAcc=3 IRadAn=         5 AccDes= 0.00D+00
 Harris functional with IExCor=  402 and IRadAn=       5 diagonalized for initial guess.
 HarFok:  IExCor=  402 AccDes= 0.00D+00 IRadAn=         5 IDoV= 1 UseB2=F ITyADJ=14
 ICtDFT=  3500011 ScaDFX=  1.000000  1.000000  1.000000  1.000000
 FoFCou: FMM=F IPFlag=           0 FMFlag=      100000 FMFlg1=           0
         NFxFlg=           0 DoJE=T BraDBF=F KetDBF=T FulRan=T
         wScrn=  0.000000 ICntrl=       500 IOpCl=  0 I1Cent=   200000004 NGrid=           0
         NMat0=    1 NMatS0=      1 NMatT0=    0 NMatD0=    1 NMtDS0=    0 NMtDT0=    0
 Symmetry not used in FoFCou.
 Requested convergence on RMS density matrix=1.00D-08 within 128 cycles.
 Requested convergence on MAX density matrix=1.00D-06.
 Requested convergence on             energy=1.00D-06.
 No special actions if energy rises.
 Integral accuracy reduced to 1.0D-05 until final iterations.
 Initial convergence to 1.0D-05 achieved.  Increase integral accuracy.
 SCF Done:  E(RB3LYP) =  -387.392663632     A.U. after   14 cycles
            NFock= 14  Conv=0.50D-08     -V/T= 2.0053
   1 Symmetry operations used in ECPInt.
 ECPInt:  NShTT=   10878 NPrTT=   32112 LenC2=   10560 LenP2D=   24705.
 LDataN:  DoStor=T MaxTD1= 7 Len=  274
 Calling FoFJK, ICntrl=      2127 FMM=F ISym2X=0 I1Cent= 0 IOpClX= 0 NMat=1 NMatS=1 NMatT=0.
 -------------------------------------------------------------------
 Center     Atomic                   Forces (Hartrees/Bohr)
 Number     Number              X              Y              Z
 -------------------------------------------------------------------
      1        1          -0.000054410    0.000032452   -0.000288266
      2        6           0.000383994   -0.000757724    0.000498187
      3        6           0.000257050    0.000040411   -0.000286146
      4        8          -0.000839549    0.000685966   -0.000629132
      5        1           0.000015026    0.000048837    0.000055420
      6        6           0.000404737   -0.000451144    0.000668113
      7        6          -0.000166876    0.000095710    0.000281219
      8        6           0.000104901    0.000089608   -0.000353640
      9        1          -0.000017695    0.000035925    0.000161395
     10        1           0.000147094    0.000109232   -0.000305375
     11        6           0.000058581   -0.000239416   -0.000125769
     12        1           0.000133441    0.000127353   -0.000076714
     13        1          -0.000233707   -0.000169822    0.000067468
     14        6          -0.000016154   -0.000084739    0.000224612
     15        6           0.000260633   -0.000035573   -0.000294243
     16        1          -0.000195089    0.000176819    0.000071564
     17        1          -0.000217464   -0.000018533    0.000026044
     18        1           0.000075690    0.000280454   -0.000134934
     19        1           0.000149811   -0.000022140    0.000181766
     20        1          -0.000210565    0.000099748    0.000090509
     21        1          -0.000039450   -0.000043426    0.000167922
 -------------------------------------------------------------------
 Cartesian Forces:  Max     0.000839549 RMS     0.000276180
 -----------------------------------------------------------------------------------------------
                       Internal Coordinate Forces (Hartree/Bohr or radian)
  Cent   Atom   N1       Length/X         N2         Alpha/Y        N3         Beta/Z          J
 -----------------------------------------------------------------------------------------------
      1  H 
      2  C        1   0.000288(     1)
      3  C        2  -0.000094(     2)      1  -0.000022(    21)
      4  O        2   0.000412(     3)      1  -0.000028(    22)      3  -0.001384(    40)     0
      5  H        2  -0.000029(     4)      1   0.000140(    23)      3  -0.000031(    41)     0
      6  C        4   0.000272(     5)      2  -0.001146(    24)      1  -0.001720(    42)     0
      7  C        3   0.000196(     6)      2  -0.000612(    25)      1  -0.000647(    43)     0
      8  C        3  -0.000149(     7)      2   0.000102(    26)      7  -0.000598(    44)     0
      9  H        6   0.000132(     8)      4  -0.000006(    27)      2   0.000065(    45)     0
     10  H        6   0.000349(     9)      4   0.000015(    28)      9  -0.000133(    46)     0
     11  C        7  -0.000130(    10)      3   0.000118(    29)      2   0.000194(    47)     0
     12  H        7  -0.000127(    11)      3   0.000266(    30)     11   0.000170(    48)     0
     13  H        8  -0.000208(    12)      3   0.000120(    31)      2  -0.000138(    49)     0
     14  C        8  -0.000281(    13)      3   0.000318(    32)     13  -0.000504(    50)     0
     15  C       11   0.000031(    14)      7  -0.000028(    33)      3  -0.000091(    51)     0
     16  H       11  -0.000231(    15)      7  -0.000021(    34)     15  -0.000270(    52)     0
     17  H       14   0.000190(    16)      8  -0.000092(    35)      3   0.000029(    53)     0
     18  H       14  -0.000291(    17)      8  -0.000171(    36)     17  -0.000201(    54)     0
     19  H       14  -0.000035(    18)      8  -0.000177(    37)     17   0.000421(    55)     0
     20  H       15   0.000185(    19)     11  -0.000188(    38)      7  -0.000024(    56)     0
     21  H       15  -0.000048(    20)     11  -0.000163(    39)     20  -0.000266(    57)     0
 -----------------------------------------------------------------------------------------------
 Internal  Forces:  Max     0.001720299 RMS     0.000404864

 GradGradGradGradGradGradGradGradGradGradGradGradGradGradGradGradGradGrad
 Berny optimization.
 Search for a local minimum.
 Step number   1 out of a maximum of   67
 All quantities printed in internal units (Hartrees-Bohrs-Radians)
 Second derivative matrix not updated -- first step.
 ITU=  0
     Eigenvalues ---    0.03118   0.03481   0.03960   0.04817   0.05529
     Eigenvalues ---    0.06981   0.07752   0.08212   0.09592   0.10781
     Eigenvalues ---    0.12836   0.13974   0.15531   0.16227   0.16297
     Eigenvalues ---    0.17553   0.20685   0.20824   0.23018   0.23379
     Eigenvalues ---    0.24588   0.25455   0.28235   0.28997   0.29523
     Eigenvalues ---    0.31143   0.32261   0.32457   0.32483   0.33727
     Eigenvalues ---    0.33776   0.33850   0.34307   0.34332   0.34575
     Eigenvalues ---    0.34806   0.34841   0.34894   0.35257   0.35275
     Eigenvalues ---    0.35280   0.35630   0.35685   0.39458   0.39557
     Eigenvalues ---    0.39781   0.42780   0.48263   0.53955   0.54222
     Eigenvalues ---    0.60022   0.60071   0.60939   0.81604   1.47568
     Eigenvalues ---    2.75682  10.66544
 RFO step:  Lambda=-2.70317000D-05 EMin= 3.11780062D-02
 Linear search not attempted -- first point.
 Variable       Old X    -DE/DX   Delta X   Delta X   Delta X     New X
                                 (Linear)    (Quad)   (Total)
    R2        2.07710   0.00029   0.00000   0.00085   0.00085   2.07795
    R3        2.86533  -0.00009   0.00000   0.00022   0.00022   2.86555
    R4        2.69410   0.00041   0.00000   0.00165   0.00165   2.69575
    R5        2.06370  -0.00003   0.00000  -0.00009  -0.00009   2.06362
    R6        2.68857   0.00027   0.00000   0.00092   0.00092   2.68949
    R7        2.88485   0.00020   0.00000  -0.00001  -0.00001   2.88484
    R8        2.50917  -0.00015   0.00000  -0.00025  -0.00025   2.50892
    R9        2.05847   0.00013   0.00000   0.00038   0.00038   2.05885
   R10        2.07585   0.00035   0.00000   0.00104   0.00104   2.07688
   R11        2.83269  -0.00013   0.00000  -0.00040  -0.00040   2.83229
   R12        2.07793  -0.00013   0.00000  -0.00038  -0.00038   2.07755
   R13        2.05224  -0.00021   0.00000  -0.00059  -0.00059   2.05165
   R14        2.83315  -0.00028   0.00000  -0.00087  -0.00087   2.83229
   R15        2.50884   0.00003   0.00000   0.00005   0.00005   2.50889
   R16        2.05259  -0.00023   0.00000  -0.00065  -0.00065   2.05194
   R17        2.05987   0.00019   0.00000   0.00055   0.00055   2.06041
   R18        2.06814  -0.00029   0.00000  -0.00085  -0.00085   2.06730
   R19        2.06773  -0.00003   0.00000  -0.00010  -0.00010   2.06764
   R20        2.04663   0.00019   0.00000   0.00052   0.00052   2.04716
   R21        2.04577  -0.00005   0.00000  -0.00013  -0.00013   2.04564
    A3        1.93690  -0.00002   0.00000   0.00259   0.00259   1.93949
    A4        1.92398  -0.00003   0.00000  -0.00509  -0.00509   1.91889
    A5        1.88585   0.00014   0.00000   0.00041   0.00041   1.88626
    A6        1.87348  -0.00115   0.00000   0.00030   0.00030   1.87378
    A7        1.85241  -0.00061   0.00000   0.00046   0.00046   1.85287
    A8        2.20791   0.00010   0.00000  -0.00010  -0.00010   2.20781
    A9        1.88265  -0.00001   0.00000  -0.00004  -0.00004   1.88261
   A10        1.92864   0.00002   0.00000  -0.00067  -0.00067   1.92796
   A11        2.02337   0.00012   0.00000  -0.00018  -0.00018   2.02319
   A12        1.86834   0.00027   0.00000   0.00131   0.00131   1.86965
   A13        2.07260   0.00012   0.00000   0.00006   0.00006   2.07267
   A14        2.19528   0.00032   0.00000   0.00068   0.00068   2.19596
   A15        2.20886  -0.00003   0.00000  -0.00013  -0.00013   2.20873
   A16        2.00936  -0.00002   0.00000   0.00002   0.00002   2.00938
   A17        1.96465  -0.00009   0.00000   0.00060   0.00060   1.96526
   A18        1.93695  -0.00017   0.00000  -0.00112  -0.00112   1.93583
   A19        1.93619  -0.00018   0.00000  -0.00067  -0.00067   1.93552
   A20        2.14145  -0.00019   0.00000  -0.00046  -0.00046   2.14099
   A21        2.11143  -0.00016   0.00000  -0.00026  -0.00026   2.11117
    D4        2.04840  -0.00138   0.00000  -0.00012  -0.00012   2.04828
    D5       -2.18316  -0.00003   0.00000  -0.00262  -0.00262  -2.18578
    D6       -1.64019  -0.00172   0.00000  -0.01001  -0.01001  -1.65020
    D7        2.03278  -0.00065   0.00000   0.00235   0.00235   2.03512
    D8       -3.12502  -0.00060   0.00000  -0.00478  -0.00478  -3.12980
    D9       -2.80441   0.00006   0.00000   0.00654   0.00654  -2.79787
   D10       -2.07687  -0.00013   0.00000   0.00014   0.00014  -2.07672
   D11       -2.55808   0.00019   0.00000  -0.00090  -0.00090  -2.55898
   D12       -2.09609   0.00017   0.00000  -0.00002  -0.00002  -2.09611
   D13        3.11838  -0.00014   0.00000   0.00392   0.00392   3.12231
   D14       -3.14095  -0.00050   0.00000  -0.00526  -0.00526  -3.14621
   D15        2.22726  -0.00009   0.00000  -0.00072  -0.00072   2.22654
   D16        3.11236  -0.00027   0.00000  -0.00254  -0.00254   3.10982
   D17        0.02140   0.00003   0.00000   0.00113   0.00113   0.02253
   D18       -2.10937  -0.00020   0.00000  -0.00021  -0.00021  -2.10958
   D19        2.11022   0.00042   0.00000   0.00230   0.00230   2.11252
   D20       -0.01591  -0.00002   0.00000   0.00058   0.00058  -0.01532
   D21        3.14055  -0.00027   0.00000  -0.00372  -0.00372   3.13683
         Item               Value     Threshold  Converged?
 Maximum Force            0.001720     0.000450     NO 
 RMS     Force            0.000405     0.000300     NO 
 Maximum Displacement     0.010008     0.001800     NO 
 RMS     Displacement     0.002282     0.001200     NO 
 Predicted change in Energy=-1.351585D-05
 GradGradGradGradGradGradGradGradGradGradGradGradGradGradGradGradGradGrad

 ---------------------------------------------------------------------------------------------------
                            Z-MATRIX (ANGSTROMS AND DEGREES)
   CD    Cent   Atom    N1       Length/X        N2       Alpha/Y        N3        Beta/Z          J
 ---------------------------------------------------------------------------------------------------
      1      1  H 
      2      2  C        1   1.099605(     1)
      3      3  C        2   1.516383(     2)      1  111.125(    21)
      4      4  O        2   1.426529(     3)      1  109.944(    22)      3  117.358(    40)      0
      5      5  H        2   1.092018(     4)      1  108.075(    23)      3 -125.236(    41)      0
      6      6  C        4   1.423216(     5)      2  107.360(    24)      1  -94.549(    42)      0
      7      7  C        3   1.526593(     6)      2  106.162(    25)      1  116.604(    43)      0
      8      8  C        3   1.327665(     7)      2  126.498(    26)      7 -179.324(    44)      0
      9      9  H        6   1.089496(     8)      4  107.866(    27)      2 -160.306(    45)      0
     10     10  H        6   1.099040(     9)      4  110.464(    28)      9 -118.987(    46)      0
     11     11  C        7   1.498785(    10)      3  115.920(    29)      2 -146.619(    47)      0
     12     12  H        7   1.099391(    11)      3  107.123(    30)     11 -120.098(    48)      0
     13     13  H        8   1.085688(    12)      3  118.755(    31)      2  178.895(    49)      0
     14     14  C        8   1.498782(    13)      3  125.819(    32)     13 -180.265(    50)      0
     15     15  C       11   1.327650(    14)      7  126.551(    33)      3  127.571(    51)      0
     16     16  H       11   1.085839(    15)      7  115.129(    34)     15  178.180(    52)      0
     17     17  H       14   1.090324(    16)      8  112.601(    35)      3    1.291(    53)      0
     18     18  H       14   1.093966(    17)      8  110.915(    36)     17 -120.870(    54)      0
     19     19  H       14   1.094147(    18)      8  110.897(    37)     17  121.039(    55)      0
     20     20  H       15   1.083308(    19)     11  122.670(    38)      7   -0.878(    56)      0
     21     21  H       15   1.082504(    20)     11  120.961(    39)     20  179.727(    57)      0
 ---------------------------------------------------------------------------------------------------
                         Z-Matrix orientation:                         
 ---------------------------------------------------------------------
 Center     Atomic      Atomic             Coordinates (Angstroms)
 Number     Number       Type             X           Y           Z
 ---------------------------------------------------------------------
      1          1           0        0.000000    0.000000    0.000000
      2          6           0        0.000000    0.000000    1.099605
      3          6           0        1.414479    0.000000    1.646111
      4          8           0       -0.616239    1.190992    1.586200
      5          1           0       -0.598946   -0.847927    1.438408
      6          6           0        0.419865    2.135159    1.832329
      7          6           0        1.574199    1.311019    2.411750
      8          6           0        2.327401   -0.948573    1.474423
      9          1           0        0.029117    2.890155    2.513723
     10          1           0        0.725500    2.623022    0.896132
     11          6           0        2.940804    1.925649    2.380497
     12          1           0        1.326662    1.104290    3.462773
     13          1           0        3.312494   -0.810241    1.909364
     14          6           0        2.129551   -2.230859    0.724126
     15          6           0        3.239064    3.173091    2.037593
     16          1           0        3.747291    1.273195    2.701324
     17          1           0        1.131897   -2.313944    0.292166
     18          1           0        2.283066   -3.093937    1.378565
     19          1           0        2.856803   -2.324033   -0.088020
     20          1           0        2.488842    3.888173    1.722343
     21          1           0        4.261008    3.529021    2.065111
 ---------------------------------------------------------------------
                    Distance matrix (angstroms):
                    1          2          3          4          5
     1  H    0.000000
     2  C    1.099605   0.000000
     3  C    2.170353   1.516383   0.000000
     4  O    2.077075   1.426529   2.354966   0.000000
     5  H    1.773904   1.092018   2.194539   2.044341   0.000000
     6  C    2.844753   2.296100   2.362803   1.423216   3.176784
     7  C    3.164397   2.432817   1.526593   2.343919   3.214188
     8  C    2.913848   2.541077   1.327665   3.640776   2.928299
     9  H    3.830489   3.217697   3.320388   2.040573   3.940054
    10  H    2.865248   2.729102   2.813789   2.080185   3.754425
    11  C    4.245376   3.741275   2.564589   3.717955   4.594572
    12  H    3.869145   2.926440   2.127776   2.702575   3.408397
    13  H    3.908296   3.504970   2.080446   4.420895   3.939871
    14  C    3.167977   3.106880   2.517561   4.471196   3.141242
    15  C    4.971099   4.630320   3.681152   4.358421   5.590879
    16  H    4.791698   4.269510   2.859460   4.504515   4.998389
    17  H    2.592467   2.699534   2.695803   4.124934   2.541436
    18  H    4.084762   3.855211   3.224666   5.177808   3.654332
    19  H    3.683775   3.869484   3.238616   5.217320   4.055993
    20  H    4.927341   4.658329   4.034595   4.115198   5.660892
    21  H    5.905494   5.616260   4.553271   5.429851   6.570357
                    6          7          8          9         10
     6  C    0.000000
     7  C    1.532130   0.000000
     8  C    3.643651   2.559619   0.000000
     9  H    1.089496   2.211640   4.593266   0.000000
    10  H    1.099040   2.176865   3.956868   1.781266   0.000000
    11  C    2.588343   1.498785   3.075449   3.070171   2.756310
    12  H    2.131507   1.099391   3.028078   2.402840   3.042301
    13  H    4.128997   2.788154   1.085688   4.983849   4.416614
    14  C    4.818014   3.962498   1.498782   5.817153   5.055800
    15  C    3.011198   2.525684   4.258686   3.257378   2.814874
    16  H    3.545405   2.192627   2.908200   4.058888   3.769877
    17  H    4.761682   4.222395   2.165918   5.764901   4.990347
    18  H    5.569638   4.579695   2.147962   6.494477   5.944946
    19  H    5.432385   4.594293   2.147879   6.477085   5.475798
    20  H    2.714004   2.820209   4.845786   2.769941   2.322199
    21  H    4.092850   3.501233   4.912901   4.303291   3.832384
                   11         12         13         14         15
    11  C    0.000000
    12  H    2.109836   0.000000
    13  H    2.800931   3.165759   0.000000
    14  C    4.547335   4.389537   2.195973   0.000000
    15  C    1.327650   3.157271   3.986072   5.670881   0.000000
    16  H    1.085839   2.543183   2.270893   4.336449   2.075678
    17  H    5.060378   4.666370   3.103459   1.090324   6.131413
    18  H    5.160691   4.783695   2.560613   1.093966   6.373688
    19  H    4.915326   5.167481   2.547305   1.094147   5.906160
    20  H    2.118711   3.482782   4.773727   6.210320   1.083308
    21  H    2.100763   4.055017   4.444449   6.286300   1.082504
                   16         17         18         19         20
    16  H    0.000000
    17  H    5.050930   0.000000
    18  H    4.792232   1.764609   0.000000
    19  H    4.638260   1.766337   1.752940   0.000000
    20  H    3.062712   6.507915   6.993596   6.481073   0.000000
    21  H    2.399462   6.861116   6.946018   6.392652   1.840395
                   21
    21  H    0.000000
 Symmetry turned off by external request.
 Stoichiometry    C8H12O
 Framework group  C1[X(C8H12O)]
 Deg. of freedom    57
 Full point group                 C1      NOp   1
 Rotational constants (GHZ):           2.1705889           1.3225957           0.8731512
 Standard basis: def2TZVP (5D, 7F)
 The following finite field(s) will be applied:
 An electric field of             -0.0013  0.0013 -0.0017
   351 basis functions,   555 primitive gaussians,   396 cartesian basis functions
    34 alpha electrons       34 beta electrons
       nuclear repulsion energy       444.5345210798 Hartrees.
 NAtoms=   21 NActive=   21 NUniq=   21 SFac= 1.00D+00 NAtFMM=   60 NAOKFM=F Big=F
 Integral buffers will be    131072 words long.
 Raffenetti 2 integral format.
 Two-electron integral symmetry is turned off.
 One-electron integrals computed using PRISM.
   1 Symmetry operations used in ECPInt.
 ECPInt:  NShTT=   10878 NPrTT=   32112 LenC2=   10560 LenP2D=   24703.
 LDataN:  DoStor=T MaxTD1= 6 Len=  172
 NBasis=   351 RedAO= T EigKep=  6.88D-05  NBF=   351
 NBsUse=   351 1.00D-06 EigRej= -1.00D+00 NBFU=   351
 The nuclear repulsion energy is now       444.0427861722 hartrees.
 Initial guess from the checkpoint file:  "checkpoint.chk"
 B after Tr=     0.010348    0.000901    0.000539
         Rot=    0.999997    0.000053    0.002376    0.000468 Ang=   0.28 deg.
 Requested convergence on RMS density matrix=1.00D-08 within 128 cycles.
 Requested convergence on MAX density matrix=1.00D-06.
 Requested convergence on             energy=1.00D-06.
 No special actions if energy rises.
 SCF Done:  E(RB3LYP) =  -387.392680858     A.U. after    8 cycles
            NFock=  8  Conv=0.80D-08     -V/T= 2.0053
   1 Symmetry operations used in ECPInt.
 ECPInt:  NShTT=   10878 NPrTT=   32112 LenC2=   10560 LenP2D=   24703.
 LDataN:  DoStor=T MaxTD1= 7 Len=  274
 Calling FoFJK, ICntrl=      2127 FMM=F ISym2X=0 I1Cent= 0 IOpClX= 0 NMat=1 NMatS=1 NMatT=0.
 -------------------------------------------------------------------
 Center     Atomic                   Forces (Hartrees/Bohr)
 Number     Number              X              Y              Z
 -------------------------------------------------------------------
      1        1           0.000281729   -0.000377589    0.000036308
      2        6           0.000068249   -0.000029687   -0.000191605
      3        6          -0.000171961   -0.000008094   -0.000045437
      4        8          -0.000162460    0.000449543   -0.000002501
      5        1           0.000039799   -0.000003711    0.000085701
      6        6           0.000206265   -0.000042754    0.000128350
      7        6          -0.000325696    0.000006338    0.000027972
      8        6          -0.000048189    0.000021932   -0.000128522
      9        1          -0.000004400   -0.000014265    0.000037048
     10        1          -0.000045248    0.000028275   -0.000022201
     11        6           0.000016448    0.000041257   -0.000063805
     12        1           0.000094907   -0.000057608    0.000001552
     13        1          -0.000020265   -0.000044089    0.000097211
     14        6          -0.000050006    0.000016091   -0.000086909
     15        6           0.000063027    0.000052729   -0.000136327
     16        1          -0.000013403    0.000007298    0.000051741
     17        1           0.000025354    0.000001165    0.000019526
     18        1           0.000029304    0.000027930    0.000049093
     19        1           0.000026923   -0.000049929    0.000018397
     20        1          -0.000002023   -0.000012358    0.000059478
     21        1          -0.000008355   -0.000012474    0.000064928
 -------------------------------------------------------------------
 Cartesian Forces:  Max     0.000449543 RMS     0.000113540
 -----------------------------------------------------------------------------------------------
                       Internal Coordinate Forces (Hartree/Bohr or radian)
  Cent   Atom   N1       Length/X         N2         Alpha/Y        N3         Beta/Z          J
 -----------------------------------------------------------------------------------------------
      1  H 
      2  C        1  -0.000036(     1)
      3  C        2  -0.000384(     2)      1   0.000573(    21)
      4  O        2   0.000402(     3)      1   0.000296(    22)      3  -0.000738(    40)     0
      5  H        2   0.000008(     4)      1   0.000181(    23)      3   0.000068(    41)     0
      6  C        4   0.000120(     5)      2  -0.000181(    24)      1  -0.000326(    42)     0
      7  C        3   0.000006(     6)      2  -0.000477(    25)      1   0.000159(    43)     0
      8  C        3  -0.000002(     7)      2   0.000027(    26)      7  -0.000131(    44)     0
      9  H        6   0.000015(     8)      4  -0.000023(    27)      2   0.000162(    45)     0
     10  H        6   0.000019(     9)      4  -0.000055(    28)      9   0.000093(    46)     0
     11  C        7   0.000083(    10)      3   0.000070(    29)      2   0.000136(    47)     0
     12  H        7  -0.000009(    11)      3  -0.000078(    30)     11   0.000207(    48)     0
     13  H        8   0.000015(    12)      3  -0.000005(    31)      2   0.000097(    49)     0
     14  C        8  -0.000000(    13)      3   0.000155(    32)     13  -0.000097(    50)     0
     15  C       11   0.000041(    14)      7   0.000132(    33)      3  -0.000025(    51)     0
     16  H       11   0.000001(    15)      7  -0.000024(    34)     15  -0.000098(    52)     0
     17  H       14  -0.000031(    16)      8  -0.000005(    35)      3   0.000053(    53)     0
     18  H       14   0.000011(    17)      8  -0.000125(    36)     17  -0.000032(    54)     0
     19  H       14   0.000008(    18)      8   0.000060(    37)     17   0.000100(    55)     0
     20  H       15  -0.000024(    19)     11  -0.000035(    38)      7  -0.000012(    56)     0
     21  H       15  -0.000010(    20)     11  -0.000060(    39)     20  -0.000103(    57)     0
 -----------------------------------------------------------------------------------------------
 Internal  Forces:  Max     0.000737745 RMS     0.000186092

 GradGradGradGradGradGradGradGradGradGradGradGradGradGradGradGradGradGrad
 Berny optimization.
 Search for a local minimum.
 Step number   2 out of a maximum of   67
 All quantities printed in internal units (Hartrees-Bohrs-Radians)
 Update second derivatives using D2CorN and points    1    2
 DE= -1.72D-05 DEPred=-1.35D-05 R= 1.27D+00
 TightC=F SS=  1.41D+00  RLast= 1.72D-02 DXNew= 1.6818D-01 5.1692D-02
 Trust test= 1.27D+00 RLast= 1.72D-02 DXMaxT set to 1.00D-01
 ITU=  1  0
     Eigenvalues ---    0.02513   0.03183   0.03576   0.04612   0.05527
     Eigenvalues ---    0.06605   0.07732   0.08199   0.09560   0.10494
     Eigenvalues ---    0.12816   0.13946   0.15506   0.16224   0.16292
     Eigenvalues ---    0.17554   0.20677   0.20828   0.23011   0.23382
     Eigenvalues ---    0.24607   0.25447   0.28118   0.29009   0.29540
     Eigenvalues ---    0.31141   0.32305   0.32460   0.32508   0.33726
     Eigenvalues ---    0.33787   0.33845   0.34311   0.34332   0.34575
     Eigenvalues ---    0.34810   0.34822   0.34893   0.35258   0.35273
     Eigenvalues ---    0.35283   0.35635   0.35685   0.39473   0.39541
     Eigenvalues ---    0.39702   0.42679   0.48254   0.53934   0.54224
     Eigenvalues ---    0.60019   0.60070   0.60927   0.81633   1.47583
     Eigenvalues ---    2.75721  10.66488
 RFO step:  Lambda=-6.14551877D-06 EMin= 2.51280697D-02
 Quartic linear search produced a step of  0.38634.
 Variable       Old X    -DE/DX   Delta X   Delta X   Delta X     New X
                                 (Linear)    (Quad)   (Total)
    R2        2.07795  -0.00004   0.00033  -0.00048  -0.00015   2.07781
    R3        2.86555  -0.00038   0.00008  -0.00126  -0.00118   2.86437
    R4        2.69575   0.00040   0.00064   0.00135   0.00198   2.69773
    R5        2.06362   0.00001  -0.00003   0.00007   0.00003   2.06365
    R6        2.68949   0.00012   0.00035  -0.00018   0.00018   2.68967
    R7        2.88484   0.00001  -0.00000  -0.00008  -0.00008   2.88476
    R8        2.50892  -0.00000  -0.00010   0.00009  -0.00001   2.50891
    R9        2.05885   0.00001   0.00015  -0.00006   0.00008   2.05893
   R10        2.07688   0.00002   0.00040  -0.00028   0.00012   2.07701
   R11        2.83229   0.00008  -0.00015   0.00055   0.00039   2.83269
   R12        2.07755  -0.00001  -0.00015   0.00009  -0.00005   2.07750
   R13        2.05165   0.00001  -0.00023   0.00028   0.00005   2.05170
   R14        2.83229  -0.00000  -0.00033   0.00031  -0.00002   2.83226
   R15        2.50889   0.00004   0.00002   0.00009   0.00011   2.50900
   R16        2.05194   0.00000  -0.00025   0.00024  -0.00001   2.05192
   R17        2.06041  -0.00003   0.00021  -0.00034  -0.00013   2.06029
   R18        2.06730   0.00001  -0.00033   0.00036   0.00003   2.06732
   R19        2.06764   0.00001  -0.00004   0.00008   0.00004   2.06768
   R20        2.04716  -0.00002   0.00020  -0.00029  -0.00009   2.04706
   R21        2.04564  -0.00001  -0.00005   0.00001  -0.00005   2.04559
    A3        1.93949   0.00057   0.00100   0.00130   0.00231   1.94180
    A4        1.91889   0.00030  -0.00197   0.00128  -0.00069   1.91820
    A5        1.88626   0.00018   0.00016  -0.00019  -0.00003   1.88622
    A6        1.87378  -0.00018   0.00012   0.00133   0.00144   1.87523
    A7        1.85287  -0.00048   0.00018   0.00032   0.00050   1.85337
    A8        2.20781   0.00003  -0.00004  -0.00017  -0.00020   2.20761
    A9        1.88261  -0.00002  -0.00001  -0.00025  -0.00026   1.88235
   A10        1.92796  -0.00005  -0.00026  -0.00010  -0.00036   1.92760
   A11        2.02319   0.00007  -0.00007  -0.00002  -0.00009   2.02310
   A12        1.86965  -0.00008   0.00051  -0.00102  -0.00051   1.86914
   A13        2.07267  -0.00001   0.00002  -0.00038  -0.00036   2.07231
   A14        2.19596   0.00016   0.00026   0.00046   0.00073   2.19669
   A15        2.20873   0.00013  -0.00005   0.00063   0.00058   2.20931
   A16        2.00938  -0.00002   0.00001  -0.00038  -0.00038   2.00900
   A17        1.96526  -0.00000   0.00023   0.00013   0.00036   1.96562
   A18        1.93583  -0.00012  -0.00043  -0.00100  -0.00144   1.93440
   A19        1.93552   0.00006  -0.00026   0.00098   0.00073   1.93625
   A20        2.14099  -0.00004  -0.00018   0.00010  -0.00007   2.14092
   A21        2.11117  -0.00006  -0.00010  -0.00013  -0.00024   2.11093
    D4        2.04828  -0.00074  -0.00005   0.00109   0.00104   2.04932
    D5       -2.18578   0.00007  -0.00101   0.00092  -0.00009  -2.18588
    D6       -1.65020  -0.00033  -0.00387  -0.00505  -0.00892  -1.65911
    D7        2.03512   0.00016   0.00091   0.00486   0.00576   2.04089
    D8       -3.12980  -0.00013  -0.00185  -0.00206  -0.00391  -3.13371
    D9       -2.79787   0.00016   0.00253   0.00320   0.00573  -2.79214
   D10       -2.07672   0.00009   0.00006   0.00020   0.00026  -2.07646
   D11       -2.55898   0.00014  -0.00035  -0.00190  -0.00225  -2.56123
   D12       -2.09611   0.00021  -0.00001   0.00156   0.00155  -2.09456
   D13        3.12231   0.00010   0.00152   0.00357   0.00509   3.12739
   D14       -3.14621  -0.00010  -0.00203  -0.00205  -0.00408  -3.15030
   D15        2.22654  -0.00003  -0.00028   0.00030   0.00002   2.22656
   D16        3.10982  -0.00010  -0.00098  -0.00072  -0.00170   3.10812
   D17        0.02253   0.00005   0.00044   0.00144   0.00188   0.02441
   D18       -2.10958  -0.00003  -0.00008   0.00057   0.00049  -2.10909
   D19        2.11252   0.00010   0.00089   0.00062   0.00151   2.11403
   D20       -0.01532  -0.00001   0.00023   0.00033   0.00056  -0.01476
   D21        3.13683  -0.00010  -0.00144  -0.00120  -0.00263   3.13420
         Item               Value     Threshold  Converged?
 Maximum Force            0.000738     0.000450     NO 
 RMS     Force            0.000186     0.000300     YES
 Maximum Displacement     0.008918     0.001800     NO 
 RMS     Displacement     0.002079     0.001200     NO 
 Predicted change in Energy=-3.979592D-06
 GradGradGradGradGradGradGradGradGradGradGradGradGradGradGradGradGradGrad

 ---------------------------------------------------------------------------------------------------
                            Z-MATRIX (ANGSTROMS AND DEGREES)
   CD    Cent   Atom    N1       Length/X        N2       Alpha/Y        N3        Beta/Z          J
 ---------------------------------------------------------------------------------------------------
      1      1  H 
      2      2  C        1   1.099528(     1)
      3      3  C        2   1.515759(     2)      1  111.257(    21)
      4      4  O        2   1.427580(     3)      1  109.905(    22)      3  117.418(    40)      0
      5      5  H        2   1.092035(     4)      1  108.073(    23)      3 -125.241(    41)      0
      6      6  C        4   1.423310(     5)      2  107.443(    24)      1  -95.060(    42)      0
      7      7  C        3   1.526548(     6)      2  106.190(    25)      1  116.934(    43)      0
      8      8  C        3   1.327659(     7)      2  126.487(    26)      7 -179.548(    44)      0
      9      9  H        6   1.089539(     8)      4  107.850(    27)      2 -159.978(    45)      0
     10     10  H        6   1.099104(     9)      4  110.443(    28)      9 -118.973(    46)      0
     11     11  C        7   1.498994(    10)      3  115.915(    29)      2 -146.748(    47)      0
     12     12  H        7   1.099364(    11)      3  107.094(    30)     11 -120.010(    48)      0
     13     13  H        8   1.085715(    12)      3  118.735(    31)      2  179.186(    49)      0
     14     14  C        8   1.498769(    13)      3  125.861(    32)     13 -180.499(    50)      0
     15     15  C       11   1.327706(    14)      7  126.584(    33)      3  127.573(    51)      0
     16     16  H       11   1.085832(    15)      7  115.107(    34)     15  178.082(    52)      0
     17     17  H       14   1.090257(    16)      8  112.622(    35)      3    1.399(    53)      0
     18     18  H       14   1.093980(    17)      8  110.833(    36)     17 -120.842(    54)      0
     19     19  H       14   1.094168(    18)      8  110.939(    37)     17  121.125(    55)      0
     20     20  H       15   1.083259(    19)     11  122.665(    38)      7   -0.846(    56)      0
     21     21  H       15   1.082479(    20)     11  120.948(    39)     20  179.576(    57)      0
 ---------------------------------------------------------------------------------------------------
                         Z-Matrix orientation:                         
 ---------------------------------------------------------------------
 Center     Atomic      Atomic             Coordinates (Angstroms)
 Number     Number       Type             X           Y           Z
 ---------------------------------------------------------------------
      1          1           0        0.000000    0.000000    0.000000
      2          6           0        0.000000    0.000000    1.099528
      3          6           0        1.412633    0.000000    1.649067
      4          8           0       -0.618089    1.191523    1.585555
      5          1           0       -0.599042   -0.847893    1.438302
      6          6           0        0.416611    2.134239    1.843418
      7          6           0        1.568565    1.306985    2.422258
      8          6           0        2.326406   -0.947803    1.477700
      9          1           0        0.022270    2.883839    2.528757
     10          1           0        0.725792    2.629246    0.912072
     11          6           0        2.935184    1.922472    2.399669
     12          1           0        1.318394    1.093662    3.471310
     13          1           0        3.308873   -0.811599    1.919271
     14          6           0        2.132264   -2.228570    0.723872
     15          6           0        3.234969    3.171759    2.064682
     16          1           0        3.740220    1.268912    2.721859
     17          1           0        1.136881   -2.311168    0.286778
     18          1           0        2.282451   -3.092003    1.378638
     19          1           0        2.864133   -2.321496   -0.084174
     20          1           0        2.486025    3.888656    1.750692
     21          1           0        4.256622    3.527742    2.100229
 ---------------------------------------------------------------------
                    Distance matrix (angstroms):
                    1          2          3          4          5
     1  H    0.000000
     2  C    1.099528   0.000000
     3  C    2.171395   1.515759   0.000000
     4  O    2.077437   1.427580   2.355333   0.000000
     5  H    1.773833   1.092035   2.193213   2.044814   0.000000
     6  C    2.850742   2.298241   2.363220   1.423310   3.176284
     7  C    3.167955   2.432740   1.526548   2.344112   3.210948
     8  C    2.914463   2.540376   1.327659   3.641209   2.927419
     9  H    3.835575   3.218652   3.320165   2.040496   3.937124
    10  H    2.876036   2.734017   2.815643   2.080058   3.758004
    11  C    4.250837   3.741868   2.564657   3.717905   4.592375
    12  H    3.870950   2.925681   2.127333   2.704740   3.402840
    13  H    3.910362   3.504185   2.080247   4.420961   3.937569
    14  C    3.168132   3.107119   2.518010   4.472580   3.142724
    15  C    4.978754   4.632127   3.681535   4.358550   5.590134
    16  H    4.796655   4.269818   2.859839   4.504668   4.995756
    17  H    2.591570   2.700844   2.696918   4.127419   2.545705
    18  H    4.082978   3.853306   3.223383   5.177311   3.652752
    19  H    3.687775   3.872176   3.240419   5.220648   4.059928
    20  H    4.936283   4.661114   4.035362   4.115497   5.661283
    21  H    5.913946   5.618291   4.553766   5.430066   6.569764
                    6          7          8          9         10
     6  C    0.000000
     7  C    1.531798   0.000000
     8  C    3.644181   2.559411   0.000000
     9  H    1.089539   2.211072   4.592956   0.000000
    10  H    1.099104   2.176994   3.959442   1.781413   0.000000
    11  C    2.587947   1.498994   3.075569   3.070173   2.755700
    12  H    2.132146   1.099364   3.026244   2.402723   3.042843
    13  H    4.129031   2.787483   1.085715   4.982920   4.418843
    14  C    4.819849   3.962627   1.498769   5.817767   5.060825
    15  C    3.011403   2.526291   4.259205   3.258789   2.814036
    16  H    3.544972   2.192555   2.908717   4.058132   3.769962
    17  H    4.764825   4.223465   2.166109   5.766882   4.996766
    18  H    5.568751   4.577103   2.146937   6.491678   5.947568
    19  H    5.436869   4.596364   2.148401   6.480671   5.484054
    20  H    2.714600   2.820950   4.846787   2.772207   2.321167
    21  H    4.093102   3.501588   4.913633   4.304414   3.832201
                   11         12         13         14         15
    11  C    0.000000
    12  H    2.109348   0.000000
    13  H    2.800995   3.162412   0.000000
    14  C    4.547981   4.387257   2.195722   0.000000
    15  C    1.327706   3.157586   3.986696   5.672502   0.000000
    16  H    1.085832   2.541187   2.271285   4.337033   2.075569
    17  H    5.061809   4.665518   3.103432   1.090257   6.133955
    18  H    5.158830   4.777915   2.558529   1.093980   6.372807
    19  H    4.917905   5.166631   2.547817   1.094168   5.910241
    20  H    2.118677   3.483659   4.774715   6.212886   1.083259
    21  H    2.100655   4.054354   4.445319   6.288274   1.082479
                   16         17         18         19         20
    16  H    0.000000
    17  H    5.052125   0.000000
    18  H    4.790294   1.764708   0.000000
    19  H    4.640299   1.766666   1.752671   0.000000
    20  H    3.062553   6.511609   6.993531   6.486577   0.000000
    21  H    2.399043   6.863983   6.945436   6.397205   1.840502
                   21
    21  H    0.000000
 Symmetry turned off by external request.
 Stoichiometry    C8H12O
 Framework group  C1[X(C8H12O)]
 Deg. of freedom    57
 Full point group                 C1      NOp   1
 Rotational constants (GHZ):           2.1707538           1.3220526           0.8727479
 Standard basis: def2TZVP (5D, 7F)
 The following finite field(s) will be applied:
 An electric field of             -0.0013  0.0013 -0.0017
   351 basis functions,   555 primitive gaussians,   396 cartesian basis functions
    34 alpha electrons       34 beta electrons
       nuclear repulsion energy       444.4882759542 Hartrees.
 NAtoms=   21 NActive=   21 NUniq=   21 SFac= 1.00D+00 NAtFMM=   60 NAOKFM=F Big=F
 Integral buffers will be    131072 words long.
 Raffenetti 2 integral format.
 Two-electron integral symmetry is turned off.
 One-electron integrals computed using PRISM.
   1 Symmetry operations used in ECPInt.
 ECPInt:  NShTT=   10878 NPrTT=   32112 LenC2=   10557 LenP2D=   24699.
 LDataN:  DoStor=T MaxTD1= 6 Len=  172
 NBasis=   351 RedAO= T EigKep=  6.90D-05  NBF=   351
 NBsUse=   351 1.00D-06 EigRej= -1.00D+00 NBFU=   351
 The nuclear repulsion energy is now       443.9949971287 hartrees.
 Initial guess from the checkpoint file:  "checkpoint.chk"
 B after Tr=     0.009711    0.011167   -0.001712
         Rot=    0.999996   -0.002064    0.002161   -0.000101 Ang=  -0.34 deg.
 Requested convergence on RMS density matrix=1.00D-08 within 128 cycles.
 Requested convergence on MAX density matrix=1.00D-06.
 Requested convergence on             energy=1.00D-06.
 No special actions if energy rises.
 SCF Done:  E(RB3LYP) =  -387.392685941     A.U. after    8 cycles
            NFock=  8  Conv=0.41D-08     -V/T= 2.0053
   1 Symmetry operations used in ECPInt.
 ECPInt:  NShTT=   10878 NPrTT=   32112 LenC2=   10557 LenP2D=   24699.
 LDataN:  DoStor=T MaxTD1= 7 Len=  274
 Calling FoFJK, ICntrl=      2127 FMM=F ISym2X=0 I1Cent= 0 IOpClX= 0 NMat=1 NMatS=1 NMatT=0.
 -------------------------------------------------------------------
 Center     Atomic                   Forces (Hartrees/Bohr)
 Number     Number              X              Y              Z
 -------------------------------------------------------------------
      1        1           0.000394405   -0.000385957    0.000072326
      2        6          -0.000336955    0.000506697   -0.000134346
      3        6          -0.000089258   -0.000098878    0.000018317
      4        8          -0.000081077    0.000053678   -0.000043235
      5        1          -0.000003433   -0.000025666    0.000052509
      6        6           0.000100053   -0.000150944   -0.000011371
      7        6          -0.000020188    0.000073469   -0.000017689
      8        6           0.000028919   -0.000002823   -0.000012155
      9        1           0.000003060    0.000003909    0.000002083
     10        1          -0.000004750    0.000011116    0.000055652
     11        6           0.000017443    0.000047588    0.000014274
     12        1          -0.000004263   -0.000002014    0.000005606
     13        1           0.000012098    0.000012510   -0.000019697
     14        6           0.000022573    0.000011768    0.000005904
     15        6          -0.000019557   -0.000022968    0.000021374
     16        1           0.000007077   -0.000016775   -0.000006544
     17        1           0.000002508    0.000007561   -0.000017185
     18        1          -0.000017307   -0.000028986    0.000011491
     19        1          -0.000014043    0.000012961    0.000015433
     20        1          -0.000000025    0.000001974   -0.000016058
     21        1           0.000002719   -0.000008221    0.000003311
 -------------------------------------------------------------------
 Cartesian Forces:  Max     0.000506697 RMS     0.000111465
 -----------------------------------------------------------------------------------------------
                       Internal Coordinate Forces (Hartree/Bohr or radian)
  Cent   Atom   N1       Length/X         N2         Alpha/Y        N3         Beta/Z          J
 -----------------------------------------------------------------------------------------------
      1  H 
      2  C        1  -0.000072(     1)
      3  C        2  -0.000064(     2)      1   0.000155(    21)
      4  O        2  -0.000075(     3)      1   0.000248(    22)      3  -0.000380(    40)     0
      5  H        2   0.000038(     4)      1   0.000088(    23)      3   0.000024(    41)     0
      6  C        4  -0.000010(     5)      2  -0.000372(    24)      1  -0.000295(    42)     0
      7  C        3   0.000063(     6)      2  -0.000097(    25)      1  -0.000007(    43)     0
      8  C        3   0.000017(     7)      2   0.000027(    26)      7   0.000045(    44)     0
      9  H        6   0.000003(     8)      4   0.000009(    27)      2   0.000039(    45)     0
     10  H        6  -0.000043(     9)      4   0.000065(    28)      9   0.000038(    46)     0
     11  C        7   0.000007(    10)      3   0.000016(    29)      2  -0.000057(    47)     0
     12  H        7   0.000007(    11)      3  -0.000003(    30)     11  -0.000005(    48)     0
     13  H        8   0.000005(    12)      3  -0.000001(    31)      2  -0.000001(    49)     0
     14  C        8  -0.000010(    13)      3  -0.000026(    32)     13   0.000045(    50)     0
     15  C       11  -0.000033(    14)      7   0.000002(    33)      3  -0.000001(    51)     0
     16  H       11   0.000013(    15)      7  -0.000014(    34)     15   0.000023(    52)     0
     17  H       14   0.000004(    16)      8   0.000001(    35)      3   0.000062(    53)     0
     18  H       14   0.000027(    17)      8   0.000025(    36)     17   0.000037(    54)     0
     19  H       14  -0.000022(    18)      8  -0.000020(    37)     17  -0.000010(    55)     0
     20  H       15   0.000006(    19)     11   0.000007(    38)      7  -0.000026(    56)     0
     21  H       15  -0.000000(    20)     11  -0.000019(    39)     20  -0.000001(    57)     0
 -----------------------------------------------------------------------------------------------
 Internal  Forces:  Max     0.000380171 RMS     0.000095760

 GradGradGradGradGradGradGradGradGradGradGradGradGradGradGradGradGradGrad
 Berny optimization.
 Search for a local minimum.
 Step number   3 out of a maximum of   67
 All quantities printed in internal units (Hartrees-Bohrs-Radians)
 Update second derivatives using D2CorN and points    1    2    3
 DE= -5.08D-06 DEPred=-3.98D-06 R= 1.28D+00
 TightC=F SS=  1.41D+00  RLast= 1.57D-02 DXNew= 1.6818D-01 4.7089D-02
 Trust test= 1.28D+00 RLast= 1.57D-02 DXMaxT set to 1.00D-01
 ITU=  1  1  0
     Eigenvalues ---    0.01851   0.03165   0.03565   0.04647   0.05551
     Eigenvalues ---    0.06659   0.07748   0.08210   0.09560   0.10445
     Eigenvalues ---    0.12809   0.13950   0.15493   0.16229   0.16295
     Eigenvalues ---    0.17555   0.20677   0.20824   0.23015   0.23383
     Eigenvalues ---    0.24612   0.25441   0.28101   0.29012   0.29540
     Eigenvalues ---    0.31144   0.32284   0.32461   0.32513   0.33726
     Eigenvalues ---    0.33793   0.33855   0.34316   0.34333   0.34576
     Eigenvalues ---    0.34806   0.34819   0.34893   0.35259   0.35275
     Eigenvalues ---    0.35284   0.35636   0.35685   0.39475   0.39541
     Eigenvalues ---    0.39679   0.42631   0.48251   0.53932   0.54224
     Eigenvalues ---    0.60019   0.60071   0.60912   0.81640   1.47599
     Eigenvalues ---    2.75724  10.66445
 RFO step:  Lambda=-1.03621363D-06 EMin= 1.85051186D-02
 Quartic linear search produced a step of  0.24659.
 Variable       Old X    -DE/DX   Delta X   Delta X   Delta X     New X
                                 (Linear)    (Quad)   (Total)
    R2        2.07781  -0.00007  -0.00004  -0.00027  -0.00030   2.07750
    R3        2.86437  -0.00006  -0.00029   0.00006  -0.00023   2.86414
    R4        2.69773  -0.00008   0.00049  -0.00008   0.00041   2.69814
    R5        2.06365   0.00004   0.00001   0.00014   0.00015   2.06380
    R6        2.68967  -0.00001   0.00004   0.00008   0.00012   2.68979
    R7        2.88476   0.00006  -0.00002  -0.00009  -0.00011   2.88465
    R8        2.50891   0.00002  -0.00000   0.00004   0.00003   2.50895
    R9        2.05893   0.00000   0.00002   0.00001   0.00003   2.05896
   R10        2.07701  -0.00004   0.00003  -0.00018  -0.00015   2.07686
   R11        2.83269   0.00001   0.00010  -0.00001   0.00009   2.83277
   R12        2.07750   0.00001  -0.00001   0.00003   0.00002   2.07751
   R13        2.05170   0.00000   0.00001   0.00001   0.00002   2.05173
   R14        2.83226  -0.00001  -0.00001  -0.00004  -0.00005   2.83222
   R15        2.50900  -0.00003   0.00003  -0.00009  -0.00006   2.50894
   R16        2.05192   0.00001  -0.00000   0.00005   0.00005   2.05197
   R17        2.06029   0.00000  -0.00003   0.00003  -0.00000   2.06029
   R18        2.06732   0.00003   0.00001   0.00010   0.00011   2.06743
   R19        2.06768  -0.00002   0.00001  -0.00009  -0.00008   2.06760
   R20        2.04706   0.00001  -0.00002   0.00003   0.00001   2.04707
   R21        2.04559  -0.00000  -0.00001   0.00001  -0.00001   2.04558
    A3        1.94180   0.00016   0.00057   0.00044   0.00101   1.94281
    A4        1.91820   0.00025  -0.00017  -0.00003  -0.00020   1.91800
    A5        1.88622   0.00009  -0.00001  -0.00007  -0.00008   1.88614
    A6        1.87523  -0.00037   0.00036  -0.00011   0.00025   1.87547
    A7        1.85337  -0.00010   0.00012   0.00009   0.00021   1.85358
    A8        2.20761   0.00003  -0.00005   0.00002  -0.00003   2.20758
    A9        1.88235   0.00001  -0.00006  -0.00018  -0.00025   1.88210
   A10        1.92760   0.00006  -0.00009   0.00039   0.00030   1.92790
   A11        2.02310   0.00002  -0.00002   0.00011   0.00009   2.02319
   A12        1.86914  -0.00000  -0.00013   0.00016   0.00003   1.86917
   A13        2.07231  -0.00000  -0.00009   0.00009  -0.00000   2.07231
   A14        2.19669  -0.00003   0.00018  -0.00017   0.00001   2.19670
   A15        2.20931   0.00000   0.00014  -0.00007   0.00008   2.20939
   A16        2.00900  -0.00001  -0.00009   0.00001  -0.00009   2.00892
   A17        1.96562   0.00000   0.00009  -0.00009  -0.00000   1.96562
   A18        1.93440   0.00003  -0.00035   0.00027  -0.00008   1.93431
   A19        1.93625  -0.00002   0.00018  -0.00015   0.00003   1.93627
   A20        2.14092   0.00001  -0.00002   0.00008   0.00007   2.14098
   A21        2.11093  -0.00002  -0.00006  -0.00008  -0.00014   2.11079
    D4        2.04932  -0.00038   0.00026   0.00051   0.00076   2.05009
    D5       -2.18588   0.00002  -0.00002   0.00020   0.00018  -2.18570
    D6       -1.65911  -0.00029  -0.00220  -0.00255  -0.00475  -1.66387
    D7        2.04089  -0.00001   0.00142   0.00239   0.00381   2.04469
    D8       -3.13371   0.00005  -0.00096   0.00010  -0.00087  -3.13458
    D9       -2.79214   0.00004   0.00141   0.00085   0.00226  -2.78988
   D10       -2.07646   0.00004   0.00006   0.00024   0.00030  -2.07616
   D11       -2.56123  -0.00006  -0.00055  -0.00149  -0.00205  -2.56328
   D12       -2.09456  -0.00001   0.00038  -0.00021   0.00017  -2.09440
   D13        3.12739  -0.00000   0.00125  -0.00050   0.00075   3.12815
   D14       -3.15030   0.00005  -0.00101   0.00029  -0.00071  -3.15101
   D15        2.22656  -0.00000   0.00001  -0.00061  -0.00060   2.22596
   D16        3.10812   0.00002  -0.00042   0.00043   0.00001   3.10813
   D17        0.02441   0.00006   0.00046   0.00147   0.00193   0.02634
   D18       -2.10909   0.00004   0.00012  -0.00008   0.00004  -2.10905
   D19        2.11403  -0.00001   0.00037  -0.00039  -0.00001   2.11402
   D20       -0.01476  -0.00003   0.00014  -0.00024  -0.00011  -0.01487
   D21        3.13420  -0.00000  -0.00065   0.00053  -0.00012   3.13408
         Item               Value     Threshold  Converged?
 Maximum Force            0.000380     0.000450     YES
 RMS     Force            0.000096     0.000300     YES
 Maximum Displacement     0.004752     0.001800     NO 
 RMS     Displacement     0.000981     0.001200     YES
 Predicted change in Energy=-6.551642D-07
 GradGradGradGradGradGradGradGradGradGradGradGradGradGradGradGradGradGrad

 ---------------------------------------------------------------------------------------------------
                            Z-MATRIX (ANGSTROMS AND DEGREES)
   CD    Cent   Atom    N1       Length/X        N2       Alpha/Y        N3        Beta/Z          J
 ---------------------------------------------------------------------------------------------------
      1      1  H 
      2      2  C        1   1.099366(     1)
      3      3  C        2   1.515639(     2)      1  111.315(    21)
      4      4  O        2   1.427797(     3)      1  109.893(    22)      3  117.461(    40)      0
      5      5  H        2   1.092116(     4)      1  108.068(    23)      3 -125.231(    41)      0
      6      6  C        4   1.423375(     5)      2  107.457(    24)      1  -95.332(    42)      0
      7      7  C        3   1.526488(     6)      2  106.203(    25)      1  117.152(    43)      0
      8      8  C        3   1.327677(     7)      2  126.485(    26)      7 -179.598(    44)      0
      9      9  H        6   1.089553(     8)      4  107.836(    27)      2 -159.848(    45)      0
     10     10  H        6   1.099026(     9)      4  110.461(    28)      9 -118.955(    46)      0
     11     11  C        7   1.499040(    10)      3  115.920(    29)      2 -146.865(    47)      0
     12     12  H        7   1.099373(    11)      3  107.096(    30)     11 -120.000(    48)      0
     13     13  H        8   1.085727(    12)      3  118.734(    31)      2  179.230(    49)      0
     14     14  C        8   1.498744(    13)      3  125.861(    32)     13 -180.540(    50)      0
     15     15  C       11   1.327675(    14)      7  126.589(    33)      3  127.538(    51)      0
     16     16  H       11   1.085856(    15)      7  115.102(    34)     15  178.082(    52)      0
     17     17  H       14   1.090256(    16)      8  112.622(    35)      3    1.509(    53)      0
     18     18  H       14   1.094036(    17)      8  110.828(    36)     17 -120.840(    54)      0
     19     19  H       14   1.094126(    18)      8  110.940(    37)     17  121.124(    55)      0
     20     20  H       15   1.083265(    19)     11  122.669(    38)      7   -0.852(    56)      0
     21     21  H       15   1.082476(    20)     11  120.940(    39)     20  179.569(    57)      0
 ---------------------------------------------------------------------------------------------------
                         Z-Matrix orientation:                         
 ---------------------------------------------------------------------
 Center     Atomic      Atomic             Coordinates (Angstroms)
 Number     Number       Type             X           Y           Z
 ---------------------------------------------------------------------
      1          1           0        0.000000    0.000000    0.000000
      2          6           0        0.000000    0.000000    1.099366
      3          6           0        1.411963    0.000000    1.650293
      4          8           0       -0.619138    1.191319    1.585196
      5          1           0       -0.598952   -0.848084    1.438083
      6          6           0        0.415117    2.132937    1.849146
      7          6           0        1.565605    1.304315    2.428319
      8          6           0        2.326907   -0.946390    1.477234
      9          1           0        0.018872    2.880070    2.536102
     10          1           0        0.726851    2.631537    0.920665
     11          6           0        2.932174    1.920213    2.411549
     12          1           0        1.312846    1.087369    3.476015
     13          1           0        3.308575   -0.810701    1.920765
     14          6           0        2.134889   -2.225239    0.719668
     15          6           0        3.232732    3.170482    2.081079
     16          1           0        3.736371    1.265833    2.734252
     17          1           0        1.140688   -2.306800    0.279700
     18          1           0        2.283371   -3.090302    1.372764
     19          1           0        2.868880   -2.316086   -0.086629
     20          1           0        2.484661    3.888187    1.766830
     21          1           0        4.254226    3.526452    2.120949
 ---------------------------------------------------------------------
                    Distance matrix (angstroms):
                    1          2          3          4          5
     1  H    0.000000
     2  C    1.099366   0.000000
     3  C    2.171890   1.515639   0.000000
     4  O    2.077359   1.427797   2.355600   0.000000
     5  H    1.773717   1.092116   2.192728   2.044802   0.000000
     6  C    2.853258   2.298676   2.362767   1.423375   3.175499
     7  C    3.170030   2.432791   1.526488   2.344510   3.209158
     8  C    2.914167   2.540263   1.327677   3.641516   2.927772
     9  H    3.837573   3.218597   3.319663   2.040381   3.935286
    10  H    2.881133   2.735916   2.815444   2.080268   3.759420
    11  C    4.254460   3.742551   2.564716   3.718328   4.591291
    12  H    3.871513   2.924790   2.127312   2.705284   3.399135
    13  H    3.910658   3.504084   2.080272   4.421269   3.937404
    14  C    3.166601   3.107026   2.518010   4.472882   3.144290
    15  C    4.983312   4.633171   3.681404   4.358886   5.589644
    16  H    4.799890   4.270323   2.860101   4.505146   4.994370
    17  H    2.588577   2.700805   2.696932   4.127729   2.548735
    18  H    4.080224   3.852077   3.222785   5.177061   3.652341
    19  H    3.688121   3.873153   3.240951   5.221414   4.062713
[...]
 .08328756,-0.00217174,-0.00694170,0.01702267,0.00028117,-0.00008363,-0
 .00015838,0.00597690,0.01103789,-0.01718623,0.03729272,0.10909441,-0.0
 0024671,0.00117192,-0.00023452,0.00011591,0.00042779,0.00178085,-0.000
 04954,-0.00060847,0.00005062,-0.00039360,-0.00329777,0.01491924,0.0000
 7555,0.00012055,-0.00016505,0.05470492,0.08442540,-0.22833383,0.002379
 98,0.00558949,-0.01270839,0.00000400,0.00017215,0.00036521,0.00509731,
 0.00889631,-0.01716269,-0.06026052,-0.09870577,0.24014361,0.00065226,-
 0.00017814,0.00019003,-0.00161308,0.00339162,0.00195998,0.00114529,-0.
 01308744,-0.00625364,-0.00283799,-0.00069964,-0.00166083,0.00013807,-0
 .00011400,0.00007331,-0.02295509,-0.00800120,-0.00136104,-0.19145941,-
 0.03465273,-0.00401193,-0.00004055,0.00206389,0.00111640,0.00045672,0.
 00005962,0.00026566,0.00141225,-0.00130405,0.00136358,0.55840014,-0.00
 052243,0.00017662,0.00013526,0.00105289,-0.00413536,-0.00265221,-0.027
 74734,-0.01639184,-0.00063727,0.00729009,0.00069166,0.00446710,-0.0004
 1313,0.00012619,0.00007378,0.01159734,0.01320641,-0.00538305,-0.038652
 53,-0.10504345,0.00590291,-0.00041226,0.00074635,-0.00014557,0.0010078
 3,-0.00068182,0.00031880,0.00007243,-0.00015402,0.00048230,0.03781368,
 0.79496331,-0.00037278,-0.00007482,-0.00013634,-0.00123074,-0.00157027
 ,-0.00131780,-0.01532496,-0.00646136,-0.00097730,-0.00366278,-0.001184
 68,-0.00097514,-0.00056236,-0.00003698,-0.00025340,-0.00834571,-0.0064
 9650,0.00007051,-0.00349056,0.00646425,-0.07111946,-0.00015878,-0.0001
 9629,0.00094083,-0.00034781,0.00014212,0.00007985,-0.00012971,-0.00023
 555,0.00054832,0.05165758,-0.17977479,0.21440197,0.00013396,-0.0000041
 2,0.00011109,-0.00013932,-0.00042971,0.00028336,0.00127859,0.00274260,
 0.00040304,0.00106890,0.00029649,0.00187886,-0.00005002,-0.00001637,-0
 .00009005,0.00323698,0.00806028,-0.02460465,-0.06060667,-0.01426354,0.
 05686200,0.00086414,0.00026118,-0.00007012,0.00120478,-0.00050024,0.00
 037310,-0.00324761,0.00187346,-0.00232584,-0.01047448,-0.01135540,0.02
 934190,0.06904454,0.00015465,-0.00005440,0.00010124,0.00035674,-0.0009
 6226,0.00069920,0.00792777,-0.00043969,-0.02955641,-0.00106865,0.00149
 529,-0.00139455,-0.00023698,0.00012121,-0.00024088,-0.00282554,-0.0078
 4159,0.02190182,-0.01060351,-0.04862826,0.04727802,-0.00137264,0.00025
 250,-0.00076170,-0.00094029,0.00040125,-0.00028251,0.00317503,-0.00174
 622,0.00210498,-0.00693314,-0.00550988,0.01374430,0.01358019,0.0637021
 8,0.00000941,0.00005006,0.00001594,0.00021853,-0.00099966,-0.00048084,
 0.00458344,-0.00449190,-0.01792270,-0.00031591,-0.00067895,0.00177845,
 -0.00015759,-0.00002773,-0.00025504,0.00226940,0.00544524,-0.01307516,
 0.05302193,0.05148543,-0.26017425,-0.00190836,0.00074541,0.00093511,-0
 .00017172,-0.00018320,0.00128198,-0.00186891,0.00105172,0.00043560,0.0
 0286731,0.00247155,0.00069527,-0.05945543,-0.05285070,0.28623490,-0.00
 064419,-0.00009405,-0.00031597,0.00278236,0.00369801,-0.00110953,-0.02
 157547,-0.00122088,-0.01115784,-0.00114487,0.00152415,0.00013978,0.000
 40614,-0.00031071,0.00023565,-0.00076453,-0.00077941,-0.00013783,-0.00
 034040,-0.00263051,0.00151060,-0.27265145,-0.02666738,-0.10350823,0.00
 007309,0.00007437,0.00001840,0.00007732,0.00004693,-0.00004569,-0.0001
 4836,-0.00030061,-0.00042202,-0.00016043,0.00067521,0.00041441,0.29219
 892,-0.00082633,-0.00003419,0.00008636,0.00230516,0.00019740,-0.005979
 26,0.02295157,0.00640444,0.00905453,0.00144803,-0.00090974,0.00025300,
 0.00088877,-0.00014934,0.00033872,-0.00011096,0.00031278,-0.00012520,-
 0.00124083,-0.00135133,0.00310196,-0.02940288,-0.05611604,-0.02143203,
 0.00003686,-0.00003030,-0.00001355,-0.00007450,-0.00005408,0.00004485,
 0.00135921,-0.00095039,-0.00002479,0.00000843,0.00054442,0.00036631,0.
 02749508,0.05743932,0.00166707,-0.00003211,0.00032312,-0.00238719,-0.0
 0479778,0.00856350,0.00329875,-0.00065375,0.00689441,-0.00023044,-0.00
 041068,-0.00031500,-0.00123597,0.00041544,-0.00076860,0.00061794,0.000
 52198,0.00053418,0.00142579,0.00301134,-0.00531645,-0.10469902,-0.0202
 5683,-0.08891543,-0.00016961,0.00004046,-0.00005283,0.00001989,0.00003
 812,-0.00002113,0.00007628,-0.00023227,-0.00000490,0.00012215,-0.00117
 731,-0.00072768,0.11604917,0.02922775,0.08418321,0.00026706,0.00016340
 ,-0.00069176,0.00108707,0.00081857,0.00374808,0.00764611,0.02126017,0.
 01225944,-0.00043908,-0.00131895,-0.00088924,-0.00058295,-0.00057917,0
 .00026583,0.00117703,0.00130321,0.00115708,-0.00183199,0.00323022,-0.0
 0349897,-0.09092972,-0.01724233,-0.01753854,-0.00050158,0.00017494,-0.
 00017113,-0.00004478,-0.00000560,-0.00004536,-0.00126303,0.00010658,-0
 .00029779,0.00002568,-0.00034289,-0.00001536,-0.00139263,-0.02433910,-
 0.01489974,0.56838610,0.00065357,0.00050340,0.00053545,-0.00337788,-0.
 00093290,0.00229333,0.00311746,-0.02402805,-0.01509186,-0.00077263,0.0
 0005498,-0.00020163,-0.00001434,0.00026794,0.00008865,0.00026474,0.000
 35400,-0.00012536,0.00263141,0.00479645,-0.00372963,-0.01365808,-0.171
 48600,-0.06241121,-0.00008398,-0.00003597,0.00006221,0.00001892,0.0000
 0534,0.00008332,0.00031481,0.00050012,0.00033733,0.00009587,-0.0016184
 9,-0.00116320,0.00006001,-0.00194456,-0.00233351,-0.00723764,0.4894894
 7,-0.00052271,0.00000741,-0.00047553,0.00163828,0.00355983,-0.00490501
 ,0.00231972,-0.00823120,0.00173955,-0.00050460,0.00005520,-0.00002811,
 0.00046764,-0.00001964,0.00075633,-0.00049580,-0.00129638,-0.00096173,
 -0.00254962,-0.00432785,0.01013878,-0.01629961,-0.06400690,-0.11216242
 ,0.00027175,-0.00013749,0.00003794,-0.00006575,-0.00000067,-0.00004289
 ,-0.00016211,-0.00060334,-0.00051970,-0.00007191,0.00228138,0.00096839
 ,-0.00137403,-0.01185920,-0.00482782,0.01301286,-0.02097936,0.51737191
 ,-0.00028490,-0.00000557,-0.00011682,0.00037663,-0.00101483,-0.0005713
 0,-0.00415922,0.00188424,0.00215498,0.00017280,0.00065107,-0.00019820,
 -0.00015120,-0.00000313,-0.00003887,0.00067304,-0.00259356,0.00088073,
 -0.00566904,-0.03291190,0.00605994,-0.00023519,0.00014966,-0.00053530,
 -0.00013044,0.00018401,0.00013392,-0.00042313,-0.00017032,-0.00046846,
 -0.13266732,-0.09566126,0.01445087,-0.00293052,-0.00133975,0.00010751,
 0.00044014,-0.00046977,0.00015436,0.00066998,-0.00021382,0.00000787,0.
 63725378,-0.00005263,-0.00002016,-0.00008126,-0.00003909,-0.00037935,0
 .00025079,0.00002094,0.00275976,0.00097629,0.00016505,-0.00063590,0.00
 023714,-0.00009099,-0.00005960,-0.00012227,0.00111113,0.00038669,-0.00
 107437,-0.01106162,-0.01237643,0.00482078,0.00018329,-0.00025623,-0.00
 018392,-0.00010618,0.00027381,-0.00059457,-0.00084992,0.00026542,0.000
 59329,-0.09011273,-0.50065012,0.11381590,0.00009428,0.00060261,-0.0013
 8751,-0.00009549,0.00012969,0.00008876,-0.00001058,-0.00002457,-0.0000
 5908,0.06642848,0.78397671,0.00003904,0.00002424,0.00005298,0.00003741
 ,0.00026596,-0.00015950,-0.00012084,-0.00197075,-0.00001607,-0.0003492
 9,0.00011517,0.00012345,0.00004647,-0.00000303,0.00008783,0.00025164,-
 0.00032840,-0.00090416,0.00213887,0.00198506,0.00639657,-0.00039479,0.
 00003565,0.00020793,-0.00004831,0.00001888,0.00050262,-0.00025823,-0.0
 0061732,0.00024527,0.01222812,0.11247843,-0.08148112,-0.00089398,-0.00
 058325,0.00054923,0.00005643,-0.00007276,-0.00014471,0.00007663,0.0000
 7990,-0.00000056,0.06277232,-0.18082836,0.16748100,0.00012206,-0.00008
 926,-0.00008410,-0.00045899,0.00108594,0.00048807,0.00053843,0.0014199
 9,0.00072277,-0.00248798,-0.00080519,-0.00161936,0.00006500,-0.0001392
 6,-0.00002469,-0.00049955,-0.00451403,0.00245909,-0.02079897,0.0176095
 3,-0.01034933,-0.00034801,0.00010508,-0.00018662,-0.00022461,0.0002718
 2,-0.00001481,0.00017250,0.00008974,-0.00021083,-0.20386395,0.12143379
 ,-0.06190743,0.00065188,-0.00001329,0.00056763,0.00085876,-0.00061504,
 0.00006463,0.00059773,-0.00021845,0.00004105,0.00773626,-0.00599234,0.
 00175595,0.21556925,0.00006364,-0.00002687,-0.00000310,-0.00017934,0.0
 0044044,0.00014422,0.00104012,0.00019207,-0.00019884,-0.00093359,-0.00
 019677,-0.00062489,0.00005682,-0.00002814,0.00000973,-0.00186028,-0.00
 140198,0.00067551,-0.00982594,0.00978191,-0.00396497,-0.00080879,-0.00
 040798,-0.00022815,-0.00014948,0.00010604,0.00001344,0.00011579,-0.000
 02870,-0.00017913,0.11744366,-0.15145560,0.05285810,0.00061586,0.00050
 363,0.00022218,-0.00036204,-0.00102156,-0.00068069,0.00007632,-0.00010
 259,0.00006759,0.02427850,-0.01890772,0.01135272,-0.12752967,0.1653681
 5,0.00003180,-0.00001038,0.00000535,0.00012069,0.00001340,0.00012787,0
 .00042821,0.00077198,0.00039088,0.00011586,0.00009135,0.00016643,0.000
 04559,0.00001069,0.00001201,-0.00060047,0.00059011,0.00142197,0.000472
 77,-0.00026172,0.00221588,-0.00060719,0.00018475,-0.00031904,-0.000328
 13,0.00005751,-0.00026401,0.00030501,-0.00016795,0.00007592,-0.0607974
 0,0.05348129,-0.06675414,-0.00086775,-0.00042447,0.00033421,0.00011294
 ,-0.00071121,0.00020247,0.00030041,-0.00013179,0.00002158,-0.00694427,
 0.00597779,0.00391532,0.06792596,-0.06106527,0.05506720,0.00001582,0.0
 0001272,0.00042832,-0.00056018,0.00021620,-0.00017454,0.00030068,0.000
 31606,0.00047746,0.00052225,0.00030083,0.00040647,-0.00011452,0.000589
 74,-0.00003509,-0.00029238,0.00001653,-0.00005477,0.00012904,-0.000189
 64,-0.00003041,-0.00251417,-0.00098049,-0.00114738,0.00007835,0.000033
 26,0.00001344,0.00001582,-0.00000468,0.00000506,0.00003700,0.00005571,
 -0.00000917,-0.00002095,-0.00004500,-0.00002808,0.00148554,-0.00017481
 ,-0.00022809,-0.26577292,-0.01384069,-0.09809152,-0.00000511,-0.000021
 23,-0.00000003,0.00004894,0.00001720,0.00003781,0.28907825,0.00067434,
 -0.00054498,0.00035863,0.00090745,-0.00068534,-0.00045488,-0.00067277,
 0.00184304,0.00086598,-0.00008017,0.00052930,0.00041406,0.00045115,-0.
 00006514,-0.00007292,-0.00038189,-0.00015321,-0.00010934,-0.00001904,-
 0.00000147,0.00003765,-0.02845305,-0.00117287,-0.01180230,0.00004470,0
 .00005437,0.00000966,0.00003806,0.00001379,-0.00001973,-0.00018632,-0.
 00004956,-0.00007051,-0.00002689,-0.00001391,0.00000850,-0.00015556,-0
 .00418414,-0.00318221,-0.01139657,-0.04874274,-0.00602518,0.00012006,-
 0.00003605,0.00001786,0.00018549,0.00003421,0.00008540,0.01385197,0.05
 203579,-0.00006188,0.00015890,0.00020250,0.00011989,-0.00049165,0.0001
 6686,-0.00035624,0.00102351,0.00065313,0.00036196,0.00049761,0.0001375
 5,0.00080040,-0.00017363,-0.00023710,-0.00039041,-0.00004248,-0.000043
 90,0.00011160,0.00002380,-0.00012065,-0.01637179,-0.00024395,-0.007757
 73,0.00005160,0.00005690,0.00000567,0.00004039,0.00003111,-0.00001691,
 -0.00008185,0.00004279,-0.00003876,-0.00002785,-0.00010310,-0.00004042
 ,-0.00001601,-0.00312182,-0.00046677,-0.09666428,-0.00708515,-0.091182
 79,0.00008060,-0.00002048,0.00000574,0.00011212,0.00002073,0.00006727,
 0.10859302,0.00990816,0.09534059,0.00038053,-0.00041225,0.00012654,-0.
 00010140,-0.00008676,0.00007295,0.00030486,-0.00013434,-0.00014957,0.0
 0001435,0.00019032,0.00019346,-0.00001633,0.00035285,-0.00005653,-0.00
 016456,0.00003093,-0.00002442,0.00001073,0.00009437,-0.00010638,0.0004
 0004,-0.00124324,0.00349384,0.00003643,0.00001502,-0.00001608,0.000003
 81,-0.00000130,0.00000253,0.00015338,-0.00007637,0.00006212,-0.0000220
 4,-0.00010648,-0.00007445,0.00016465,0.00020897,0.00006669,-0.05043236
 ,0.02462843,-0.02262167,-0.00007644,-0.00000482,-0.00001415,-0.0000258
 6,-0.00000217,-0.00001792,-0.00327371,0.02409441,-0.01790685,0.0499951
 5,0.00022763,0.00001956,0.00021178,-0.00050407,-0.00031705,0.00080262,
 -0.00356263,-0.00107155,-0.00135221,0.00014516,0.00000712,0.00007599,0
 .00004809,-0.00008391,-0.00002051,-0.00011270,0.00015990,-0.00003496,0
 .00092828,0.00071917,-0.00211084,0.00644794,-0.02606342,0.01276629,0.0
 0003013,-0.00004511,0.00001704,0.00001198,-0.00001036,0.00004047,0.000
 38204,0.00016392,0.00013443,0.00001256,-0.00073391,-0.00025662,-0.0002
 5175,0.00087754,-0.00055750,0.02601414,-0.20444643,0.12319061,-0.00013
 496,-0.00005751,-0.00000124,-0.00004524,-0.00000210,0.00000484,0.00040
 578,0.00221438,-0.00168264,-0.02918460,0.22733355,0.00029223,-0.000076
 35,0.00015187,-0.00047409,-0.00039050,0.00036858,-0.00060771,-0.001754
 64,-0.00095296,0.00005470,0.00014478,0.00013093,0.00007349,0.00020807,
 -0.00007992,-0.00009210,0.00014589,0.00000445,0.00061553,0.00060824,-0
 .00142714,0.00374981,-0.01695740,0.01290508,0.00000775,0.00000094,0.00
 001039,0.00000838,-0.00000186,0.00001335,0.00016065,0.00009480,0.00007
 901,0.00001134,-0.00044597,-0.00028185,-0.00001587,0.00103492,0.000354
 15,-0.02246291,0.12070133,-0.13514097,-0.00006520,-0.00001553,0.000013
 64,-0.00003667,-0.00001344,-0.00001160,-0.00094305,0.00896268,-0.00802
 986,0.02285886,-0.13116949,0.14743372,-0.00014047,0.00016661,0.0003333
 6,-0.00019018,0.00004786,-0.00014643,0.00084671,-0.00107862,0.00031625
 ,0.00011441,0.00019889,0.00008571,0.00045444,-0.00025970,-0.00016415,-
 0.00017740,-0.00004165,0.00002985,0.00000985,-0.00000123,0.00003712,0.
 00416283,0.00292944,-0.00368708,0.00003804,0.00004073,-0.00001446,0.00
 001428,0.00003569,-0.00001543,0.00008059,0.00000858,0.00006206,-0.0000
 0442,-0.00009449,-0.00006080,0.00037848,0.00057218,0.00024234,-0.16667
 024,0.00761697,0.12504452,-0.00002721,0.00001229,-0.00000456,-0.000039
 29,-0.00000569,-0.00002358,-0.01916491,0.00101183,0.02161390,0.0026515
 6,-0.00085006,-0.00313841,0.17766842,0.00002632,-0.00005265,0.00006395
 ,0.00000651,0.00037714,-0.00100920,-0.00242345,-0.00155290,-0.00224344
 ,0.00014300,0.00017154,0.00016111,0.00022548,0.00004745,0.00008121,-0.
 00039323,-0.00039897,-0.00046485,0.00009156,-0.00164943,0.00177700,0.0
 2243978,-0.00579539,-0.02270651,0.00016756,-0.00008960,0.00005646,0.00
 000905,-0.00003322,0.00004432,0.00035573,-0.00007729,-0.00005794,-0.00
 004911,0.00031535,0.00018828,-0.00053385,0.00079015,0.00090441,0.00937
 471,-0.04262742,-0.01162532,-0.00016596,-0.00007831,0.00003465,-0.0000
 5277,0.00001746,-0.00004368,-0.00053459,-0.00103303,0.00123550,-0.0183
 5358,0.00135860,0.01893497,-0.01031446,0.05033725,-0.00000995,0.000045
 81,0.00008319,-0.00006303,0.00040261,-0.00048320,-0.00218632,-0.000539
 69,-0.00108109,0.00016433,0.00007786,0.00010721,0.00034001,-0.00007125
 ,-0.00010336,-0.00032541,-0.00017092,-0.00026545,0.00018355,-0.0006224
 9,0.00079233,0.01140856,-0.00367485,-0.01107195,0.00011462,-0.00004286
 ,0.00002641,-0.00000031,-0.00001002,0.00003541,0.00034555,-0.00004381,
 -0.00001295,-0.00003583,0.00003017,0.00000875,-0.00046823,-0.00009562,
 0.00047874,0.12635464,-0.01088660,-0.18083326,-0.00013608,-0.00004983,
 -0.00000721,-0.00004025,0.00002058,-0.00002718,-0.00922784,0.00105371,
 0.01134261,0.01411029,-0.00006861,-0.01553444,-0.14050704,0.01466917,0
 .19653981,0.00000602,0.00001392,0.00003455,0.00003809,-0.00009916,0.00
 001856,0.00016153,0.00003990,-0.00012344,0.00025636,-0.00008342,0.0002
 3770,0.00000662,-0.00000780,-0.00000576,-0.00094181,-0.00064800,-0.000
 32616,0.00036121,0.00031788,0.00117284,0.00001701,-0.00004261,0.000028
 35,-0.00023816,-0.00001827,-0.00010339,-0.00083756,-0.00059097,0.00003
 423,0.00865410,-0.00484961,0.00158994,-0.00005959,0.00004610,-0.000097
 74,-0.00003891,0.00002073,0.00000097,-0.00004758,0.00000939,-0.0000066
 5,-0.19167780,0.12655003,-0.05883182,0.00123359,-0.00228230,-0.0011030
 4,0.00001142,-0.00001032,-0.00000765,0.00000407,0.00000976,0.00000531,
 -0.00000440,0.00001351,0.00000903,0.19748842,-0.00008011,0.00002759,0.
 00002173,0.00023052,-0.00047618,-0.00012394,-0.00025016,-0.00001754,-0
 .00004639,0.00018578,0.00093541,-0.00027547,-0.00006946,0.00008791,0.0
 0000064,-0.00078385,-0.00101663,0.00092063,0.00175188,0.00103384,-0.00
 210752,0.00015409,-0.00005685,-0.00000456,-0.00021470,0.00012651,0.000
 09209,-0.00039958,0.00017597,-0.00095295,0.02366545,-0.01688754,0.0101
 5712,0.00019936,0.00026669,-0.00004113,-0.00014922,0.00007629,0.000023
 93,-0.00010189,0.00005328,-0.00001839,0.12232114,-0.17336122,0.0572795
 3,-0.00247442,-0.00336980,0.00397285,-0.00001979,-0.00004160,-0.000029
 20,0.00000677,0.00001178,0.00000424,0.00000827,0.00000164,0.00000772,-
 0.13671237,0.18429187,-0.00000780,-0.00002925,-0.00002156,-0.00022090,
 -0.00026695,-0.00005633,-0.00087380,-0.00011960,0.00037176,0.00039719,
 -0.00015659,-0.00010559,-0.00006788,-0.00003182,-0.00008749,-0.0001945
 5,-0.00007971,0.00043908,0.00024089,-0.00285706,-0.00712384,-0.0000858
 8,0.00001047,-0.00011304,0.00041993,0.00000766,-0.00019776,-0.00067345
 ,-0.00029487,-0.00013940,-0.00582477,0.00618147,0.00323361,0.00100247,
 0.00085904,-0.00003998,0.00010638,-0.00013870,0.00005859,0.00012707,-0
 .00000497,-0.00004306,-0.05774530,0.05774238,-0.06020837,-0.00115063,0
 .00417699,0.01065855,0.00000121,0.00002804,0.00002607,-0.00000919,0.00
 000436,-0.00000264,-0.00000340,-0.00003340,-0.00002024,0.06507366,-0.0
 6612023,0.05161518,0.00000148,-0.00001658,-0.00003142,-0.00004436,-0.0
 0002567,0.00003884,-0.00051199,-0.00014170,0.00021641,-0.00010872,-0.0
 0031467,0.00004767,-0.00003711,-0.00004641,-0.00003904,0.00037159,0.00
 025558,-0.00019379,0.00209805,-0.00069319,-0.00177775,-0.00002434,0.00
 000126,-0.00003805,0.00008475,-0.00000059,-0.00006718,0.00002038,-0.00
 004736,0.00027892,-0.00380657,-0.00044798,-0.00090187,0.00020661,0.000
 00700,0.00009475,-0.00000416,-0.00004075,0.00004402,0.00005209,0.00000
 594,-0.00003771,-0.30888514,-0.08612787,-0.01848688,0.00115284,0.00023
 136,0.00139271,-0.00000426,0.00000312,-0.00000066,-0.00000685,-0.00001
 751,-0.00000204,-0.00000107,-0.00003222,-0.00003030,-0.01439263,-0.007
 26771,-0.00051124,0.32383941,-0.00004809,0.00001416,-0.00001661,0.0001
 5844,-0.00008840,-0.00004646,-0.00024732,0.00036775,0.00032053,-0.0001
 5977,0.00034824,-0.00030837,-0.00001708,0.00002501,0.00002658,0.000483
 20,-0.00056115,0.00063355,0.00069045,-0.00237650,0.00417468,0.00004166
 ,-0.00000768,-0.00011688,-0.00015799,0.00004722,0.00011668,0.00003178,
 0.00015860,-0.00043333,-0.03158031,-0.00858769,-0.00146908,-0.00119519
 ,-0.00065652,0.00004592,-0.00002232,-0.00002636,0.00004246,0.00005244,
 -0.00003523,0.00002798,-0.08133234,-0.08155153,0.00071707,0.00028758,0
 .00050591,-0.00242548,-0.00000509,-0.00000087,-0.00000490,-0.00001617,
 -0.00003417,-0.00001567,-0.00000345,-0.00002838,-0.00003108,0.01832360
 ,0.00813857,0.00112274,0.09471596,0.08434903,0.00008787,-0.00000501,0.
 00000300,-0.00006361,0.00077152,0.00030517,0.00215392,0.00061410,-0.00
 024185,-0.00018142,-0.00031987,-0.00008603,0.00015361,-0.00002702,0.00
 006732,0.00000488,0.00010059,-0.00010352,-0.00215436,0.00457548,0.0114
 0907,0.00025041,-0.00005794,0.00001355,0.00002241,-0.00001991,-0.00001
 988,0.00009594,-0.00003892,0.00021139,0.00784911,0.00334183,0.00354162
 ,-0.00194589,-0.00117929,-0.00023990,-0.00007250,0.00006573,-0.0000310
 6,-0.00012696,-0.00003725,0.00008935,-0.01998329,-0.00008592,-0.036659
 88,0.00148745,-0.00260331,-0.00730695,0.00000717,-0.00001326,-0.000013
 08,0.00000991,0.00000618,-0.00000379,0.00000023,0.00003331,0.00002588,
 -0.00759949,-0.00276071,0.00175646,0.02000461,-0.00236033,0.02728314\\
 -0.00047117,0.00032759,0.00000124,0.00047564,-0.00048711,0.00002599,-0
 .00000119,0.00012574,-0.00007953,0.00004632,0.00002227,-0.00001379,0.0
 0000955,-0.00002039,-0.00001050,-0.00003330,0.00005849,0.00000769,-0.0
 0003139,-0.00002225,0.00004365,-0.00000180,-0.00000984,0.00000928,0.00
 000429,0.00001072,0.00000929,-0.00000276,-0.00000110,-0.00000191,0.000
 00529,0.00001077,0.00000173,0.00001682,0.00000237,-0.00000036,-0.00000
 671,-0.00000665,0.00001221,-0.00000333,-0.00001284,0.00001954,-0.00000
 784,-0.00000322,0.00000881,-0.00000541,-0.00000377,-0.00000700,0.00000
 233,0.00000365,-0.00000641,0.00000733,0.00000543,-0.00000169,-0.000004
 81,0.00000054,-0.00001026,0.00000045,0.00000145,-0.00000276,0.00000169
 ,-0.00000185,-0.00000523\\\@


 YOU ARE IN A MAZE OF TWISTY LITTLE PASSAGES.
 Job cpu time:       0 days  2 hours 26 minutes 27.4 seconds.
 Elapsed time:       0 days  0 hours 12 minutes 12.9 seconds.
 File lengths (MBytes):  RWF=    204 Int=      0 D2E=      0 Chk=     32 Scr=      1
 Normal termination of Gaussian 16 at Fri Jun 10 23:13:37 2022.
