 Entering Gaussian System, Link 0=g16
 Input=int_zmat_field_N50.gjf
 Output=int_zmat_field_N50.out
 Initial command:
 /software/gaussian/g16-a03/l1.exe "/local_scratch/11174487/Gau-2478.inp" -scrdir="/local_scratch/11174487/"
 Entering Link 1 = /software/gaussian/g16-a03/l1.exe PID=      2479.
  
 Copyright (c) 1988,1990,1992,1993,1995,1998,2003,2009,2016,
            Gaussian, Inc.  All Rights Reserved.
  
 This is part of the Gaussian(R) 16 program.  It is based on
 the Gaussian(R) 09 system (copyright 2009, Gaussian, Inc.),
 the Gaussian(R) 03 system (copyright 2003, Gaussian, Inc.),
 the Gaussian(R) 98 system (copyright 1998, Gaussian, Inc.),
 the Gaussian(R) 94 system (copyright 1995, Gaussian, Inc.),
 the Gaussian 92(TM) system (copyright 1992, Gaussian, Inc.),
 the Gaussian 90(TM) system (copyright 1990, Gaussian, Inc.),
 the Gaussian 88(TM) system (copyright 1988, Gaussian, Inc.),
 the Gaussian 86(TM) system (copyright 1986, Carnegie Mellon
 University), and the Gaussian 82(TM) system (copyright 1983,
 Carnegie Mellon University). Gaussian is a federally registered
 trademark of Gaussian, Inc.
  
 This software contains proprietary and confidential information,
 including trade secrets, belonging to Gaussian, Inc.
  
 This software is provided under written license and may be
 used, copied, transmitted, or stored only in accord with that
 written license.
  
 The following legend is applicable only to US Government
 contracts under FAR:
  
                    RESTRICTED RIGHTS LEGEND
  
 Use, reproduction and disclosure by the US Government is
 subject to restrictions as set forth in subparagraphs (a)
 and (c) of the Commercial Computer Software - Restricted
 Rights clause in FAR 52.227-19.
  
 Gaussian, Inc.
 340 Quinnipiac St., Bldg. 40, Wallingford CT 06492
  
  
 ---------------------------------------------------------------
 Warning -- This program may not be used in any manner that
 competes with the business of Gaussian, Inc. or will provide
 assistance to any competitor of Gaussian, Inc.  The licensee
 of this program is prohibited from giving any competitor of
 Gaussian, Inc. access to this program.  By using this program,
 the user acknowledges that Gaussian, Inc. is engaged in the
 business of creating and licensing software in the field of
 computational chemistry and represents and warrants to the
 licensee that it is not a competitor of Gaussian, Inc. and that
 it will not use this program in any manner prohibited above.
 ---------------------------------------------------------------
  

 Cite this work as:
 Gaussian 16, Revision A.03,
 M. J. Frisch, G. W. Trucks, H. B. Schlegel, G. E. Scuseria, 
 M. A. Robb, J. R. Cheeseman, G. Scalmani, V. Barone, 
 G. A. Petersson, H. Nakatsuji, X. Li, M. Caricato, A. V. Marenich, 
 J. Bloino, B. G. Janesko, R. Gomperts, B. Mennucci, H. P. Hratchian, 
 J. V. Ortiz, A. F. Izmaylov, J. L. Sonnenberg, D. Williams-Young, 
 F. Ding, F. Lipparini, F. Egidi, J. Goings, B. Peng, A. Petrone, 
 T. Henderson, D. Ranasinghe, V. G. Zakrzewski, J. Gao, N. Rega, 
 G. Zheng, W. Liang, M. Hada, M. Ehara, K. Toyota, R. Fukuda, 
 J. Hasegawa, M. Ishida, T. Nakajima, Y. Honda, O. Kitao, H. Nakai, 
 T. Vreven, K. Throssell, J. A. Montgomery, Jr., J. E. Peralta, 
 F. Ogliaro, M. J. Bearpark, J. J. Heyd, E. N. Brothers, K. N. Kudin, 
 V. N. Staroverov, T. A. Keith, R. Kobayashi, J. Normand, 
 K. Raghavachari, A. P. Rendell, J. C. Burant, S. S. Iyengar, 
 J. Tomasi, M. Cossi, J. M. Millam, M. Klene, C. Adamo, R. Cammi, 
 J. W. Ochterski, R. L. Martin, K. Morokuma, O. Farkas, 
 J. B. Foresman, and D. J. Fox, Gaussian, Inc., Wallingford CT, 2016.
 
 ******************************************
 Gaussian 16:  ES64L-G16RevA.03 25-Dec-2016
                10-Jun-2022 
 ******************************************
 %nprocshared=12
 Will use up to   12 processors via shared memory.
 %chk=checkpoint.chk
 %mem=12GB
 ----------------------------------------------------------------------
 # Opt=(Z-matrix, MaxStep=10) B3LYP/Def2TZVP geom=allcheckpoint guess=r
 ead Field=read NoSymm freq=noraman pop=none
 ----------------------------------------------------------------------
 1/8=10,10=7,18=40,26=3,29=7,38=1/1,3;
 2/12=2,15=1,29=3,40=1/2;
 3/5=44,7=101,11=2,14=-6,25=1,30=1,71=1,74=-5,116=-2/1,2,3;
 4/5=1/1;
 5/5=2,38=6/2;
 7/29=1,30=1/1,2,3,16;
 1/8=10,10=7,18=40,26=3/3(2);
 2/15=1,29=3/2;
 99//99;
 2/15=1,29=3/2;
 3/5=44,7=101,11=2,14=-2,25=1,30=1,71=1,74=-5/1,2,3;
 4/5=5,16=3,69=1/1;
 5/5=2,38=5/2;
 7/30=1/1,2,3,16;
 1/8=10,18=40,26=3/3(-5);
 2/15=1,29=3/2;
 99/9=1/99;
 Structure from the checkpoint file:  "checkpoint.chk"
 ------------------
 int_zmat_initalOpt
 ------------------
 Charge =  0 Multiplicity = 1
 Z-Matrix found in chk file.
 H
 C,1,R2
 C,2,R3,1,A3
 C,2,R4,1,A4,3,D4,0
 H,3,R5,2,A5,1,D5,0
 C,3,R6,2,A6,5,D6,0
 C,4,R7,2,A7,1,D7,0
 H,4,R8,2,A8,7,D8,0
 C,6,R9,3,A9,2,D9,0
 C,6,R10,3,A10,9,D10,0
 H,7,R11,4,A11,2,D11,0
 H,9,R12,6,A12,3,D12,0
 C,9,R13,6,A13,12,D13,0
 H,9,R14,6,A14,12,D14,0
 H,13,R15,9,A15,6,D15,0
 H,13,R16,9,A16,15,D16,0
      Variables:
 R2=1.0828513
 R3=1.39873515
 R4=1.39693679
 R5=1.08329652
 R6=1.38246496
 R7=1.3987285
 R8=1.08285263
 R9=1.51955934
 R10=1.38953882
 R11=1.08329707
 R12=1.0919844
 R13=1.57910552
 R14=1.09198371
 R15=1.09198374
 R16=1.09198336
 A3=119.45787906
 A4=118.84402419
 A5=120.7567211
 A6=116.0041591
 A7=121.69921281
 A8=118.85068601
 A9=144.12658732
 A10=122.29754359
 A11=120.75638262
 A12=115.69785684
 A13=86.42295607
 A14=115.69837044
 A15=114.59296954
 A16=114.59298533
 D4=179.99952014
 D5=-0.00016106
 D6=180.00021582
 D7=-179.99895623
 D8=-180.0004013
 D9=-179.99919321
 D10=179.99702433
 D11=-180.00087144
 D12=-64.37286792
 D13=-115.63133245
 D14=128.73315066
 D15=-116.69049922
 D16=-126.61659894
 Recover connectivity data from disk.

 GradGradGradGradGradGradGradGradGradGradGradGradGradGradGradGradGradGrad
 Berny optimization.
 Initialization pass.
                       ----------------------------
                       !    Initial Parameters    !
                       ! (Angstroms and Degrees)  !
 ----------------------                            ----------------------
 !      Name          Value   Derivative information (Atomic Units)     !
 ------------------------------------------------------------------------
 !       R2          1.0829   estimate D2E/DX2                          !
 !       R3          1.3987   estimate D2E/DX2                          !
 !       R4          1.3969   estimate D2E/DX2                          !
 !       R5          1.0833   estimate D2E/DX2                          !
 !       R6          1.3825   estimate D2E/DX2                          !
 !       R7          1.3987   estimate D2E/DX2                          !
 !       R8          1.0829   estimate D2E/DX2                          !
 !       R9          1.5196   estimate D2E/DX2                          !
 !       R10         1.3895   estimate D2E/DX2                          !
 !       R11         1.0833   estimate D2E/DX2                          !
 !       R12         1.092    estimate D2E/DX2                          !
 !       R13         1.5791   estimate D2E/DX2                          !
 !       R14         1.092    estimate D2E/DX2                          !
 !       R15         1.092    estimate D2E/DX2                          !
 !       R16         1.092    estimate D2E/DX2                          !
 !       A3        119.4579   estimate D2E/DX2                          !
 !       A4        118.844    estimate D2E/DX2                          !
 !       A5        120.7567   estimate D2E/DX2                          !
 !       A6        116.0042   estimate D2E/DX2                          !
 !       A7        121.6992   estimate D2E/DX2                          !
 !       A8        118.8507   estimate D2E/DX2                          !
 !       A9        144.1266   estimate D2E/DX2                          !
 !       A10       122.2975   estimate D2E/DX2                          !
 !       A11       120.7564   estimate D2E/DX2                          !
 !       A12       115.6979   estimate D2E/DX2                          !
 !       A13        86.423    estimate D2E/DX2                          !
 !       A14       115.6984   estimate D2E/DX2                          !
 !       A15       114.593    estimate D2E/DX2                          !
 !       A16       114.593    estimate D2E/DX2                          !
 !       D4        179.9995   estimate D2E/DX2                          !
 !       D5         -0.0002   estimate D2E/DX2                          !
 !       D6        180.0002   estimate D2E/DX2                          !
 !       D7       -179.999    estimate D2E/DX2                          !
 !       D8       -180.0004   estimate D2E/DX2                          !
 !       D9       -179.9992   estimate D2E/DX2                          !
 !       D10       179.997    estimate D2E/DX2                          !
 !       D11      -180.0009   estimate D2E/DX2                          !
 !       D12       -64.3729   estimate D2E/DX2                          !
 !       D13      -115.6313   estimate D2E/DX2                          !
 !       D14       128.7332   estimate D2E/DX2                          !
 !       D15      -116.6905   estimate D2E/DX2                          !
 !       D16      -126.6166   estimate D2E/DX2                          !
 ------------------------------------------------------------------------
 Trust Radius=1.00D-01 FncErr=1.00D-07 GrdErr=1.00D-06 EigMax=2.50D+02 EigMin=1.00D-04
 Number of steps in this run=     52 maximum allowed number of steps=    100.
 GradGradGradGradGradGradGradGradGradGradGradGradGradGradGradGradGradGrad

 ---------------------------------------------------------------------------------------------------
                            Z-MATRIX (ANGSTROMS AND DEGREES)
   CD    Cent   Atom    N1       Length/X        N2       Alpha/Y        N3        Beta/Z          J
 ---------------------------------------------------------------------------------------------------
      1      1  H 
      2      2  C        1   1.082851(     1)
      3      3  C        2   1.398735(     2)      1  119.458(    16)
      4      4  C        2   1.396937(     3)      1  118.844(    17)      3  180.000(    30)      0
      5      5  H        3   1.083297(     4)      2  120.757(    18)      1   -0.000(    31)      0
      6      6  C        3   1.382465(     5)      2  116.004(    19)      5  180.000(    32)      0
      7      7  C        4   1.398728(     6)      2  121.699(    20)      1 -179.999(    33)      0
      8      8  H        4   1.082853(     7)      2  118.851(    21)      7 -180.000(    34)      0
      9      9  C        6   1.519559(     8)      3  144.127(    22)      2 -179.999(    35)      0
     10     10  C        6   1.389539(     9)      3  122.298(    23)      9  179.997(    36)      0
     11     11  H        7   1.083297(    10)      4  120.756(    24)      2 -180.001(    37)      0
     12     12  H        9   1.091984(    11)      6  115.698(    25)      3  -64.373(    38)      0
     13     13  C        9   1.579106(    12)      6   86.423(    26)     12 -115.631(    39)      0
     14     14  H        9   1.091984(    13)      6  115.698(    27)     12  128.733(    40)      0
     15     15  H       13   1.091984(    14)      9  114.593(    28)      6 -116.690(    41)      0
     16     16  H       13   1.091983(    15)      9  114.593(    29)     15 -126.617(    42)      0
 ---------------------------------------------------------------------------------------------------
                         Z-Matrix orientation:                         
 ---------------------------------------------------------------------
 Center     Atomic      Atomic             Coordinates (Angstroms)
 Number     Number       Type             X           Y           Z
 ---------------------------------------------------------------------
      1          1           0        0.000000    0.000000    0.000000
      2          6           0        0.000000    0.000000    1.082851
      3          6           0        1.217903    0.000000    1.770726
      4          6           0       -1.223628    0.000010    1.756771
      5          1           0        2.158088   -0.000003    1.232596
      6          6           0        1.134620   -0.000001    3.150680
      7          6           0       -1.293301    0.000033    3.153763
      8          1           0       -2.138868    0.000007    1.178062
      9          6           0        1.949282    0.000011    4.433407
     10          6           0       -0.082530    0.000042    3.821027
     11          1           0       -2.250671    0.000054    3.660690
     12          1           0        2.562406   -0.887164    4.604956
     13          6           0        0.566068    0.000106    5.195177
     14          1           0        2.562548    0.887105    4.604860
     15          1           0        0.383185    0.887265    5.805038
     16          1           0        0.383119   -0.886968    5.805141
 ---------------------------------------------------------------------
                    Distance matrix (angstroms):
                    1          2          3          4          5
     1  H    0.000000
     2  C    1.082851   0.000000
     3  C    2.149130   1.398735   0.000000
     4  C    2.140913   1.396937   2.441571   0.000000
     5  H    2.485284   2.163277   1.083297   3.422098   0.000000
     6  C    3.348754   2.358661   1.382465   2.739401   2.174059
     7  C    3.408643   2.441578   2.866869   1.398728   3.950059
     8  H    2.441841   2.140986   3.408690   1.082853   4.297302
     9  C    4.843015   3.876328   2.761301   4.151112   3.207615
    10  C    3.821918   2.739419   2.427933   2.358656   3.423498
    11  H    4.297228   3.422101   3.950059   2.163267   5.033169
    12  H    5.344026   4.445021   3.260002   4.820093   3.510462
    13  C    5.225925   4.151102   3.485936   3.876292   4.270430
    14  H    5.344001   4.445015   3.259960   4.820132   3.510373
    15  H    5.884942   4.820075   4.214222   4.444945   4.984451
    16  H    5.884994   4.820115   4.214271   4.444959   4.984515
                    6          7          8          9         10
     6  C    0.000000
     7  C    2.427923   0.000000
     8  H    3.821904   2.149042   0.000000
     9  C    1.519559   3.485947   5.225920   0.000000
    10  C    1.389539   1.382464   3.348700   2.122090   0.000000
    11  H    3.423493   1.083297   2.485145   4.270444   2.174062
    12  H    2.222735   4.214209   5.884952   1.091984   2.897821
    13  C    2.122078   2.761271   4.842922   1.579106   1.519528
    14  H    2.222740   4.214279   5.884998   1.091984   2.897880
    15  H    2.897846   3.259915   5.343865   2.263018   2.222691
    16  H    2.897865   3.259901   5.343875   2.263018   2.222684
                   11         12         13         14         15
    11  H    0.000000
    12  H    4.984427   0.000000
    13  C    3.207595   2.262957   0.000000
    14  H    4.984515   1.774269   2.263001   0.000000
    15  H    3.510352   3.055781   1.091984   2.487981   0.000000
    16  H    3.510317   2.487918   1.091983   3.055801   1.774234
                   16
    16  H    0.000000
 Symmetry turned off by external request.
 Stoichiometry    C8H8
 Framework group  C1[X(C8H8)]
 Deg. of freedom    42
 Full point group                 C1      NOp   1
 Rotational constants (GHZ):           4.4823119           2.0915942           1.4521206
 Standard basis: def2TZVP (5D, 7F)
 The following finite field(s) will be applied:
 An electric field of              0.0024 -0.0000  0.0044
   296 basis functions,   472 primitive gaussians,   336 cartesian basis functions
    28 alpha electrons       28 beta electrons
       nuclear repulsion energy       333.1005461122 Hartrees.
 NAtoms=   16 NActive=   16 NUniq=   16 SFac= 1.00D+00 NAtFMM=   60 NAOKFM=F Big=F
 Integral buffers will be    131072 words long.
 Raffenetti 2 integral format.
 Two-electron integral symmetry is turned off.
 One-electron integrals computed using PRISM.
   1 Symmetry operations used in ECPInt.
 ECPInt:  NShTT=    7260 NPrTT=   21936 LenC2=    7147 LenP2D=   17612.
 LDataN:  DoStor=T MaxTD1= 6 Len=  172
 NBasis=   296 RedAO= T EigKep=  8.46D-06  NBF=   296
 NBsUse=   296 1.00D-06 EigRej= -1.00D+00 NBFU=   296
 The nuclear repulsion energy is now       334.6113841433 hartrees.
 Initial guess from the checkpoint file:  "checkpoint.chk"
 B after Tr=     0.000000    0.000000    0.000000
         Rot=    1.000000    0.000000    0.000000    0.000000 Ang=   0.00 deg.
 Requested convergence on RMS density matrix=1.00D-08 within 128 cycles.
 Requested convergence on MAX density matrix=1.00D-06.
 Requested convergence on             energy=1.00D-06.
 No special actions if energy rises.
 SCF Done:  E(RB3LYP) =  -309.743268951     A.U. after    9 cycles
            NFock=  9  Conv=0.75D-08     -V/T= 2.0054
   1 Symmetry operations used in ECPInt.
 ECPInt:  NShTT=    7260 NPrTT=   21936 LenC2=    7147 LenP2D=   17612.
 LDataN:  DoStor=T MaxTD1= 7 Len=  274
 Calling FoFJK, ICntrl=      2127 FMM=F ISym2X=0 I1Cent= 0 IOpClX= 0 NMat=1 NMatS=1 NMatT=0.
 -------------------------------------------------------------------
 Center     Atomic                   Forces (Hartrees/Bohr)
 Number     Number              X              Y              Z
 -------------------------------------------------------------------
      1        1          -0.000047382   -0.000000196    0.000169447
      2        6           0.000278062    0.000000788   -0.000140425
      3        6           0.000173938   -0.000001928    0.000023430
      4        6          -0.000276117   -0.000000519    0.000175454
      5        1          -0.000108970   -0.000000355   -0.000139028
      6        6          -0.000663317    0.000001666    0.000103629
      7        6          -0.000072377    0.000001234    0.000161284
      8        1           0.000176861   -0.000000065    0.000037611
      9        6          -0.000137152   -0.000000860   -0.000190620
     10        6           0.000445602    0.000000578   -0.000515228
     11        1          -0.000058442    0.000000160   -0.000166492
     12        1           0.000206991   -0.000305551    0.000109590
     13        6          -0.000097662   -0.000001505   -0.000205688
     14        1           0.000205112    0.000306455    0.000112572
     15        1          -0.000013075    0.000308315    0.000231261
     16        1          -0.000012072   -0.000308216    0.000233202
 -------------------------------------------------------------------
 Cartesian Forces:  Max     0.000663317 RMS     0.000204581
 -----------------------------------------------------------------------------------------------
                       Internal Coordinate Forces (Hartree/Bohr or radian)
  Cent   Atom   N1       Length/X         N2         Alpha/Y        N3         Beta/Z          J
 -----------------------------------------------------------------------------------------------
      1  H 
      2  C        1  -0.000169(     1)
      3  C        2  -0.000117(     2)      1  -0.000521(    16)
      4  C        2   0.000302(     3)      1  -0.000644(    17)      3  -0.000002(    30)     0
      5  H        3  -0.000026(     4)      2  -0.000358(    18)      1   0.000006(    31)     0
      6  C        3  -0.000117(     5)      2  -0.000382(    19)      5   0.000006(    32)     0
      7  C        4   0.000001(     6)      2   0.000703(    20)      1   0.000003(    33)     0
      8  H        4  -0.000170(     7)      2  -0.000128(    21)      7   0.000000(    34)     0
      9  C        6   0.000327(     8)      3  -0.000429(    22)      2   0.000006(    35)     0
     10  C        6  -0.000639(     9)      3  -0.000621(    23)      9  -0.000001(    36)     0
     11  H        7  -0.000026(    10)      4  -0.000357(    24)      2  -0.000000(    37)     0
     12  H        9   0.000382(    11)      6   0.000087(    25)      3   0.000010(    38)     0
     13  C        9   0.000232(    12)      6   0.000631(    26)     12   0.000004(    39)     0
     14  H        9   0.000382(    13)      6   0.000090(    27)     12   0.000057(    40)     0
     15  H       13   0.000382(    14)      9  -0.000081(    28)      6   0.000004(    41)     0
     16  H       13   0.000383(    15)      9  -0.000082(    29)     15   0.000073(    42)     0
 -----------------------------------------------------------------------------------------------
 Internal  Forces:  Max     0.000703236 RMS     0.000306033

 GradGradGradGradGradGradGradGradGradGradGradGradGradGradGradGradGradGrad
 Berny optimization.
 Search for a local minimum.
 Step number   1 out of a maximum of   52
 All quantities printed in internal units (Hartrees-Bohrs-Radians)
 Second derivative matrix not updated -- first step.
 ITU=  0
     Eigenvalues ---   -0.05936   0.01851   0.03362   0.04948   0.05870
     Eigenvalues ---    0.06921   0.08240   0.09906   0.12248   0.13913
     Eigenvalues ---    0.15486   0.15633   0.21896   0.24051   0.24123
     Eigenvalues ---    0.27337   0.29191   0.32177   0.32870   0.34583
     Eigenvalues ---    0.34584   0.34585   0.34585   0.35513   0.35599
     Eigenvalues ---    0.35599   0.35652   0.35652   0.36144   0.37059
     Eigenvalues ---    0.45906   0.46530   0.46614   0.48725   0.51613
     Eigenvalues ---    0.58797   1.11876   1.14751   2.76919   5.24091
     Eigenvalues ---    8.27342  38.48428
 RFO step:  Lambda=-5.93640573D-02 EMin=-5.93640538D-02
 I=     1 Eig=   -5.94D-02 Dot1= -1.24D-06
 I=     1 Stepn= -2.50D-01 RXN=   2.50D-01 EDone=F
 Mixed    1 eigenvectors in step.  Raw Step.Grad=  1.24D-06.
 RFO eigenvector is Hessian eigenvector with negative curvature.
 Taking step of  2.50D-01 in eigenvector direction(s).  Step.Grad= -1.33D-04.
 Linear search not attempted -- first point.
 Maximum step size (   0.100) exceeded in Quadratic search.
    -- Step size scaled by   0.400
 Variable       Old X    -DE/DX   Delta X   Delta X   Delta X     New X
                                 (Linear)    (Quad)   (Total)
    R2        2.04629  -0.00017   0.00000  -0.00000  -0.00000   2.04629
    R3        2.64323  -0.00012   0.00000   0.00004   0.00004   2.64326
    R4        2.63983   0.00030   0.00000  -0.00004  -0.00004   2.63979
    R5        2.04713  -0.00003   0.00000  -0.00000  -0.00000   2.04713
    R6        2.61248  -0.00012   0.00000   0.00007   0.00007   2.61255
    R7        2.64321   0.00000   0.00000  -0.00007  -0.00007   2.64314
    R8        2.04629  -0.00017   0.00000   0.00000   0.00000   2.04630
    R9        2.87155   0.00033   0.00000   0.00004   0.00004   2.87159
   R10        2.62585  -0.00064   0.00000  -0.00019  -0.00019   2.62566
   R11        2.04713  -0.00003   0.00000   0.00000   0.00000   2.04714
   R12        2.06355   0.00038   0.00000   0.00007   0.00007   2.06363
   R13        2.98408   0.00023   0.00000   0.00038   0.00038   2.98446
   R14        2.06355   0.00038   0.00000  -0.00008  -0.00008   2.06347
   R15        2.06355   0.00038   0.00000   0.00014   0.00014   2.06369
   R16        2.06355   0.00038   0.00000  -0.00014  -0.00014   2.06341
    A3        2.08493  -0.00052   0.00000   0.00047   0.00047   2.08540
    A4        2.07422  -0.00064   0.00000  -0.00045  -0.00045   2.07377
    A5        2.10760  -0.00036   0.00000   0.00003   0.00003   2.10763
    A6        2.02465  -0.00038   0.00000  -0.00003  -0.00003   2.02463
    A7        2.12405   0.00070   0.00000   0.00001   0.00001   2.12406
    A8        2.07434  -0.00013   0.00000  -0.00000  -0.00000   2.07433
    A9        2.51548  -0.00043   0.00000   0.00000   0.00000   2.51549
   A10        2.13449  -0.00062   0.00000  -0.00001  -0.00001   2.13448
   A11        2.10760  -0.00036   0.00000  -0.00001  -0.00001   2.10759
   A12        2.01931   0.00009   0.00000  -0.00218  -0.00218   2.01713
   A13        1.50837   0.00063   0.00000  -0.00007  -0.00007   1.50830
   A14        2.01932   0.00009   0.00000   0.00432   0.00432   2.02364
   A15        2.00002  -0.00008   0.00000   0.00910   0.00910   2.00912
   A16        2.00002  -0.00008   0.00000  -0.00670  -0.00670   1.99332
    D4        3.14158  -0.00000   0.00000   0.04107   0.04107   3.18266
    D5       -0.00000   0.00001   0.00000   0.03894   0.03894   0.03893
    D6        3.14160   0.00001   0.00000   0.01505   0.01505   3.15664
    D7       -3.14157   0.00000   0.00000  -0.05073  -0.05073  -3.19230
    D8       -3.14160   0.00000   0.00000   0.00685   0.00685  -3.13475
    D9       -3.14158   0.00001   0.00000   0.01558   0.01558  -3.12600
   D10        3.14154  -0.00000   0.00000  -0.00807  -0.00807   3.13347
   D11       -3.14161  -0.00000   0.00000   0.00916   0.00916  -3.13245
   D12       -1.12352   0.00001   0.00000   0.03931   0.03931  -1.08421
   D13       -2.01815   0.00000   0.00000   0.00174   0.00174  -2.01640
   D14        2.24682   0.00006   0.00000   0.00642   0.00642   2.25324
   D15       -2.03663   0.00000   0.00000  -0.04205  -0.04205  -2.07869
   D16       -2.20988   0.00007   0.00000  -0.00701  -0.00701  -2.21688
         Item               Value     Threshold  Converged?
 Maximum Force            0.000703     0.000450     NO 
 RMS     Force            0.000306     0.000300     NO 
 Maximum Displacement     0.050728     0.001800     NO 
 RMS     Displacement     0.015430     0.001200     NO 
 Predicted change in Energy=-2.973178D-04
 GradGradGradGradGradGradGradGradGradGradGradGradGradGradGradGradGradGrad

 ---------------------------------------------------------------------------------------------------
                            Z-MATRIX (ANGSTROMS AND DEGREES)
   CD    Cent   Atom    N1       Length/X        N2       Alpha/Y        N3        Beta/Z          J
 ---------------------------------------------------------------------------------------------------
      1      1  H 
      2      2  C        1   1.082851(     1)
      3      3  C        2   1.398754(     2)      1  119.485(    16)
      4      4  C        2   1.396917(     3)      1  118.818(    17)      3  182.353(    30)      0
      5      5  H        3   1.083296(     4)      2  120.758(    18)      1    2.231(    31)      0
      6      6  C        3   1.382503(     5)      2  116.003(    19)      5  180.862(    32)      0
      7      7  C        4   1.398689(     6)      2  121.700(    20)      1 -182.905(    33)      0
      8      8  H        4   1.082853(     7)      2  118.850(    21)      7 -179.608(    34)      0
      9      9  C        6   1.519582(     8)      3  144.127(    22)      2 -179.106(    35)      0
     10     10  C        6   1.389439(     9)      3  122.297(    23)      9  179.535(    36)      0
     11     11  H        7   1.083297(    10)      4  120.756(    24)      2 -179.476(    37)      0
     12     12  H        9   1.092024(    11)      6  115.573(    25)      3  -62.121(    38)      0
     13     13  C        9   1.579309(    12)      6   86.419(    26)     12 -115.531(    39)      0
     14     14  H        9   1.091942(    13)      6  115.946(    27)     12  129.101(    40)      0
     15     15  H       13   1.092059(    14)      9  115.114(    28)      6 -119.100(    41)      0
     16     16  H       13   1.091907(    15)      9  114.209(    29)     15 -127.018(    42)      0
 ---------------------------------------------------------------------------------------------------
                         Z-Matrix orientation:                         
 ---------------------------------------------------------------------
 Center     Atomic      Atomic             Coordinates (Angstroms)
 Number     Number       Type             X           Y           Z
 ---------------------------------------------------------------------
      1          1           0        0.000000    0.000000    0.000000
      2          6           0        0.000000    0.000000    1.082851
      3          6           0        1.217596    0.000000    1.771308
      4          6           0       -1.222883   -0.050245    1.756208
      5          1           0        2.157700    0.036234    1.234258
      6          6           0        1.134513   -0.067045    3.149682
      7          6           0       -1.291404   -0.113432    3.151788
      8          1           0       -2.138356   -0.046228    1.177881
      9          6           0        1.948581   -0.091830    4.432573
     10          6           0       -0.081779   -0.139598    3.817448
     11          1           0       -2.248053   -0.160340    3.657906
     12          1           0        2.626241   -0.940808    4.544508
     13          6           0        0.570269   -0.249484    5.187304
     14          1           0        2.490270    0.825431    4.672454
     15          1           0        0.331418    0.552852    5.888588
     16          1           0        0.443678   -1.209121    5.692608
 ---------------------------------------------------------------------
                    Distance matrix (angstroms):
                    1          2          3          4          5
     1  H    0.000000
     2  C    1.082851   0.000000
     3  C    2.149435   1.398754   0.000000
     4  C    2.140616   1.396917   2.441043   0.000000
     5  H    2.486036   2.163309   1.083296   3.421732   0.000000
     6  C    3.348450   2.358687   1.382503   2.738498   2.174035
     7  C    3.407985   2.441535   2.865950   1.398689   3.949131
     8  H    2.441743   2.140966   3.408329   1.082853   4.297217
     9  C    4.842840   3.876343   2.761359   4.150041   3.207701
    10  C    3.820874   2.739378   2.427869   2.357713   3.423310
    11  H    4.296479   3.422040   3.949137   2.163226   5.032233
    12  H    5.332430   4.445821   3.249622   4.835646   3.483087
    13  C    5.224516   4.151383   3.485728   3.876533   4.269443
    14  H    5.358602   4.446125   3.273788   4.801958   3.543251
    15  H    5.923761   4.848772   4.247700   4.456023   5.026429
    16  H    5.836490   4.786302   4.175826   4.428957   4.936159
                    6          7          8          9         10
     6  C    0.000000
     7  C    2.426361   0.000000
     8  H    3.821009   2.148989   0.000000
     9  C    1.519582   3.484017   5.224764   0.000000
    10  C    1.389439   1.380934   3.347468   2.122033   0.000000
    11  H    3.421805   1.083297   2.485071   4.268083   2.172240
    12  H    2.221318   4.239358   5.902189   1.092024   2.916149
    13  C    2.122158   2.761822   4.842875   1.579309   1.521101
    14  H    2.225629   4.182696   5.864811   1.091942   2.877109
    15  H    2.920760   3.250778   5.352517   2.269540   2.222575
    16  H    2.871944   3.266008   5.329351   2.258487   2.221759
                   11         12         13         14         15
    11  H    0.000000
    12  H    5.015369   0.000000
    13  C    3.207794   2.262330   0.000000
    14  H    4.944972   1.776079   2.259848   0.000000
    15  H    3.483999   3.050211   1.092059   2.492774   0.000000
    16  H    3.533464   2.480667   1.091907   3.060826   1.776389
                   16
    16  H    0.000000
 Symmetry turned off by external request.
 Stoichiometry    C8H8
 Framework group  C1[X(C8H8)]
 Deg. of freedom    42
 Full point group                 C1      NOp   1
 Rotational constants (GHZ):           4.4834918           2.0915602           1.4528455
 Standard basis: def2TZVP (5D, 7F)
 The following finite field(s) will be applied:
 An electric field of              0.0024 -0.0000  0.0044
   296 basis functions,   472 primitive gaussians,   336 cartesian basis functions
    28 alpha electrons       28 beta electrons
       nuclear repulsion energy       333.1304691156 Hartrees.
 NAtoms=   16 NActive=   16 NUniq=   16 SFac= 1.00D+00 NAtFMM=   60 NAOKFM=F Big=F
 Integral buffers will be    131072 words long.
 Raffenetti 2 integral format.
 Two-electron integral symmetry is turned off.
 One-electron integrals computed using PRISM.
   1 Symmetry operations used in ECPInt.
 ECPInt:  NShTT=    7260 NPrTT=   21936 LenC2=    7147 LenP2D=   17612.
 LDataN:  DoStor=T MaxTD1= 6 Len=  172
 NBasis=   296 RedAO= T EigKep=  8.64D-06  NBF=   296
 NBsUse=   296 1.00D-06 EigRej= -1.00D+00 NBFU=   296
 The nuclear repulsion energy is now       334.6405505767 hartrees.
 Initial guess from the checkpoint file:  "checkpoint.chk"
 B after Tr=    -0.002004    0.152476    0.005713
         Rot=    0.999445   -0.029643    0.000134   -0.015191 Ang=  -3.82 deg.
 ExpMin= 9.52D-02 ExpMax= 1.36D+04 ExpMxC= 4.63D+02 IAcc=2 IRadAn=         4 AccDes= 0.00D+00
 Harris functional with IExCor=  402 and IRadAn=       4 diagonalized for initial guess.
 HarFok:  IExCor=  402 AccDes= 0.00D+00 IRadAn=         4 IDoV= 1 UseB2=F ITyADJ=14
 ICtDFT=  3500011 ScaDFX=  1.000000  1.000000  1.000000  1.000000
 FoFCou: FMM=F IPFlag=           0 FMFlag=      100000 FMFlg1=           0
         NFxFlg=           0 DoJE=T BraDBF=F KetDBF=T FulRan=T
         wScrn=  0.000000 ICntrl=       500 IOpCl=  0 I1Cent=   200000004 NGrid=           0
         NMat0=    1 NMatS0=      1 NMatT0=    0 NMatD0=    1 NMtDS0=    0 NMtDT0=    0
 Symmetry not used in FoFCou.
 Requested convergence on RMS density matrix=1.00D-08 within 128 cycles.
 Requested convergence on MAX density matrix=1.00D-06.
 Requested convergence on             energy=1.00D-06.
 No special actions if energy rises.
 Integral accuracy reduced to 1.0D-05 until final iterations.
 Initial convergence to 1.0D-05 achieved.  Increase integral accuracy.
 SCF Done:  E(RB3LYP) =  -309.742867002     A.U. after   10 cycles
            NFock= 10  Conv=0.71D-08     -V/T= 2.0054
   1 Symmetry operations used in ECPInt.
 ECPInt:  NShTT=    7260 NPrTT=   21936 LenC2=    7147 LenP2D=   17612.
 LDataN:  DoStor=T MaxTD1= 7 Len=  274
 Calling FoFJK, ICntrl=      2127 FMM=F ISym2X=0 I1Cent= 0 IOpClX= 0 NMat=1 NMatS=1 NMatT=0.
 -------------------------------------------------------------------
 Center     Atomic                   Forces (Hartrees/Bohr)
 Number     Number              X              Y              Z
 -------------------------------------------------------------------
      1        1          -0.000038705    0.002011436    0.000166675
      2        6           0.000158858   -0.002757555   -0.000092543
      3        6           0.000298311   -0.000159180    0.000109052
      4        6          -0.000276810    0.000908398   -0.000031645
      5        1          -0.000106232    0.000340546   -0.000120868
      6        6          -0.000424951    0.003131193    0.000097802
      7        6          -0.001196614   -0.001890822   -0.000182876
      8        1           0.000169316    0.000074174    0.000046711
      9        6          -0.000197377   -0.004637110    0.000013460
     10        6           0.001754449   -0.001830629    0.000333038
     11        1          -0.000129026   -0.000035451   -0.000224702
     12        1           0.000997066    0.000029272    0.000558402
     13        6          -0.001130253    0.004601892   -0.000825948
     14        1          -0.000180622    0.000316503   -0.000683956
     15        1           0.000646309    0.000030022    0.001095673
     16        1          -0.000343720   -0.000132691   -0.000258275
 -------------------------------------------------------------------
 Cartesian Forces:  Max     0.004637110 RMS     0.001314756
 -----------------------------------------------------------------------------------------------
                       Internal Coordinate Forces (Hartree/Bohr or radian)
  Cent   Atom   N1       Length/X         N2         Alpha/Y        N3         Beta/Z          J
 -----------------------------------------------------------------------------------------------
      1  H 
      2  C        1  -0.000167(     1)
      3  C        2   0.001300(     2)      1  -0.006823(    16)
      4  C        2   0.001099(     3)      1  -0.007174(    17)      3   0.002059(    30)     0
      5  H        3  -0.000021(     4)      2  -0.000337(    18)      1  -0.010181(    31)     0
      6  C        3   0.000189(     5)      2   0.005435(    19)      5  -0.010776(    32)     0
      7  C        4  -0.000255(     6)      2   0.004153(    20)      1  -0.004451(    33)     0
      8  H        4  -0.000168(     7)      2  -0.000111(    21)      7  -0.000130(    34)     0
      9  C        6  -0.000200(     8)      3   0.000638(    22)      2  -0.006342(    35)     0
     10  C        6  -0.001280(     9)      3   0.003104(    23)      9   0.004154(    36)     0
     11  H        7   0.000010(    10)      4  -0.000528(    24)      2   0.000074(    37)     0
     12  H        9   0.000653(    11)      6   0.001654(    25)      3  -0.012966(    38)     0
     13  C        9   0.000279(    12)      6  -0.000786(    26)     12  -0.013689(    39)     0
     14  H        9   0.000026(    13)      6  -0.001585(    27)     12  -0.000184(    40)     0
     15  H       13   0.000584(    14)      9  -0.000664(    28)      6  -0.002788(    41)     0
     16  H       13   0.000037(    15)      9   0.000395(    29)     15  -0.000763(    42)     0
 -----------------------------------------------------------------------------------------------
 Internal  Forces:  Max     0.013688801 RMS     0.004452233

 GradGradGradGradGradGradGradGradGradGradGradGradGradGradGradGradGradGrad
 Berny optimization.
 Search for a local minimum.
 Step number   2 out of a maximum of   52
 All quantities printed in internal units (Hartrees-Bohrs-Radians)
 Update second derivatives using D2CorN and points    2    1
 ITU=  0  0
     Eigenvalues ---    0.01814   0.03252   0.04285   0.05418   0.06629
     Eigenvalues ---    0.06942   0.08642   0.09955   0.13059   0.13950
     Eigenvalues ---    0.15561   0.15693   0.21897   0.24051   0.24123
     Eigenvalues ---    0.27340   0.29191   0.32230   0.32881   0.34583
     Eigenvalues ---    0.34584   0.34585   0.34589   0.35513   0.35599
     Eigenvalues ---    0.35599   0.35652   0.35652   0.36144   0.37059
     Eigenvalues ---    0.45906   0.46530   0.46614   0.48726   0.51613
     Eigenvalues ---    0.58798   1.11946   1.15874   2.76919   5.24114
     Eigenvalues ---    8.27342  38.48438
 RFO step:  Lambda=-4.09976516D-06 EMin= 1.81424731D-02
 Quartic linear search produced a step of -0.99937.
 Variable       Old X    -DE/DX   Delta X   Delta X   Delta X     New X
                                 (Linear)    (Quad)   (Total)
    R2        2.04629  -0.00017   0.00000  -0.00048  -0.00048   2.04582
    R3        2.64326   0.00130  -0.00003  -0.00034  -0.00037   2.64289
    R4        2.63979   0.00110   0.00004   0.00020   0.00024   2.64003
    R5        2.04713  -0.00002   0.00000  -0.00007  -0.00007   2.04706
    R6        2.61255   0.00019  -0.00007   0.00014   0.00007   2.61262
    R7        2.64314  -0.00025   0.00007  -0.00040  -0.00033   2.64281
    R8        2.04630  -0.00017  -0.00000  -0.00047  -0.00047   2.04582
    R9        2.87159  -0.00020  -0.00004   0.00058   0.00054   2.87213
   R10        2.62566  -0.00128   0.00019  -0.00066  -0.00047   2.62519
   R11        2.04714   0.00001  -0.00000  -0.00007  -0.00007   2.04706
   R12        2.06363   0.00065  -0.00007   0.00110   0.00103   2.06466
   R13        2.98446   0.00028  -0.00038   0.00046   0.00008   2.98454
   R14        2.06347   0.00003   0.00008   0.00110   0.00118   2.06465
   R15        2.06369   0.00058  -0.00014   0.00110   0.00096   2.06465
   R16        2.06341   0.00004   0.00014   0.00111   0.00125   2.06466
    A3        2.08540  -0.00682  -0.00047   0.00063   0.00016   2.08557
    A4        2.07377  -0.00717   0.00045  -0.00084  -0.00039   2.07338
    A5        2.10763  -0.00034  -0.00003  -0.00085  -0.00088   2.10675
    A6        2.02463   0.00544   0.00003  -0.00055  -0.00052   2.02411
    A7        2.12406   0.00415  -0.00001   0.00024   0.00023   2.12429
    A8        2.07433  -0.00011   0.00000  -0.00052  -0.00051   2.07382
    A9        2.51549   0.00064  -0.00000  -0.00046  -0.00046   2.51502
   A10        2.13448   0.00310   0.00001   0.00031   0.00032   2.13480
   A11        2.10759  -0.00053   0.00001  -0.00092  -0.00091   2.10667
   A12        2.01713   0.00165   0.00218   0.00052   0.00270   2.01983
   A13        1.50830  -0.00079   0.00007  -0.00017  -0.00010   1.50819
   A14        2.02364  -0.00159  -0.00432   0.00051  -0.00381   2.01983
   A15        2.00912  -0.00066  -0.00909  -0.00038  -0.00947   1.99965
   A16        1.99332   0.00040   0.00670  -0.00037   0.00633   1.99965
    D4        3.18266   0.00206  -0.04105  -0.00003  -0.04107   3.14158
    D5        0.03893  -0.01018  -0.03891  -0.00004  -0.03895  -0.00001
    D6        3.15664  -0.01078  -0.01504  -0.00003  -0.01507   3.14158
    D7       -3.19230  -0.00445   0.05070   0.00003   0.05073  -3.14157
    D8       -3.13475  -0.00013  -0.00684  -0.00000  -0.00684  -3.14160
    D9       -3.12600  -0.00634  -0.01557   0.00004  -0.01553  -3.14153
   D10        3.13347   0.00415   0.00806   0.00001   0.00807   3.14155
   D11       -3.13245   0.00007  -0.00915   0.00000  -0.00915  -3.14160
   D12       -1.08421  -0.01297  -0.03928  -0.00043  -0.03972  -1.12393
   D13       -2.01640  -0.01369  -0.00174   0.00046  -0.00129  -2.01769
   D14        2.25324  -0.00018  -0.00642   0.00097  -0.00545   2.24779
   D15       -2.07869  -0.00279   0.04203  -0.00034   0.04168  -2.03700
   D16       -2.21688  -0.00076   0.00700   0.00069   0.00770  -2.20919
         Item               Value     Threshold  Converged?
 Maximum Force            0.013689     0.000450     NO 
 RMS     Force            0.004452     0.000300     NO 
 Maximum Displacement     0.050730     0.001800     NO 
 RMS     Displacement     0.015436     0.001200     NO 
 Predicted change in Energy=-5.381157D-06
 GradGradGradGradGradGradGradGradGradGradGradGradGradGradGradGradGradGrad

 ---------------------------------------------------------------------------------------------------
                            Z-MATRIX (ANGSTROMS AND DEGREES)
   CD    Cent   Atom    N1       Length/X        N2       Alpha/Y        N3        Beta/Z          J
 ---------------------------------------------------------------------------------------------------
      1      1  H 
      2      2  C        1   1.082600(     1)
      3      3  C        2   1.398558(     2)      1  119.494(    16)
      4      4  C        2   1.397042(     3)      1  118.796(    17)      3  180.000(    30)      0
      5      5  H        3   1.083259(     4)      2  120.708(    18)      1   -0.001(    31)      0
      6      6  C        3   1.382541(     5)      2  115.973(    19)      5  179.999(    32)      0
      7      7  C        4   1.398517(     6)      2  121.713(    20)      1 -179.999(    33)      0
      8      8  H        4   1.082602(     7)      2  118.821(    21)      7 -180.000(    34)      0
      9      9  C        6   1.519868(     8)      3  144.100(    22)      2 -179.996(    35)      0
     10     10  C        6   1.389189(     9)      3  122.315(    23)      9  179.997(    36)      0
     11     11  H        7   1.083259(    10)      4  120.704(    24)      2 -180.000(    37)      0
     12     12  H        9   1.092569(    11)      6  115.728(    25)      3  -64.396(    38)      0
     13     13  C        9   1.579350(    12)      6   86.413(    26)     12 -115.605(    39)      0
     14     14  H        9   1.092567(    13)      6  115.728(    27)     12  128.789(    40)      0
     15     15  H       13   1.092568(    14)      9  114.572(    28)      6 -116.712(    41)      0
     16     16  H       13   1.092569(    15)      9  114.572(    29)     15 -126.577(    42)      0
 ---------------------------------------------------------------------------------------------------
                         Z-Matrix orientation:                         
 ---------------------------------------------------------------------
 Center     Atomic      Atomic             Coordinates (Angstroms)
 Number     Number       Type             X           Y           Z
 ---------------------------------------------------------------------
      1          1           0        0.000000    0.000000    0.000000
      2          6           0        0.000000    0.000000    1.082600
      3          6           0        1.217314    0.000000    1.771157
      4          6           0       -1.224286    0.000010    1.755541
      5          1           0        2.157347   -0.000013    1.232839
      6          6           0        1.132398    0.000038    3.151088
      7          6           0       -1.295463    0.000035    3.152245
      8          1           0       -2.138527    0.000005    1.175722
      9          6           0        1.946303    0.000115    4.434661
     10          6           0       -0.085028    0.000056    3.820207
     11          1           0       -2.253815    0.000050    3.657233
     12          1           0        2.559538   -0.887461    4.607452
     13          6           0        0.562197    0.000114    5.195317
     14          1           0        2.559504    0.887730    4.607370
     15          1           0        0.379125    0.887723    5.805513
     16          1           0        0.379173   -0.887456    5.805586
 ---------------------------------------------------------------------
                    Distance matrix (angstroms):
                    1          2          3          4          5
     1  H    0.000000
     2  C    1.082600   0.000000
     3  C    2.149151   1.398558   0.000000
     4  C    2.140281   1.397042   2.441650   0.000000
     5  H    2.484761   2.162572   1.083259   3.421792   0.000000
     6  C    3.348385   2.358171   1.382541   2.738889   2.174903
     7  C    3.408060   2.441650   2.867307   1.398517   3.950445
     8  H    2.440414   2.140554   3.408256   1.082602   4.296254
     9  C    4.842965   3.876133   2.761463   4.150942   3.208770
    10  C    3.821153   2.738927   2.427900   2.358125   3.423845
    11  H    4.295932   3.421756   3.950445   2.162490   5.033491
    12  H    5.344852   4.445605   3.260939   4.820615   3.512455
    13  C    5.225647   4.150965   3.486266   3.876027   4.271503
    14  H    5.344809   4.445575   3.260927   4.820586   3.512447
    15  H    5.885216   4.820550   4.215049   4.445361   4.985930
    16  H    5.885251   4.820576   4.215054   4.445396   4.985928
                    6          7          8          9         10
     6  C    0.000000
     7  C    2.427861   0.000000
     8  H    3.821129   2.148814   0.000000
     9  C    1.519868   3.486207   5.225564   0.000000
    10  C    1.389189   1.382507   3.348158   2.122230   0.000000
    11  H    3.423831   1.083259   2.484187   4.271462   2.174902
    12  H    2.223821   4.215010   5.885252   1.092569   2.898477
    13  C    2.122263   2.761348   4.842629   1.579350   1.519812
    14  H    2.223822   4.214992   5.885216   1.092567   2.898472
    15  H    2.898513   3.260685   5.344304   2.263434   2.223698
    16  H    2.898509   3.260715   5.344347   2.263431   2.223711
                   11         12         13         14         15
    11  H    0.000000
    12  H    4.985876   0.000000
    13  C    3.208680   2.263348   0.000000
    14  H    4.985857   1.775192   2.263355   0.000000
    15  H    3.512185   3.056277   1.092568   2.487890   0.000000
    16  H    3.512223   2.487874   1.092569   3.056280   1.775179
                   16
    16  H    0.000000
 Symmetry turned off by external request.
 Stoichiometry    C8H8
 Framework group  C1[X(C8H8)]
 Deg. of freedom    42
 Full point group                 C1      NOp   1
 Rotational constants (GHZ):           4.4816447           2.0916378           1.4520995
 Standard basis: def2TZVP (5D, 7F)
 The following finite field(s) will be applied:
 An electric field of              0.0024 -0.0000  0.0044
   296 basis functions,   472 primitive gaussians,   336 cartesian basis functions
    28 alpha electrons       28 beta electrons
       nuclear repulsion energy       333.0901720836 Hartrees.
 NAtoms=   16 NActive=   16 NUniq=   16 SFac= 1.00D+00 NAtFMM=   60 NAOKFM=F Big=F
 Integral buffers will be    131072 words long.
 Raffenetti 2 integral format.
 Two-electron integral symmetry is turned off.
 One-electron integrals computed using PRISM.
   1 Symmetry operations used in ECPInt.
 ECPInt:  NShTT=    7260 NPrTT=   21936 LenC2=    7147 LenP2D=   17613.
 LDataN:  DoStor=T MaxTD1= 6 Len=  172
 NBasis=   296 RedAO= T EigKep=  8.46D-06  NBF=   296
 NBsUse=   296 1.00D-06 EigRej= -1.00D+00 NBFU=   296
 The nuclear repulsion energy is now       334.6004446684 hartrees.
 Lowest energy guess from the checkpoint file:  "checkpoint.chk"
 B after Tr=     0.001472   -0.000002   -0.000815
         Rot=    1.000000    0.000003    0.000436   -0.000012 Ang=   0.05 deg.
 B after Tr=    -0.001160   -0.152546    0.002517
         Rot=    0.999445    0.029640    0.000302    0.015193 Ang=   3.82 deg.
 Requested convergence on RMS density matrix=1.00D-08 within 128 cycles.
 Requested convergence on MAX density matrix=1.00D-06.
 Requested convergence on             energy=1.00D-06.
 No special actions if energy rises.
 Integral accuracy reduced to 1.0D-05 until final iterations.
 Initial convergence to 1.0D-05 achieved.  Increase integral accuracy.
 SCF Done:  E(RB3LYP) =  -309.743271177     A.U. after    8 cycles
            NFock=  8  Conv=0.72D-08     -V/T= 2.0054
   1 Symmetry operations used in ECPInt.
 ECPInt:  NShTT=    7260 NPrTT=   21936 LenC2=    7147 LenP2D=   17613.
 LDataN:  DoStor=T MaxTD1= 7 Len=  274
 Calling FoFJK, ICntrl=      2127 FMM=F ISym2X=0 I1Cent= 0 IOpClX= 0 NMat=1 NMatS=1 NMatT=0.
 -------------------------------------------------------------------
 Center     Atomic                   Forces (Hartrees/Bohr)
 Number     Number              X              Y              Z
 -------------------------------------------------------------------
      1        1           0.000030675   -0.000000906   -0.000006045
      2        6           0.000079731   -0.000000728   -0.000038333
      3        6           0.000048160    0.000001419   -0.000024162
      4        6          -0.000103927    0.000000294    0.000083474
      5        1          -0.000030673    0.000000259   -0.000023972
      6        6          -0.000158194    0.000001635    0.000139304
      7        6          -0.000061101    0.000000442    0.000045148
      8        1           0.000009819    0.000000042   -0.000026097
      9        6           0.000043741   -0.000003139   -0.000057005
     10        6           0.000212755   -0.000001669   -0.000064487
     11        1          -0.000000087   -0.000000174   -0.000032984
     12        1           0.000010819   -0.000000599   -0.000007756
     13        6          -0.000088845    0.000001843    0.000008458
     14        1           0.000010168    0.000001247   -0.000007871
     15        1          -0.000001071    0.000000285    0.000006743
     16        1          -0.000001969   -0.000000250    0.000005583
 -------------------------------------------------------------------
 Cartesian Forces:  Max     0.000212755 RMS     0.000055163
 -----------------------------------------------------------------------------------------------
                       Internal Coordinate Forces (Hartree/Bohr or radian)
  Cent   Atom   N1       Length/X         N2         Alpha/Y        N3         Beta/Z          J
 -----------------------------------------------------------------------------------------------
      1  H 
      2  C        1   0.000006(     1)
      3  C        2   0.000027(     2)      1  -0.000348(    16)
      4  C        2   0.000170(     3)      1  -0.000312(    17)      3  -0.000001(    30)     0
      5  H        3  -0.000015(     4)      2  -0.000074(    18)      1   0.000003(    31)     0
      6  C        3   0.000021(     5)      2   0.000158(    19)      5   0.000003(    32)     0
      7  C        4   0.000015(     6)      2   0.000220(    20)      1   0.000001(    33)     0
      8  H        4   0.000006(     7)      2  -0.000056(    21)      7  -0.000000(    34)     0
      9  C        6  -0.000058(     8)      3   0.000038(    22)      2  -0.000002(    35)     0
     10  C        6  -0.000218(     9)      3   0.000121(    23)      9   0.000004(    36)     0
     11  H        7  -0.000015(    10)      4  -0.000060(    24)      2   0.000000(    37)     0
     12  H        9   0.000005(    11)      6  -0.000007(    25)      3  -0.000005(    38)     0
     13  C        9   0.000091(    12)      6  -0.000077(    26)     12  -0.000006(    39)     0
     14  H        9   0.000005(    13)      6  -0.000008(    27)     12  -0.000020(    40)     0
     15  H       13   0.000004(    14)      9   0.000006(    28)      6  -0.000002(    41)     0
     16  H       13   0.000004(    15)      9   0.000007(    29)     15   0.000006(    42)     0
 -----------------------------------------------------------------------------------------------
 Internal  Forces:  Max     0.000347764 RMS     0.000099521

 GradGradGradGradGradGradGradGradGradGradGradGradGradGradGradGradGradGrad
 Berny optimization.
 Search for a local minimum.
 Step number   3 out of a maximum of   52
 All quantities printed in internal units (Hartrees-Bohrs-Radians)
 Update second derivatives using D2CorN and points    2    1    3
 DE= -2.23D-06 DEPred=-5.38D-06 R= 4.14D-01
 Trust test= 4.14D-01 RLast= 3.61D-03 DXMaxT set to 1.00D-01
 ITU=  0  0  0
     Eigenvalues ---    0.01515   0.02341   0.03579   0.05261   0.06414
     Eigenvalues ---    0.06949   0.08869   0.10008   0.13518   0.14038
     Eigenvalues ---    0.15586   0.15849   0.21873   0.23946   0.24140
     Eigenvalues ---    0.26656   0.28960   0.32274   0.32853   0.33894
     Eigenvalues ---    0.34583   0.34585   0.34592   0.35523   0.35548
     Eigenvalues ---    0.35599   0.35622   0.35652   0.36141   0.37013
     Eigenvalues ---    0.45602   0.46566   0.46622   0.48619   0.51795
     Eigenvalues ---    0.58624   1.11858   1.17281   2.76317   5.24142
     Eigenvalues ---    8.27374  38.48413
 RFO step:  Lambda=-1.62156410D-07 EMin= 1.51470425D-02
 Quartic linear search produced a step of  0.09406.
 Variable       Old X    -DE/DX   Delta X   Delta X   Delta X     New X
                                 (Linear)    (Quad)   (Total)
    R2        2.04582   0.00001  -0.00004   0.00005   0.00001   2.04583
    R3        2.64289   0.00003  -0.00003  -0.00006  -0.00009   2.64280
    R4        2.64003   0.00017   0.00002   0.00022   0.00024   2.64027
    R5        2.04706  -0.00001  -0.00001  -0.00004  -0.00004   2.04702
    R6        2.61262   0.00002   0.00001   0.00005   0.00007   2.61269
    R7        2.64281   0.00002  -0.00004   0.00005   0.00001   2.64283
    R8        2.04582   0.00001  -0.00004   0.00005   0.00001   2.04583
    R9        2.87213  -0.00006   0.00005  -0.00017  -0.00012   2.87202
   R10        2.62519  -0.00022  -0.00006  -0.00022  -0.00029   2.62490
   R11        2.04706  -0.00002  -0.00001  -0.00004  -0.00005   2.04702
   R12        2.06466   0.00001   0.00010  -0.00007   0.00004   2.06469
   R13        2.98454   0.00009   0.00004   0.00024   0.00028   2.98482
   R14        2.06465   0.00001   0.00010  -0.00007   0.00004   2.06469
   R15        2.06465   0.00000   0.00010  -0.00007   0.00003   2.06469
   R16        2.06466   0.00000   0.00010  -0.00007   0.00003   2.06468
    A3        2.08557  -0.00035   0.00006  -0.00026  -0.00020   2.08536
    A4        2.07338  -0.00031  -0.00008   0.00028   0.00020   2.07358
    A5        2.10675  -0.00007  -0.00008  -0.00017  -0.00025   2.10650
    A6        2.02411   0.00016  -0.00005   0.00000  -0.00005   2.02406
    A7        2.12429   0.00022   0.00002  -0.00005  -0.00002   2.12427
    A8        2.07382  -0.00006  -0.00005  -0.00014  -0.00019   2.07363
    A9        2.51502   0.00004  -0.00004  -0.00017  -0.00022   2.51481
   A10        2.13480   0.00012   0.00003   0.00005   0.00008   2.13488
   A11        2.10667  -0.00006  -0.00009  -0.00009  -0.00017   2.10650
   A12        2.01983  -0.00001   0.00005  -0.00010  -0.00005   2.01978
   A13        1.50819  -0.00008  -0.00002  -0.00010  -0.00011   1.50808
   A14        2.01983  -0.00001   0.00005  -0.00008  -0.00004   2.01979
   A15        1.99965   0.00001  -0.00003   0.00004   0.00000   1.99966
   A16        1.99965   0.00001  -0.00004   0.00003  -0.00001   1.99964
    D4        3.14158  -0.00000   0.00000   0.00007   0.00007   3.14165
    D5       -0.00001   0.00000  -0.00000   0.00009   0.00009   0.00008
    D6        3.14158   0.00000  -0.00000   0.00006   0.00006   3.14163
    D7       -3.14157   0.00000   0.00000  -0.00010  -0.00010  -3.14167
    D8       -3.14160  -0.00000   0.00000   0.00002   0.00002  -3.14158
    D9       -3.14153  -0.00000   0.00000  -0.00013  -0.00012  -3.14165
   D10        3.14155   0.00000   0.00000   0.00003   0.00004   3.14158
   D11       -3.14160   0.00000   0.00000   0.00001   0.00001  -3.14159
   D12       -1.12393  -0.00000  -0.00004   0.00005   0.00002  -1.12391
   D13       -2.01769  -0.00001   0.00004  -0.00009  -0.00005  -2.01774
   D14        2.24779  -0.00002   0.00009  -0.00021  -0.00012   2.24767
   D15       -2.03700  -0.00000  -0.00003  -0.00000  -0.00004  -2.03704
   D16       -2.20919   0.00001   0.00006   0.00001   0.00008  -2.20911
         Item               Value     Threshold  Converged?
 Maximum Force            0.000348     0.000450     YES
 RMS     Force            0.000100     0.000300     YES
 Maximum Displacement     0.000287     0.001800     YES
 RMS     Displacement     0.000120     0.001200     YES
 Predicted change in Energy=-8.965797D-08
 Optimization completed.
    -- Stationary point found.
                       ----------------------------
                       !   Optimized Parameters   !
                       ! (Angstroms and Degrees)  !
 ----------------------                            ----------------------
 !      Name          Value   Derivative information (Atomic Units)     !
 ------------------------------------------------------------------------
 !       R2          1.0826   -DE/DX =    0.0                           !
 !       R3          1.3986   -DE/DX =    0.0                           !
 !       R4          1.397    -DE/DX =    0.0002                        !
 !       R5          1.0833   -DE/DX =    0.0                           !
 !       R6          1.3825   -DE/DX =    0.0                           !
 !       R7          1.3985   -DE/DX =    0.0                           !
 !       R8          1.0826   -DE/DX =    0.0                           !
 !       R9          1.5199   -DE/DX =   -0.0001                        !
 !       R10         1.3892   -DE/DX =   -0.0002                        !
 !       R11         1.0833   -DE/DX =    0.0                           !
 !       R12         1.0926   -DE/DX =    0.0                           !
 !       R13         1.5794   -DE/DX =    0.0001                        !
 !       R14         1.0926   -DE/DX =    0.0                           !
 !       R15         1.0926   -DE/DX =    0.0                           !
 !       R16         1.0926   -DE/DX =    0.0                           !
 !       A3        119.4941   -DE/DX =   -0.0003                        !
 !       A4        118.7958   -DE/DX =   -0.0003                        !
 !       A5        120.7079   -DE/DX =   -0.0001                        !
 !       A6        115.9728   -DE/DX =    0.0002                        !
 !       A7        121.7131   -DE/DX =    0.0002                        !
 !       A8        118.821    -DE/DX =   -0.0001                        !
 !       A9        144.1002   -DE/DX =    0.0                           !
 !       A10       122.3153   -DE/DX =    0.0001                        !
 !       A11       120.7035   -DE/DX =   -0.0001                        !
 !       A12       115.7276   -DE/DX =    0.0                           !
 !       A13        86.4131   -DE/DX =   -0.0001                        !
 !       A14       115.7278   -DE/DX =    0.0                           !
 !       A15       114.5718   -DE/DX =    0.0                           !
 !       A16       114.5715   -DE/DX =    0.0                           !
 !       D4        179.9995   -DE/DX =    0.0                           !
 !       D5         -0.0008   -DE/DX =    0.0                           !
 !       D6        179.999    -DE/DX =    0.0                           !
 !       D7       -179.9989   -DE/DX =    0.0                           !
 !       D8       -180.0004   -DE/DX =    0.0                           !
 !       D9       -179.9964   -DE/DX =    0.0                           !
 !       D10       179.9973   -DE/DX =    0.0                           !
 !       D11      -180.0004   -DE/DX =    0.0                           !
 !       D12       -64.3963   -DE/DX =    0.0                           !
 !       D13      -115.6051   -DE/DX =    0.0                           !
 !       D14       128.789    -DE/DX =    0.0                           !
 !       D15      -116.7116   -DE/DX =    0.0                           !
 !       D16      -126.5772   -DE/DX =    0.0                           !
 ------------------------------------------------------------------------
 GradGradGradGradGradGradGradGradGradGradGradGradGradGradGradGradGradGrad

 ---------------------------------------------------------------------------------------------------
                            Z-MATRIX (ANGSTROMS AND DEGREES)
   CD    Cent   Atom    N1       Length/X        N2       Alpha/Y        N3        Beta/Z          J
 ---------------------------------------------------------------------------------------------------
      1      1  H 
      2      2  C        1   1.082600(     1)
      3      3  C        2   1.398558(     2)      1  119.494(    16)
      4      4  C        2   1.397042(     3)      1  118.796(    17)      3  180.000(    30)      0
      5      5  H        3   1.083259(     4)      2  120.708(    18)      1   -0.001(    31)      0
      6      6  C        3   1.382541(     5)      2  115.973(    19)      5  179.999(    32)      0
      7      7  C        4   1.398517(     6)      2  121.713(    20)      1 -179.999(    33)      0
      8      8  H        4   1.082602(     7)      2  118.821(    21)      7 -180.000(    34)      0
      9      9  C        6   1.519868(     8)      3  144.100(    22)      2 -179.996(    35)      0
     10     10  C        6   1.389189(     9)      3  122.315(    23)      9  179.997(    36)      0
     11     11  H        7   1.083259(    10)      4  120.704(    24)      2 -180.000(    37)      0
     12     12  H        9   1.092569(    11)      6  115.728(    25)      3  -64.396(    38)      0
     13     13  C        9   1.579350(    12)      6   86.413(    26)     12 -115.605(    39)      0
     14     14  H        9   1.092567(    13)      6  115.728(    27)     12  128.789(    40)      0
     15     15  H       13   1.092568(    14)      9  114.572(    28)      6 -116.712(    41)      0
     16     16  H       13   1.092569(    15)      9  114.572(    29)     15 -126.577(    42)      0
 ---------------------------------------------------------------------------------------------------
                         Z-Matrix orientation:                         
 ---------------------------------------------------------------------
 Center     Atomic      Atomic             Coordinates (Angstroms)
 Number     Number       Type             X           Y           Z
 ---------------------------------------------------------------------
      1          1           0        0.000000    0.000000    0.000000
      2          6           0        0.000000    0.000000    1.082600
      3          6           0        1.217314    0.000000    1.771157
      4          6           0       -1.224286    0.000010    1.755541
      5          1           0        2.157347   -0.000013    1.232839
      6          6           0        1.132398    0.000038    3.151088
      7          6           0       -1.295463    0.000035    3.152245
      8          1           0       -2.138527    0.000005    1.175722
      9          6           0        1.946303    0.000115    4.434661
     10          6           0       -0.085028    0.000056    3.820207
     11          1           0       -2.253815    0.000050    3.657233
     12          1           0        2.559538   -0.887461    4.607452
     13          6           0        0.562197    0.000114    5.195317
     14          1           0        2.559504    0.887730    4.607370
     15          1           0        0.379125    0.887723    5.805513
     16          1           0        0.379173   -0.887456    5.805586
 ---------------------------------------------------------------------
                    Distance matrix (angstroms):
                    1          2          3          4          5
     1  H    0.000000
     2  C    1.082600   0.000000
     3  C    2.149151   1.398558   0.000000
     4  C    2.140281   1.397042   2.441650   0.000000
     5  H    2.484761   2.162572   1.083259   3.421792   0.000000
     6  C    3.348385   2.358171   1.382541   2.738889   2.174903
     7  C    3.408060   2.441650   2.867307   1.398517   3.950445
     8  H    2.440414   2.140554   3.408256   1.082602   4.296254
     9  C    4.842965   3.876133   2.761463   4.150942   3.208770
    10  C    3.821153   2.738927   2.427900   2.358125   3.423845
    11  H    4.295932   3.421756   3.950445   2.162490   5.033491
    12  H    5.344852   4.445605   3.260939   4.820615   3.512455
    13  C    5.225647   4.150965   3.486266   3.876027   4.271503
    14  H    5.344809   4.445575   3.260927   4.820586   3.512447
    15  H    5.885216   4.820550   4.215049   4.445361   4.985930
    16  H    5.885251   4.820576   4.215054   4.445396   4.985928
                    6          7          8          9         10
     6  C    0.000000
     7  C    2.427861   0.000000
     8  H    3.821129   2.148814   0.000000
     9  C    1.519868   3.486207   5.225564   0.000000
    10  C    1.389189   1.382507   3.348158   2.122230   0.000000
    11  H    3.423831   1.083259   2.484187   4.271462   2.174902
    12  H    2.223821   4.215010   5.885252   1.092569   2.898477
    13  C    2.122263   2.761348   4.842629   1.579350   1.519812
    14  H    2.223822   4.214992   5.885216   1.092567   2.898472
    15  H    2.898513   3.260685   5.344304   2.263434   2.223698
    16  H    2.898509   3.260715   5.344347   2.263431   2.223711
                   11         12         13         14         15
    11  H    0.000000
    12  H    4.985876   0.000000
    13  C    3.208680   2.263348   0.000000
    14  H    4.985857   1.775192   2.263355   0.000000
    15  H    3.512185   3.056277   1.092568   2.487890   0.000000
    16  H    3.512223   2.487874   1.092569   3.056280   1.775179
                   16
    16  H    0.000000
 Symmetry turned off by external request.
 Stoichiometry    C8H8
 Framework group  C1[X(C8H8)]
 Deg. of freedom    42
 Full point group                 C1      NOp   1
 Rotational constants (GHZ):           4.4816447           2.0916378           1.4520995
 1\1\GINC-BHC0005\FOpt\RB3LYP\def2TZVP\C8H8\DHANAWAY\10-Jun-2022\1\\# O
 pt=(Z-matrix, MaxStep=10) B3LYP/Def2TZVP geom=allcheckpoint guess=read
  Field=read NoSymm freq=noraman pop=none\\int_zmat_initalOpt\\0,1\H\C,
 1,R2\C,2,R3,1,A3\C,2,R4,1,A4,3,D4,0\H,3,R5,2,A5,1,D5,0\C,3,R6,2,A6,5,D
 6,0\C,4,R7,2,A7,1,D7,0\H,4,R8,2,A8,7,D8,0\C,6,R9,3,A9,2,D9,0\C,6,R10,3
 ,A10,9,D10,0\H,7,R11,4,A11,2,D11,0\H,9,R12,6,A12,3,D12,0\C,9,R13,6,A13
 ,12,D13,0\H,9,R14,6,A14,12,D14,0\H,13,R15,9,A15,6,D15,0\H,13,R16,9,A16
 ,15,D16,0\\R2=1.08259979\R3=1.39855774\R4=1.39704224\R5=1.08325874\R6=
 1.38254147\R7=1.39851668\R8=1.08260167\R9=1.51986807\R10=1.38918883\R1
 1=1.08325934\R12=1.09256852\R13=1.57935044\R14=1.09256748\R15=1.092568
 15\R16=1.09256861\A3=119.49409495\A4=118.79583052\A5=120.70792073\A6=1
 15.97278539\A7=121.71311678\A8=118.82098423\A9=144.10016163\A10=122.31
 526014\A11=120.70354812\A12=115.72756771\A13=86.41314286\A14=115.72776
 679\A15=114.57179053\A16=114.57150733\D4=179.99952304\D5=-0.00078677\D
 6=179.99903688\D7=-179.99885251\D8=-180.00035698\D9=-179.99642353\D10=
 179.99730032\D11=-180.00044994\D12=-64.39634527\D13=-115.60513168\D14=
 128.7889569\D15=-116.71155316\D16=-126.57718263\\Version=ES64L-G16RevA
 .03\HF=-309.7432712\RMSD=7.195e-09\RMSF=5.516e-05\Dipole=-0.1811129,0.
 00002,-0.3279012\PG=C01 [X(C8H8)]\\@


 The earth never tires,
 The earth is rude, silent, incomprehensible at first,
 Nature is rude and incomprehensible at first,
 Be not discouraged, keep on,
 There are divine things well envelop'd,
 I swear to you there are divine things more beautiful than words can tell.
                                 -- Walt Whitman
 Job cpu time:       0 days  0 hours 37 minutes 52.8 seconds.
 Elapsed time:       0 days  0 hours  3 minutes 20.6 seconds.
 File lengths (MBytes):  RWF=     58 Int=      0 D2E=      0 Chk=     32 Scr=      1
 Normal termination of Gaussian 16 at Fri Jun 10 23:04:57 2022.
 Link1:  Proceeding to internal job step number  2.
 --------------------------------------------------------------------
 #N Geom=AllCheck Guess=TCheck SCRF=Check GenChk RB3LYP/def2TZVP Freq
 --------------------------------------------------------------------
 1/8=10,10=4,29=7,30=1,38=1,40=1/1,3;
 2/12=2,15=1,40=1/2;
 3/5=44,7=101,11=2,14=-4,25=1,30=1,70=2,71=2,74=-5,116=1,140=1/1,2,3;
 4/5=101/1;
 5/5=2,38=6,98=1/2;
 8/6=4,10=90,11=11/1;
 11/6=1,8=1,9=11,15=111,16=1,31=1/1,2,10;
 10/6=1,31=1/2;
 7/8=1,10=1,25=1,30=1/1,2,3,16;
 1/8=10,10=4,30=1/3;
 99//99;
 Structure from the checkpoint file:  "checkpoint.chk"
 ------------------
 int_zmat_initalOpt
 ------------------
 Charge =  0 Multiplicity = 1
 Z-Matrix found in chk file.
 H
 C,1,R2
 C,2,R3,1,A3
 C,2,R4,1,A4,3,D4,0
 H,3,R5,2,A5,1,D5,0
 C,3,R6,2,A6,5,D6,0
 C,4,R7,2,A7,1,D7,0
 H,4,R8,2,A8,7,D8,0
 C,6,R9,3,A9,2,D9,0
 C,6,R10,3,A10,9,D10,0
 H,7,R11,4,A11,2,D11,0
 H,9,R12,6,A12,3,D12,0
 C,9,R13,6,A13,12,D13,0
 H,9,R14,6,A14,12,D14,0
 H,13,R15,9,A15,6,D15,0
 H,13,R16,9,A16,15,D16,0
      Variables:
 R2=1.08259979
 R3=1.39855774
 R4=1.39704224
 R5=1.08325874
 R6=1.38254147
 R7=1.39851668
 R8=1.08260167
 R9=1.51986807
 R10=1.38918883
 R11=1.08325934
 R12=1.09256852
 R13=1.57935044
 R14=1.09256748
 R15=1.09256815
 R16=1.09256861
 A3=119.49409495
 A4=118.79583052
 A5=120.70792073
 A6=115.97278539
 A7=121.71311678
 A8=118.82098423
 A9=144.10016163
 A10=122.31526014
 A11=120.70354812
 A12=115.72756771
 A13=86.41314286
 A14=115.72776679
 A15=114.57179053
 A16=114.57150733
 D4=179.99952304
 D5=-0.00078677
 D6=179.99903688
 D7=-179.99885251
 D8=-180.00035698
 D9=-179.99642353
 D10=179.99730032
 D11=-180.00044994
 D12=-64.39634527
 D13=-115.60513168
 D14=128.7889569
 D15=-116.71155316
 D16=-126.57718263
 Recover connectivity data from disk.

 GradGradGradGradGradGradGradGradGradGradGradGradGradGradGradGradGradGrad
 Berny optimization.
 Initialization pass.
                       ----------------------------
                       !    Initial Parameters    !
                       ! (Angstroms and Degrees)  !
 ----------------------                            ----------------------
 !      Name          Value   Derivative information (Atomic Units)     !
 ------------------------------------------------------------------------
 !       R2          1.0826   calculate D2E/DX2 analytically            !
 !       R3          1.3986   calculate D2E/DX2 analytically            !
 !       R4          1.397    calculate D2E/DX2 analytically            !
 !       R5          1.0833   calculate D2E/DX2 analytically            !
 !       R6          1.3825   calculate D2E/DX2 analytically            !
 !       R7          1.3985   calculate D2E/DX2 analytically            !
 !       R8          1.0826   calculate D2E/DX2 analytically            !
 !       R9          1.5199   calculate D2E/DX2 analytically            !
 !       R10         1.3892   calculate D2E/DX2 analytically            !
 !       R11         1.0833   calculate D2E/DX2 analytically            !
 !       R12         1.0926   calculate D2E/DX2 analytically            !
 !       R13         1.5794   calculate D2E/DX2 analytically            !
 !       R14         1.0926   calculate D2E/DX2 analytically            !
 !       R15         1.0926   calculate D2E/DX2 analytically            !
 !       R16         1.0926   calculate D2E/DX2 analytically            !
 !       A3        119.4941   calculate D2E/DX2 analytically            !
 !       A4        118.7958   calculate D2E/DX2 analytically            !
 !       A5        120.7079   calculate D2E/DX2 analytically            !
 !       A6        115.9728   calculate D2E/DX2 analytically            !
 !       A7        121.7131   calculate D2E/DX2 analytically            !
 !       A8        118.821    calculate D2E/DX2 analytically            !
 !       A9        144.1002   calculate D2E/DX2 analytically            !
 !       A10       122.3153   calculate D2E/DX2 analytically            !
 !       A11       120.7035   calculate D2E/DX2 analytically            !
 !       A12       115.7276   calculate D2E/DX2 analytically            !
 !       A13        86.4131   calculate D2E/DX2 analytically            !
 !       A14       115.7278   calculate D2E/DX2 analytically            !
 !       A15       114.5718   calculate D2E/DX2 analytically            !
 !       A16       114.5715   calculate D2E/DX2 analytically            !
 !       D4        179.9995   calculate D2E/DX2 analytically            !
 !       D5         -0.0008   calculate D2E/DX2 analytically            !
 !       D6        179.999    calculate D2E/DX2 analytically            !
 !       D7       -179.9989   calculate D2E/DX2 analytically            !
 !       D8       -180.0004   calculate D2E/DX2 analytically            !
 !       D9       -179.9964   calculate D2E/DX2 analytically            !
 !       D10       179.9973   calculate D2E/DX2 analytically            !
 !       D11      -180.0004   calculate D2E/DX2 analytically            !
 !       D12       -64.3963   calculate D2E/DX2 analytically            !
 !       D13      -115.6051   calculate D2E/DX2 analytically            !
 !       D14       128.789    calculate D2E/DX2 analytically            !
 !       D15      -116.7116   calculate D2E/DX2 analytically            !
 !       D16      -126.5772   calculate D2E/DX2 analytically            !
 ------------------------------------------------------------------------
 Trust Radius=1.00D-01 FncErr=1.00D-07 GrdErr=1.00D-07 EigMax=2.50D+02 EigMin=1.00D-04
 Number of steps in this run=      2 maximum allowed number of steps=      2.
 GradGradGradGradGradGradGradGradGradGradGradGradGradGradGradGradGradGrad

                          Input orientation:                          
 ---------------------------------------------------------------------
 Center     Atomic      Atomic             Coordinates (Angstroms)
 Number     Number       Type             X           Y           Z
 ---------------------------------------------------------------------
      1          1           0        0.000000    0.000000    0.000000
      2          6           0        0.000000    0.000000    1.082600
      3          6           0        1.217314    0.000000    1.771157
      4          6           0       -1.224286    0.000010    1.755541
      5          1           0        2.157347   -0.000013    1.232839
      6          6           0        1.132398    0.000038    3.151088
      7          6           0       -1.295463    0.000035    3.152245
      8          1           0       -2.138527    0.000005    1.175722
      9          6           0        1.946303    0.000115    4.434661
     10          6           0       -0.085028    0.000056    3.820207
     11          1           0       -2.253815    0.000050    3.657233
     12          1           0        2.559538   -0.887461    4.607452
     13          6           0        0.562197    0.000114    5.195317
     14          1           0        2.559504    0.887730    4.607370
     15          1           0        0.379125    0.887723    5.805513
     16          1           0        0.379173   -0.887456    5.805586
 ---------------------------------------------------------------------
                    Distance matrix (angstroms):
                    1          2          3          4          5
     1  H    0.000000
     2  C    1.082600   0.000000
     3  C    2.149151   1.398558   0.000000
     4  C    2.140281   1.397042   2.441650   0.000000
     5  H    2.484761   2.162572   1.083259   3.421792   0.000000
     6  C    3.348385   2.358171   1.382541   2.738889   2.174903
     7  C    3.408060   2.441650   2.867307   1.398517   3.950445
     8  H    2.440414   2.140554   3.408256   1.082602   4.296254
     9  C    4.842965   3.876133   2.761463   4.150942   3.208770
    10  C    3.821153   2.738927   2.427900   2.358125   3.423845
    11  H    4.295932   3.421756   3.950445   2.162490   5.033491
    12  H    5.344852   4.445605   3.260939   4.820615   3.512455
    13  C    5.225647   4.150965   3.486266   3.876027   4.271503
    14  H    5.344809   4.445575   3.260927   4.820586   3.512447
    15  H    5.885216   4.820550   4.215049   4.445361   4.985930
    16  H    5.885251   4.820576   4.215054   4.445396   4.985928
                    6          7          8          9         10
     6  C    0.000000
     7  C    2.427861   0.000000
     8  H    3.821129   2.148814   0.000000
     9  C    1.519868   3.486207   5.225564   0.000000
    10  C    1.389189   1.382507   3.348158   2.122230   0.000000
    11  H    3.423831   1.083259   2.484187   4.271462   2.174902
    12  H    2.223821   4.215010   5.885252   1.092569   2.898477
    13  C    2.122263   2.761348   4.842629   1.579350   1.519812
    14  H    2.223822   4.214992   5.885216   1.092567   2.898472
    15  H    2.898513   3.260685   5.344304   2.263434   2.223698
    16  H    2.898509   3.260715   5.344347   2.263431   2.223711
                   11         12         13         14         15
    11  H    0.000000
    12  H    4.985876   0.000000
    13  C    3.208680   2.263348   0.000000
    14  H    4.985857   1.775192   2.263355   0.000000
    15  H    3.512185   3.056277   1.092568   2.487890   0.000000
    16  H    3.512223   2.487874   1.092569   3.056280   1.775179
                   16
    16  H    0.000000
 Symmetry turned off by external request.
 Stoichiometry    C8H8
 Framework group  C1[X(C8H8)]
 Deg. of freedom    42
 Full point group                 C1      NOp   1
 Rotational constants (GHZ):           4.4816447           2.0916378           1.4520995
 Standard basis: def2TZVP (5D, 7F)
 The following finite field(s) will be applied:
 An electric field of              0.0024 -0.0000  0.0044
   296 basis functions,   472 primitive gaussians,   336 cartesian basis functions
    28 alpha electrons       28 beta electrons
       nuclear repulsion energy       333.0901720836 Hartrees.
 NAtoms=   16 NActive=   16 NUniq=   16 SFac= 1.00D+00 NAtFMM=   60 NAOKFM=F Big=F
 Integral buffers will be    131072 words long.
 Raffenetti 2 integral format.
 Two-electron integral symmetry is turned off.
 One-electron integrals computed using PRISM.
   1 Symmetry operations used in ECPInt.
 ECPInt:  NShTT=    7260 NPrTT=   21936 LenC2=    7147 LenP2D=   17613.
 LDataN:  DoStor=T MaxTD1= 6 Len=  172
 NBasis=   296 RedAO= T EigKep=  8.46D-06  NBF=   296
 NBsUse=   296 1.00D-06 EigRej= -1.00D+00 NBFU=   296
 The nuclear repulsion energy is now       334.6004446684 hartrees.
[...]

 ----------------------------------------------------------------------

 Dipole orientation:
     1          0.00000000         -0.00000000          0.00000000
     6         -0.98913896         -0.00010921         -1.79080199
     6          0.39538824         -0.00021033         -4.04201451
     6         -3.62916058         -0.00016451         -1.78536594
     1          2.44220684         -0.00015630         -4.01042592
     6         -1.00587786         -0.00041906         -6.24706808
     6         -5.02302521         -0.00034970         -4.03071771
     1         -4.61170592         -0.00007190          0.00906625
     6         -0.83230345         -0.00071619         -9.11395278
     6         -3.63105853         -0.00048915         -6.24157645
     1         -7.06969231         -0.00040390         -3.99043535
     1          0.02419195          1.67652709         -9.96016315
     6         -3.81683646         -0.00075380         -9.10759071
     1          0.02425599         -1.67809884         -9.95981722
     1         -4.67716384         -1.67814947         -9.94959966
     1         -4.67719793          1.67645268         -9.94994377

 Electric dipole moment (dipole orientation):
 (Debye = 10**-18 statcoulomb cm , SI units = C m)
                  (au)            (Debye)         (10**-30 SI)
   Tot        0.374594D+00      0.952122D+00      0.317594D+01
   x          0.000000D+00      0.000000D+00      0.000000D+00
   y          0.000000D+00      0.000000D+00      0.000000D+00
   z          0.374594D+00      0.952122D+00      0.317594D+01

 Dipole polarizability, Alpha (dipole orientation).
 (esu units = cm**3 , SI units = C**2 m**2 J**-1)
 Alpha(0;0):
               (au)            (10**-24 esu)      (10**-40 SI)
   iso        0.880335D+02      0.130452D+02      0.145148D+02
   aniso      0.513060D+02      0.760277D+01      0.845922D+01
   xx         0.955619D+02      0.141608D+02      0.157560D+02
   yx         0.984138D-03      0.145834D-03      0.162262D-03
   yy         0.553743D+02      0.820562D+01      0.912999D+01
   zx         0.370810D-01      0.549483D-02      0.611383D-02
   zy         0.441703D-02      0.654536D-03      0.728269D-03
   zz         0.113165D+03      0.167692D+02      0.186583D+02

 ----------------------------------------------------------------------
 1\1\GINC-BHC0005\Freq\RB3LYP\def2TZVP\C8H8\DHANAWAY\10-Jun-2022\1\\#N 
 Geom=AllCheck Guess=TCheck SCRF=Check GenChk RB3LYP/def2TZVP Freq\\int
 _zmat_initalOpt\\0,1\H\C,1,R2\C,2,R3,1,A3\C,2,R4,1,A4,3,D4,0\H,3,R5,2,
 A5,1,D5,0\C,3,R6,2,A6,5,D6,0\C,4,R7,2,A7,1,D7,0\H,4,R8,2,A8,7,D8,0\C,6
 ,R9,3,A9,2,D9,0\C,6,R10,3,A10,9,D10,0\H,7,R11,4,A11,2,D11,0\H,9,R12,6,
 A12,3,D12,0\C,9,R13,6,A13,12,D13,0\H,9,R14,6,A14,12,D14,0\H,13,R15,9,A
 15,6,D15,0\H,13,R16,9,A16,15,D16,0\\R2=1.08259979\R3=1.39855774\R4=1.3
 9704224\R5=1.08325874\R6=1.38254147\R7=1.39851668\R8=1.08260167\R9=1.5
 1986807\R10=1.38918883\R11=1.08325934\R12=1.09256852\R13=1.57935044\R1
 4=1.09256748\R15=1.09256815\R16=1.09256861\A3=119.49409495\A4=118.7958
 3052\A5=120.70792073\A6=115.97278539\A7=121.71311678\A8=118.82098423\A
 9=144.10016163\A10=122.31526014\A11=120.70354812\A12=115.72756771\A13=
 86.41314286\A14=115.72776679\A15=114.57179053\A16=114.57150733\D4=179.
 99952304\D5=-0.00078677\D6=179.99903688\D7=-179.99885251\D8=-180.00035
 698\D9=-179.99642353\D10=179.99730032\D11=-180.00044994\D12=-64.396345
 27\D13=-115.60513168\D14=128.7889569\D15=-116.71155316\D16=-126.577182
 63\\Version=ES64L-G16RevA.03\HF=-309.7432712\RMSD=2.983e-09\RMSF=5.518
 e-05\ZeroPoint=0.1340286\Thermal=0.1400133\Dipole=-0.1811135,0.00002,-
 0.3278997\DipoleDeriv=0.0669244,-0.0000001,-0.0066771,0.0000028,0.1371
 969,0.0000003,0.000332,-0.0000024,-0.0650776,-0.0893828,-0.0000032,-0.
 0915955,-0.0000025,-0.1367177,-0.0000065,0.0230016,-0.000004,0.0544405
 ,0.0789296,-0.0000061,-0.115558,-0.0000077,-0.09647,-0.000002,-0.07707
 76,0.0000028,0.0393163,0.044233,0.0000003,0.1078346,0.0000007,-0.13666
 82,0.0000018,-0.006794,0.,-0.0791421,-0.0637087,0.0000028,0.0821356,-0
 .0000004,0.1258908,0.000001,0.062817,-0.0000024,0.0280029,0.0321521,0.
 0000181,0.2580791,0.0000203,-0.1023008,0.0000182,0.0061332,0.0000041,-
 0.0449744,0.1378501,-0.0000017,-0.039726,-0.0000073,-0.0963924,0.00000
 31,-0.0781905,-0.0000004,-0.0197089,-0.0243067,-0.0000007,-0.0576157,-
 0.0000004,0.1372043,0.0000005,-0.0644812,-0.0000018,0.0261899,0.123618
 8,-0.0000058,0.0209984,-0.0000107,0.2299154,-0.0000166,0.0860256,-0.00
 00086,0.0367621,-0.1423414,-0.0000059,-0.1046336,-0.0000011,-0.1023004
 ,0.0000007,0.1472355,0.0000118,0.1296661,-0.0638281,0.0000009,0.062637
 9,0.0000049,0.1258961,-0.0000032,0.0819057,-0.0000021,0.0282729,-0.080
 4727,0.078711,-0.0602941,0.1511876,-0.0787946,0.0669845,-0.0717891,0.0
 22861,-0.0181097,0.0133302,-0.0000044,0.0157998,-0.0000054,0.2298517,-
 0.0000027,-0.049129,-0.0000055,0.1468791,-0.0804576,-0.078712,-0.06028
 04,-0.1511866,-0.0788041,-0.0669776,-0.0717733,-0.022854,-0.0181028,0.
 0237277,0.0229377,-0.0055482,0.0244987,-0.0787614,-0.1634886,0.0058931
 ,-0.0786553,-0.122197,0.0237317,-0.0229308,-0.0055568,-0.024493,-0.078
 7456,0.1634871,0.005891,0.0786566,-0.1222174\Polar=99.6453687,0.000268
 2,55.3742786,7.4301345,0.001373,109.0809953\PG=C01 [X(C8H8)]\NImag=0\\
 0.05978180,-0.00000022,0.02564553,-0.00004933,0.00000054,0.35762355,-0
 .05920878,0.00000035,0.00014121,0.63605645,0.00000024,-0.03612038,-0.0
 0000036,-0.00000247,0.13544562,-0.00040357,0.00000004,-0.33748744,0.00
 190169,0.00000358,0.72883381,0.00375326,-0.00000021,0.00188337,-0.2710
 6483,0.00000046,-0.11160903,0.69974345,-0.00000020,0.00277340,-0.00000
 011,0.00000100,-0.06050698,-0.00000046,-0.00000376,0.13034271,-0.02842
 562,-0.00000017,-0.01114549,-0.04603362,0.00000019,-0.17071107,-0.0649
 1609,0.00001229,0.67431438,0.00351667,-0.00000002,-0.00174712,-0.26986
 346,0.00000177,0.11077620,-0.05592423,-0.00000063,-0.02754824,0.700570
 71,0.00000022,0.00280930,-0.00000011,0.00000028,-0.06428755,-0.0000014
 6,0.00000083,0.00640974,0.00000113,-0.00000018,0.13547991,0.02923871,-
 0.00000024,-0.01142275,0.04323399,-0.00000118,-0.17208723,0.02004326,0
 .00000098,0.06325993,0.04274667,0.00000764,0.66444958,0.00109040,-0.00
 000003,-0.00021080,-0.01864240,0.00000022,0.01604363,-0.26492264,0.000
 00286,0.11714200,-0.00256831,0.00000003,-0.00414624,0.28073469,0.,-0.0
 0377900,-0.00000002,-0.00000017,0.00239492,0.00000011,0.00000270,-0.03
 622223,-0.00000210,0.00000001,0.00763642,0.,-0.00000314,0.02451234,0.0
 0059081,0.00000008,0.00081118,-0.01440862,0.00000012,0.01208403,0.1194
 8405,-0.00000201,-0.12851890,-0.00320208,-0.00000012,-0.00089253,-0.12
 973038,0.00000230,0.13015593,-0.00481756,0.00000006,-0.00322212,0.0392
 4160,-0.00000035,-0.03199372,-0.13382928,-0.00000047,-0.00486320,-0.02
 258193,0.00000068,0.03265651,0.00268557,0.00000070,0.03076510,0.569749
 27,-0.00000007,0.00704700,0.,-0.00000092,0.00737555,-0.00000120,-0.000
 00043,-0.06056843,-0.00000919,0.00000083,-0.00712861,-0.00000087,0.000
 00003,0.00294474,-0.00000007,0.00000167,0.15793999,-0.00316174,-0.0000
 0010,0.00000147,-0.08014810,-0.00000124,-0.03699667,0.04446581,-0.0000
 0786,-0.33924151,0.03241712,-0.00000084,-0.05089627,0.00035159,-0.0000
 0008,-0.00776342,-0.04363862,0.00002057,0.76179042,-0.00439983,-0.0000
 0001,0.00267216,0.03241531,0.00000030,0.02853540,-0.01360375,-0.000000
 55,-0.02969188,-0.12820665,0.00000128,0.04467166,0.00010284,-0.0000000
 9,-0.00067006,-0.05692771,0.00000012,0.02124161,0.74043926,0.00000008,
 0.00707392,0.00000005,0.00000131,0.00640310,-0.00000054,-0.00000045,-0
 .00509107,-0.00000104,-0.00000006,-0.06054236,-0.00000471,-0.00000002,
 -0.00066542,0.,-0.00000081,0.00969078,0.00000131,-0.00000053,0.1303420
 2,0.00233395,-0.00000023,0.00070145,0.07612785,-0.00000067,-0.02508572
 ,-0.02687231,-0.00000079,-0.04952561,-0.02092783,-0.00000389,-0.313665
 61,-0.00046594,0.00000004,-0.00099222,-0.03064948,0.00000134,0.0601500
 4,-0.03906294,0.00001130,0.63381300,0.00099559,0.,0.00016254,-0.019545
 52,-0.00000013,-0.01639267,-0.00302610,0.00000007,0.00354226,-0.257547
 07,-0.00000119,-0.12566517,-0.00097494,0.,-0.00076182,0.00011625,0.,0.
 00113916,0.00513502,0.00000003,0.00276318,0.27220704,-0.00000004,-0.00
 404211,-0.00000002,0.00000073,0.00280037,0.00000006,-0.00000011,0.0070
 7318,-0.00000034,-0.00000132,-0.03612731,-0.00000062,0.00000001,0.0001
 2402,0.,-0.00000011,-0.00125897,0.00000019,-0.00000044,0.00278521,-0.0
 0000044,0.00000119,0.02565017,-0.00031034,0.00000006,0.00090343,0.0145
 8189,0.00000005,0.01166585,0.00320505,-0.00000011,-0.00067045,-0.12618
 368,-0.00000094,-0.13916515,0.00078265,-0.00000001,0.00036498,0.000663
 41,0.,-0.00069974,-0.02756062,-0.00000012,-0.01255378,0.13470621,0.000
 00125,0.14521403,0.00051316,-0.00000006,0.00031208,0.00356363,-0.00000
 008,0.00290737,0.00642028,0.00000009,-0.00069836,-0.00242640,0.0000000
 9,0.00170113,-0.00007400,0.00000005,-0.00073216,-0.09096849,-0.0000022
 4,-0.04273157,-0.00449762,-0.00000014,-0.00112689,0.00007427,0.0000000
 1,-0.00012004,0.53339546,-0.00000003,0.00085398,0.00000004,0.00000008,
 0.00735078,-0.00000011,0.00000007,-0.00183062,0.00000040,0.00000004,-0
 .00119409,-0.00000002,-0.00000002,-0.00365398,0.00000008,-0.00000456,-
 0.07006016,-0.00000487,0.00000002,0.00859012,-0.00000032,0.,-0.0011849
 7,0.,0.00000460,0.57199639,-0.00057756,0.,0.00013044,0.00441508,-0.000
 00044,-0.00203305,-0.01137331,-0.00000065,-0.00773368,-0.00074059,0.00
 000012,0.00065243,0.00056904,0.00000025,0.00047102,-0.07932349,-0.0000
 0418,-0.14484133,-0.00011421,-0.00000046,-0.00058374,-0.00002054,0.000
 00006,-0.00009618,0.07904309,-0.00000901,0.34343685,-0.00128115,0.0000
 0012,0.00025366,-0.07219869,0.00000004,0.00092903,0.03076250,0.0000016
 2,0.07692177,0.03563417,-0.00000193,-0.08244609,0.00222582,-0.00000012
 ,-0.00132640,-0.26930855,0.00000144,0.05473867,-0.29820378,-0.00000220
 ,-0.05987959,0.00150476,0.00000011,0.00085144,-0.08355649,-0.00000248,
 -0.01979452,0.74618414,0.,-0.00125941,0.,0.00000001,-0.00711285,0.0000
 0020,0.00000075,0.00967606,-0.00000113,-0.00000103,0.00737667,-0.00000
 074,0.00000001,0.00909900,-0.00000035,0.00000419,-0.07797002,-0.000001
 57,-0.00000359,-0.06055176,-0.00000419,0.00000004,0.00704729,-0.000000
 25,-0.00000279,0.01572334,-0.00000184,0.00000505,0.15790755,-0.0002235
 1,-0.00000005,0.00069748,0.00117065,0.00000011,-0.00128307,0.02502941,
 -0.00000084,-0.02754984,-0.03428955,-0.00000085,-0.03338607,-0.0011666
 6,-0.00000050,-0.00393802,0.14319875,-0.00000104,-0.14361786,-0.109211
 15,-0.00000358,-0.17494235,0.00079005,-0.00000019,-0.00632518,-0.02690
 061,-0.00000144,-0.01228103,0.06838183,0.00001509,0.58550372,-0.000029
 67,0.,-0.00016139,0.00195079,0.00000003,-0.00033236,-0.00016306,-0.000
 00002,-0.00083875,0.00251566,-0.00000002,-0.00097727,-0.00005161,0.,0.
 00018688,-0.00103902,-0.00000012,-0.00339860,-0.27479461,0.00000328,0.
 11321335,0.00072103,-0.00000002,0.00035449,-0.00077568,0.,-0.00007860,
 -0.01883781,0.00000055,0.01709720,0.29083368,0.00000005,0.00012325,0.,
 0.00000013,0.00763524,-0.00000021,-0.00000004,-0.00066491,-0.00000009,
 0.00000053,0.00240010,0.00000002,-0.00000001,-0.00177927,0.00000004,-0
 .00000020,0.00909909,-0.00000027,0.00000341,-0.03622979,-0.00000257,-0
 .00000003,-0.00377921,0.00000007,-0.00000001,-0.00055976,0.00000005,-0
 .00000036,0.00294638,0.00000023,-0.00000359,0.02451441,0.00138293,0.,-
 0.00058150,-0.00127674,-0.00000020,-0.00541090,-0.00063555,0.,-0.00072
 624,0.02947951,-0.00000037,-0.00907916,0.00008035,0.00000004,0.0001180
 4,-0.00323975,-0.00000030,-0.00067315,0.11086553,-0.00000229,-0.118640
 24,-0.00044378,0.00000009,0.00118230,-0.00050732,0.00000002,0.00024437
 ,-0.01331367,0.00000036,0.01376748,-0.12331067,0.00000256,0.12004864,-
 0.00002784,-0.00003378,-0.00004244,-0.00074726,-0.00063298,-0.00020484
 ,0.00057426,0.00006280,0.00120680,0.00015180,0.00007891,-0.00024733,0.
 00011764,0.00055911,-0.00021709,-0.00845909,0.00869360,-0.00328542,-0.
 00041070,-0.00192917,-0.00034048,-0.00000207,0.00029518,-0.00007769,-0
 .12197972,0.11666399,-0.02009730,-0.00311600,-0.00009283,-0.00137964,-
 0.00017309,0.00007129,0.00000024,0.13386691,0.00003954,0.00001242,0.00
 002292,0.00061077,-0.00005409,0.00014682,0.00017015,0.00031232,-0.0005
 5695,-0.00026235,-0.00003840,0.00036773,0.00005037,-0.00006624,0.00006
 247,-0.00076494,0.00325685,0.00123461,-0.00031340,-0.00030221,-0.00040
 108,0.00000293,0.00001753,0.00000752,0.11567259,-0.22186305,0.03115544
 ,-0.00028845,0.00032755,0.00092121,0.00002856,0.00004021,0.00001275,-0
 .12704400,0.23739572,-0.00008245,-0.00009615,-0.00007960,-0.00074603,-
 0.00134844,-0.00008049,-0.00036110,-0.00010404,0.00140598,0.00010428,0
 .00022887,-0.00053325,0.00022195,0.00067181,-0.00030400,-0.01396596,0.
 02381630,-0.00232666,-0.00035803,-0.00050186,0.00102247,0.00001278,0.0
 0000217,0.00004760,-0.02132502,0.03394627,-0.05170366,-0.00107347,-0.0
 0084074,-0.00294668,-0.00024812,0.00003555,-0.00012766,0.02554020,-0.0
 3602722,0.05173939,0.00001635,0.00000005,-0.00005727,-0.00066724,0.000
 00004,0.00037677,-0.00114699,-0.00000026,0.00201463,-0.00373904,-0.000
 00010,-0.00022191,0.00021663,0.00000005,0.00055120,-0.01163304,0.00000
 045,0.02588012,0.00179597,-0.00000038,-0.01431602,0.00036032,-0.000000
 01,-0.00067543,-0.11174562,0.00000130,0.04409722,-0.07414558,-0.000002
 52,-0.06865119,0.00038836,0.00000009,0.00086070,-0.00996013,-0.0027193
 1,0.00761980,0.32658529,-0.00000002,-0.00118553,-0.00000001,-0.0000001
 2,-0.00119307,0.00000001,0.00000003,0.00858937,-0.00000018,0.,0.007352
 72,-0.00000009,0.00000002,-0.00055950,0.,0.00000085,0.01572302,-0.0000
 0434,0.,-0.00182566,0.00000031,0.00000002,0.00085237,0.,0.00000036,-0.
 08531454,0.00000177,-0.00000169,-0.07005450,-0.00000503,-0.00000001,-0
 .00365363,0.00000011,0.01812475,0.00151092,-0.01615802,-0.00000957,0.5
 7198597,-0.00015662,0.00000008,-0.00003835,0.00281928,0.00000006,-0.00
 110777,0.00100037,-0.00000051,-0.00393362,-0.00172944,-0.00000026,0.00
 527123,0.00012266,0.,-0.00074772,0.01876839,-0.00000370,-0.08420112,-0
 .00363863,-0.00000010,-0.00311301,0.00021516,-0.00000005,0.00028291,0.
 03090793,0.00000125,-0.06410213,-0.03206023,-0.00000370,-0.16174313,-0
 .00043826,0.00000018,0.00000868,-0.00413355,-0.00095009,0.00203671,-0.
 05237406,-0.00000224,0.55036102,-0.00002783,0.00003378,-0.00004243,-0.
 00074718,0.00063295,-0.00020484,0.00057431,-0.00006269,0.00120677,0.00
 015176,-0.00007891,-0.00024725,0.00011763,-0.00055911,-0.00021706,-0.0
 0845864,-0.00869430,-0.00328447,-0.00041072,0.00192914,-0.00034071,-0.
 00000207,-0.00029518,-0.00007769,-0.12197174,-0.11666372,-0.02008578,-
 0.00311579,0.00009258,-0.00137929,-0.00017308,-0.00007128,0.00000024,0
 .01101681,0.01448082,0.00296409,-0.00995922,-0.01812541,-0.00413221,0.
 13385726,-0.00003955,0.00001243,-0.00002292,-0.00061088,-0.00005396,-0
 .00014681,-0.00017012,0.00031237,0.00055708,0.00026236,-0.00003844,-0.
 00036778,-0.00005034,-0.00006632,-0.00006250,0.00076340,0.00325419,-0.
 00123507,0.00031333,-0.00030209,0.00040114,-0.00000293,0.00001752,-0.0
 0000752,-0.11567238,-0.22187978,-0.03114122,0.00028829,0.00032754,-0.0
 0092145,-0.00002858,0.00004021,-0.00001277,-0.01447912,-0.02187262,-0.
 00384540,0.00271956,0.00151195,0.00095008,0.12704365,0.23741397,-0.000
 08246,0.00009615,-0.00007960,-0.00074613,0.00134845,-0.00008051,-0.000
 36094,0.00010404,0.00140622,0.00010433,-0.00022891,-0.00053332,0.00022
 194,-0.00067182,-0.00030396,-0.01396504,-0.02381730,-0.00232480,-0.000
 35798,0.00050199,0.00102246,0.00001278,-0.00000218,0.00004761,-0.02131
 335,-0.03393194,-0.05169729,-0.00107351,0.00084047,-0.00294673,-0.0002
 4811,-0.00003556,-0.00012764,0.00296528,0.00384767,0.00142113,0.007618
 71,0.01615844,0.00203524,0.02552735,0.03601143,0.05173249,0.00006272,0
 .00015636,0.00005394,-0.00027124,-0.00015102,-0.00016452,0.00092646,-0
 .00060986,0.00049082,0.00015819,0.00079928,-0.00017036,-0.00002866,0.0
 0000826,-0.00015618,-0.00188462,0.00065915,-0.00029287,0.00078348,0.00
 012295,-0.00022798,-0.00000826,0.00006285,-0.00006983,-0.00298588,0.02
 335435,0.01203967,0.00372660,-0.01544278,-0.00623269,-0.00018594,-0.00
 026828,0.00002900,-0.00223554,-0.00001487,0.00294767,-0.05318508,0.033
 92042,0.02241638,0.00138404,-0.00035170,-0.00125056,0.05224426,-0.0000
 0477,0.00001760,-0.00000645,-0.00045068,-0.00003836,0.00002455,0.00017
 063,-0.00030237,0.00047932,0.00020324,-0.00005399,-0.00059402,0.000004
 51,0.00004026,-0.00003096,-0.00093274,0.00032753,-0.00024988,0.0005624
 8,0.00031262,0.00015458,0.00000184,0.00001246,-0.00004567,-0.00065682,
 0.00151366,0.00280610,-0.00144895,0.00325734,-0.00001859,-0.00002609,-
 0.00006620,-0.00007607,-0.00014351,0.00042848,-0.00007348,0.03574254,-
 0.22187778,-0.11433878,0.00019431,0.00089452,-0.00029447,-0.03773096,0
 .23740762,-0.00003660,-0.00025041,-0.00001713,-0.00051621,-0.00018937,
 -0.00010989,0.00050851,0.00189781,-0.00031508,0.00037021,0.00125789,-0
 .00098592,0.00009210,-0.00007922,-0.00027220,-0.00059527,0.00052701,-0
 .00417988,0.00133955,0.00000350,0.00119650,-0.00003006,0.00007983,-0.0
 0009911,0.00029194,-0.00663398,-0.00493136,0.00444589,-0.02011415,-0.0
 1450398,-0.00040991,-0.00083250,-0.00000148,-0.00010547,0.00016027,-0.
 00042942,0.02364010,-0.11666611,-0.12049505,0.00041873,0.00000407,0.00
 085814,-0.02633118,0.12654836,0.13334411,0.00006272,-0.00015638,0.0000
 5393,-0.00027117,0.00015099,-0.00016454,0.00092635,0.00061000,0.000490
 70,0.00015814,-0.00079927,-0.00017031,-0.00002866,-0.00000827,-0.00015
 618,-0.00188476,-0.00065922,-0.00029267,0.00078349,-0.00012304,-0.0002
 2813,-0.00000826,-0.00006285,-0.00006983,-0.00298517,-0.02335363,0.012
 04179,0.00372585,0.01544236,-0.00623358,-0.00018594,0.00026830,0.00002
 899,0.00138402,0.00035158,-0.00125059,-0.05318097,-0.03390964,0.022412
 82,-0.00223553,0.00001502,0.00294770,0.00149945,0.00451497,-0.00308233
 ,0.05224044,0.00000477,0.00001762,0.00000645,0.00045057,-0.00003832,-0
 .00002456,-0.00017049,-0.00030253,-0.00047922,-0.00020321,-0.00005412,
 0.00059389,-0.00000450,0.00004027,0.00003092,0.00093262,0.00032746,0.0
 0024943,-0.00056235,0.00031260,-0.00015451,-0.00000184,0.00001245,0.00
 004566,0.00065673,0.00151267,-0.00280599,0.00144953,0.00325983,0.00001
 692,0.00002604,-0.00006612,0.00007607,-0.00019423,0.00089459,0.0002943
 8,-0.03573193,-0.22186210,0.11434778,0.00014336,0.00042849,0.00007354,
 -0.00451414,-0.02187338,0.01428702,0.03771907,0.23739060,-0.00003659,0
 .00025039,-0.00001713,-0.00051619,0.00018935,-0.00010989,0.00050851,-0
 .00189775,-0.00031504,0.00037021,-0.00125791,-0.00098591,0.00009210,0.
 00007920,-0.00027220,-0.00059552,-0.00052738,-0.00417953,0.00133961,-0
 .00000344,0.00119637,-0.00003006,-0.00007983,-0.00009911,0.00029179,0.
 00663363,-0.00493166,0.00444519,0.02011254,-0.01450474,-0.00040989,0.0
 0083252,-0.00000153,0.00041873,-0.00000406,0.00085812,0.02363662,0.116
 67540,-0.12051387,-0.00010545,-0.00016036,-0.00042943,-0.00308132,-0.0
 1428454,0.01094175,-0.02632775,-0.12655777,0.13336380\\-0.00003067,0.0
 0000091,0.00000608,-0.00007984,0.00000073,0.00003840,-0.00004829,-0.00
 000142,0.00002426,0.00010407,-0.00000029,-0.00008358,0.00003069,-0.000
 00026,0.00002397,0.00015816,-0.00000163,-0.00013936,0.00006123,-0.0000
 0044,-0.00004520,-0.00000981,-0.00000004,0.00002612,-0.00004373,0.0000
 0314,0.00005697,-0.00021274,0.00000167,0.00006444,0.00000004,0.0000001
 7,0.00003301,-0.00001082,0.00000062,0.00000776,0.00008882,-0.00000184,
 -0.00000844,-0.00001017,-0.00000126,0.00000787,0.00000107,-0.00000029,
 -0.00000674,0.00000197,0.00000026,-0.00000558\\\@


 KNOWLEDGE IS EXPERIMENT'S DAUGHTER.
 -- LEONARDO DA VINCI, IN "PENSIERI" CA. 1492
 Job cpu time:       0 days  1 hours 23 minutes 35.6 seconds.
 Elapsed time:       0 days  0 hours  7 minutes 35.4 seconds.
 File lengths (MBytes):  RWF=    122 Int=      0 D2E=      0 Chk=     32 Scr=      1
 Normal termination of Gaussian 16 at Fri Jun 10 23:12:33 2022.
