 Entering Gaussian System, Link 0=g16
 Input=int_zmat_field_N50.gjf
 Output=int_zmat_field_N50.out
 Initial command:
 /software/gaussian/g16-a03/l1.exe "/local_scratch/11171218/Gau-16485.inp" -scrdir="/local_scratch/11171218/"
 Entering Link 1 = /software/gaussian/g16-a03/l1.exe PID=     16486.
  
 Copyright (c) 1988,1990,1992,1993,1995,1998,2003,2009,2016,
            Gaussian, Inc.  All Rights Reserved.
  
 This is part of the Gaussian(R) 16 program.  It is based on
 the Gaussian(R) 09 system (copyright 2009, Gaussian, Inc.),
 the Gaussian(R) 03 system (copyright 2003, Gaussian, Inc.),
 the Gaussian(R) 98 system (copyright 1998, Gaussian, Inc.),
 the Gaussian(R) 94 system (copyright 1995, Gaussian, Inc.),
 the Gaussian 92(TM) system (copyright 1992, Gaussian, Inc.),
 the Gaussian 90(TM) system (copyright 1990, Gaussian, Inc.),
 the Gaussian 88(TM) system (copyright 1988, Gaussian, Inc.),
 the Gaussian 86(TM) system (copyright 1986, Carnegie Mellon
 University), and the Gaussian 82(TM) system (copyright 1983,
 Carnegie Mellon University). Gaussian is a federally registered
 trademark of Gaussian, Inc.
  
 This software contains proprietary and confidential information,
 including trade secrets, belonging to Gaussian, Inc.
  
 This software is provided under written license and may be
 used, copied, transmitted, or stored only in accord with that
 written license.
  
 The following legend is applicable only to US Government
 contracts under FAR:
  
                    RESTRICTED RIGHTS LEGEND
  
 Use, reproduction and disclosure by the US Government is
 subject to restrictions as set forth in subparagraphs (a)
 and (c) of the Commercial Computer Software - Restricted
 Rights clause in FAR 52.227-19.
  
 Gaussian, Inc.
 340 Quinnipiac St., Bldg. 40, Wallingford CT 06492
  
  
 ---------------------------------------------------------------
 Warning -- This program may not be used in any manner that
 competes with the business of Gaussian, Inc. or will provide
 assistance to any competitor of Gaussian, Inc.  The licensee
 of this program is prohibited from giving any competitor of
 Gaussian, Inc. access to this program.  By using this program,
 the user acknowledges that Gaussian, Inc. is engaged in the
 business of creating and licensing software in the field of
 computational chemistry and represents and warrants to the
 licensee that it is not a competitor of Gaussian, Inc. and that
 it will not use this program in any manner prohibited above.
 ---------------------------------------------------------------
  

 Cite this work as:
 Gaussian 16, Revision A.03,
 M. J. Frisch, G. W. Trucks, H. B. Schlegel, G. E. Scuseria, 
 M. A. Robb, J. R. Cheeseman, G. Scalmani, V. Barone, 
 G. A. Petersson, H. Nakatsuji, X. Li, M. Caricato, A. V. Marenich, 
 J. Bloino, B. G. Janesko, R. Gomperts, B. Mennucci, H. P. Hratchian, 
 J. V. Ortiz, A. F. Izmaylov, J. L. Sonnenberg, D. Williams-Young, 
 F. Ding, F. Lipparini, F. Egidi, J. Goings, B. Peng, A. Petrone, 
 T. Henderson, D. Ranasinghe, V. G. Zakrzewski, J. Gao, N. Rega, 
 G. Zheng, W. Liang, M. Hada, M. Ehara, K. Toyota, R. Fukuda, 
 J. Hasegawa, M. Ishida, T. Nakajima, Y. Honda, O. Kitao, H. Nakai, 
 T. Vreven, K. Throssell, J. A. Montgomery, Jr., J. E. Peralta, 
 F. Ogliaro, M. J. Bearpark, J. J. Heyd, E. N. Brothers, K. N. Kudin, 
 V. N. Staroverov, T. A. Keith, R. Kobayashi, J. Normand, 
 K. Raghavachari, A. P. Rendell, J. C. Burant, S. S. Iyengar, 
 J. Tomasi, M. Cossi, J. M. Millam, M. Klene, C. Adamo, R. Cammi, 
 J. W. Ochterski, R. L. Martin, K. Morokuma, O. Farkas, 
 J. B. Foresman, and D. J. Fox, Gaussian, Inc., Wallingford CT, 2016.
 
 ******************************************
 Gaussian 16:  ES64L-G16RevA.03 25-Dec-2016
                10-Jun-2022 
 ******************************************
 %nprocshared=12
 Will use up to   12 processors via shared memory.
 %chk=checkpoint.chk
 %mem=12GB
 ----------------------------------------------------------------------
 # Opt=(Z-matrix, MaxStep=10) B3LYP/Def2TZVP geom=allcheckpoint guess=r
 ead Field=read NoSymm freq=noraman pop=none
 ----------------------------------------------------------------------
 1/8=10,10=7,18=40,26=3,29=7,38=1/1,3;
 2/12=2,15=1,29=3,40=1/2;
 3/5=44,7=101,11=2,14=-6,25=1,30=1,71=1,74=-5,116=-2/1,2,3;
 4/5=1/1;
 5/5=2,38=6/2;
 7/29=1,30=1/1,2,3,16;
 1/8=10,10=7,18=40,26=3/3(2);
 2/15=1,29=3/2;
 99//99;
 2/15=1,29=3/2;
 3/5=44,7=101,11=2,14=-2,25=1,30=1,71=1,74=-5/1,2,3;
 4/5=5,16=3,69=1/1;
 5/5=2,38=5/2;
 7/30=1/1,2,3,16;
 1/8=10,18=40,26=3/3(-5);
 2/15=1,29=3/2;
 99/9=1/99;
 Structure from the checkpoint file:  "checkpoint.chk"
 ------------------
 int_zmat_initalOpt
 ------------------
 Charge =  0 Multiplicity = 1
 Z-Matrix found in chk file.
 C
 C,1,R2
 C,1,R3,2,A3
 H,1,R4,2,A4,3,D4,0
 C,2,R5,1,A5,3,D5,0
 N,3,R6,1,A6,2,D6,0
 H,3,R7,1,A7,6,D7,0
 H,2,R8,1,A8,5,D8,0
 H,5,R9,2,A9,1,D9,0
 H,6,R10,3,A10,1,D10,0
      Variables:
 R2=1.42090392
 R3=1.37337732
 R4=1.07727
 R5=1.37303381
 R6=1.37188179
 R7=1.07661018
 R8=1.07723209
 R9=1.07656008
 R10=1.00330178
 A3=107.4328508
 A4=126.72528516
 A5=107.45108765
 A6=107.67249083
 A7=130.97972378
 A8=126.74601571
 A9=130.94454321
 A10=125.16136293
 D4=180.08347057
 D5=0.06135836
 D6=-0.05994758
 D7=-179.75355935
 D8=-180.17456146
 D9=-180.22024525
 D10=-179.63398585
 Recover connectivity data from disk.

 GradGradGradGradGradGradGradGradGradGradGradGradGradGradGradGradGradGrad
 Berny optimization.
 Initialization pass.
                       ----------------------------
                       !    Initial Parameters    !
                       ! (Angstroms and Degrees)  !
 ----------------------                            ----------------------
 !      Name          Value   Derivative information (Atomic Units)     !
 ------------------------------------------------------------------------
 !       R2          1.4209   estimate D2E/DX2                          !
 !       R3          1.3734   estimate D2E/DX2                          !
 !       R4          1.0773   estimate D2E/DX2                          !
 !       R5          1.373    estimate D2E/DX2                          !
 !       R6          1.3719   estimate D2E/DX2                          !
 !       R7          1.0766   estimate D2E/DX2                          !
 !       R8          1.0772   estimate D2E/DX2                          !
 !       R9          1.0766   estimate D2E/DX2                          !
 !       R10         1.0033   estimate D2E/DX2                          !
 !       A3        107.4329   estimate D2E/DX2                          !
 !       A4        126.7253   estimate D2E/DX2                          !
 !       A5        107.4511   estimate D2E/DX2                          !
 !       A6        107.6725   estimate D2E/DX2                          !
 !       A7        130.9797   estimate D2E/DX2                          !
 !       A8        126.746    estimate D2E/DX2                          !
 !       A9        130.9445   estimate D2E/DX2                          !
 !       A10       125.1614   estimate D2E/DX2                          !
 !       D4        180.0835   estimate D2E/DX2                          !
 !       D5          0.0614   estimate D2E/DX2                          !
 !       D6         -0.0599   estimate D2E/DX2                          !
 !       D7       -179.7536   estimate D2E/DX2                          !
 !       D8       -180.1746   estimate D2E/DX2                          !
 !       D9       -180.2202   estimate D2E/DX2                          !
 !       D10      -179.634    estimate D2E/DX2                          !
 ------------------------------------------------------------------------
 Trust Radius=1.00D-01 FncErr=1.00D-07 GrdErr=1.00D-06 EigMax=2.50D+02 EigMin=1.00D-04
 Number of steps in this run=     34 maximum allowed number of steps=    100.
 GradGradGradGradGradGradGradGradGradGradGradGradGradGradGradGradGradGrad

 ---------------------------------------------------------------------------------------------------
                            Z-MATRIX (ANGSTROMS AND DEGREES)
   CD    Cent   Atom    N1       Length/X        N2       Alpha/Y        N3        Beta/Z          J
 ---------------------------------------------------------------------------------------------------
      1      1  C 
      2      2  C        1   1.420904(     1)
      3      3  C        1   1.373377(     2)      2  107.433(    10)
      4      4  H        1   1.077270(     3)      2  126.725(    11)      3  180.083(    18)      0
      5      5  C        2   1.373034(     4)      1  107.451(    12)      3    0.061(    19)      0
      6      6  N        3   1.371882(     5)      1  107.672(    13)      2   -0.060(    20)      0
      7      7  H        3   1.076610(     6)      1  130.980(    14)      6 -179.754(    21)      0
      8      8  H        2   1.077232(     7)      1  126.746(    15)      5 -180.175(    22)      0
      9      9  H        5   1.076560(     8)      2  130.945(    16)      1 -180.220(    23)      0
     10     10  H        6   1.003302(     9)      3  125.161(    17)      1 -179.634(    24)      0
 ---------------------------------------------------------------------------------------------------
                         Z-Matrix orientation:                         
 ---------------------------------------------------------------------
 Center     Atomic      Atomic             Coordinates (Angstroms)
 Number     Number       Type             X           Y           Z
 ---------------------------------------------------------------------
      1          6           0        0.000000    0.000000    0.000000
      2          6           0        0.000000    0.000000    1.420904
      3          6           0        1.310296    0.000000   -0.411447
      4          1           0       -0.863444    0.001258   -0.644185
      5          6           0        1.309837    0.001403    1.832665
      6          7           0        2.099240    0.001368    0.710883
      7          1           0        1.740403    0.002646   -1.398408
      8          1           0       -0.863179    0.001705    2.065378
      9          1           0        1.739000    0.004988    2.819979
     10          1           0        3.102526    0.006923    0.711869
 ---------------------------------------------------------------------
                    Distance matrix (angstroms):
                    1          2          3          4          5
     1  C    0.000000
     2  C    1.420904   0.000000
     3  C    1.373377   2.252640   0.000000
     4  H    1.077270   2.238331   2.186164   0.000000
     5  C    2.252629   1.373034   2.244113   3.295138   0.000000
     6  N    2.216341   2.216064   1.371882   3.257868   1.371697
     7  H    2.232611   3.313235   1.076610   2.710880   3.259635
     8  H    2.238497   1.077232   3.295249   2.709563   2.185442
     9  H    3.313069   2.231940   3.259743   4.332800   1.076560
    10  H    3.183154   3.182522   2.115177   4.191399   2.114226
                    6          7          8          9         10
     6  N    0.000000
     7  H    2.139597   0.000000
     8  H    3.257389   4.333181   0.000000
     9  H    2.139642   4.218387   2.709385   0.000000
    10  H    1.003302   2.511705   4.190326   2.510645   0.000000
 Symmetry turned off by external request.
 Stoichiometry    C4H5N
 Framework group  C1[X(C4H5N)]
 Deg. of freedom    24
 Full point group                 C1      NOp   1
 Rotational constants (GHZ):           9.1892590           9.0637253           4.5630343
 Standard basis: def2TZVP (5D, 7F)
 The following finite field(s) will be applied:
 An electric field of              0.0048 -0.0008 -0.0010
   185 basis functions,   295 primitive gaussians,   210 cartesian basis functions
    18 alpha electrons       18 beta electrons
       nuclear repulsion energy       161.2447517170 Hartrees.
 NAtoms=   10 NActive=   10 NUniq=   10 SFac= 1.00D+00 NAtFMM=   60 NAOKFM=F Big=F
 Integral buffers will be    131072 words long.
 Raffenetti 2 integral format.
 Two-electron integral symmetry is turned off.
 One-electron integrals computed using PRISM.
   1 Symmetry operations used in ECPInt.
 ECPInt:  NShTT=    2850 NPrTT=    8640 LenC2=    2844 LenP2D=    7462.
 LDataN:  DoStor=T MaxTD1= 6 Len=  172
 NBasis=   185 RedAO= T EigKep=  5.50D-05  NBF=   185
 NBsUse=   185 1.00D-06 EigRej= -1.00D+00 NBFU=   185
 The nuclear repulsion energy is now       161.5165744275 hartrees.
 Initial guess from the checkpoint file:  "checkpoint.chk"
 B after Tr=     0.000000    0.000000    0.000000
         Rot=    1.000000    0.000000    0.000000    0.000000 Ang=   0.00 deg.
 Keep R1 ints in memory in canonical form, NReq=160464041.
 Requested convergence on RMS density matrix=1.00D-08 within 128 cycles.
 Requested convergence on MAX density matrix=1.00D-06.
 Requested convergence on             energy=1.00D-06.
 No special actions if energy rises.
 SCF Done:  E(RB3LYP) =  -210.250544191     A.U. after   10 cycles
            NFock= 10  Conv=0.19D-08     -V/T= 2.0051
   1 Symmetry operations used in ECPInt.
 ECPInt:  NShTT=    2850 NPrTT=    8640 LenC2=    2844 LenP2D=    7462.
 LDataN:  DoStor=T MaxTD1= 7 Len=  274
 Calling FoFJK, ICntrl=      2127 FMM=F ISym2X=0 I1Cent= 0 IOpClX= 0 NMat=1 NMatS=1 NMatT=0.
 -------------------------------------------------------------------
 Center     Atomic                   Forces (Hartrees/Bohr)
 Number     Number              X              Y              Z
 -------------------------------------------------------------------
      1        6           0.000349781   -0.000250265   -0.000042483
      2        6           0.000058658   -0.000012409    0.000065767
      3        6          -0.000639742    0.000118171   -0.000504783
      4        1          -0.000087291    0.000045097    0.000180443
      5        6          -0.000740575   -0.000015777    0.000397864
      6        7           0.001679977   -0.000232937    0.000004866
      7        1          -0.000041745    0.000074179   -0.000136498
      8        1          -0.000037093    0.000055530   -0.000141664
      9        1          -0.000113658    0.000062994    0.000099379
     10        1          -0.000428312    0.000155417    0.000077110
 -------------------------------------------------------------------
 Cartesian Forces:  Max     0.001679977 RMS     0.000399553
 -----------------------------------------------------------------------------------------------
                       Internal Coordinate Forces (Hartree/Bohr or radian)
  Cent   Atom   N1       Length/X         N2         Alpha/Y        N3         Beta/Z          J
 -----------------------------------------------------------------------------------------------
      1  C 
      2  C        1   0.000421(     1)
      3  C        1   0.000712(     2)      2   0.003516(    10)
      4  H        1  -0.000038(     3)      2  -0.000401(    11)      3   0.000073(    18)     0
      5  C        2  -0.000666(     4)      1   0.002188(    12)      3   0.000081(    19)     0
      6  N        3   0.000787(     5)      1   0.002385(    13)      2   0.000217(    20)     0
      7  H        3   0.000109(     6)      1  -0.000189(    14)      6   0.000113(    21)     0
      8  H        2  -0.000055(     7)      1  -0.000276(    15)      5  -0.000090(    22)     0
      9  H        5   0.000046(     8)      2  -0.000293(    16)      1  -0.000096(    23)     0
     10  H        6  -0.000427(     9)      3   0.000146(    17)      1   0.000245(    24)     0
 -----------------------------------------------------------------------------------------------
 Internal  Forces:  Max     0.003515812 RMS     0.001027000

 GradGradGradGradGradGradGradGradGradGradGradGradGradGradGradGradGradGrad
 Berny optimization.
 Search for a local minimum.
 Step number   1 out of a maximum of   34
 All quantities printed in internal units (Hartrees-Bohrs-Radians)
 Second derivative matrix not updated -- first step.
 ITU=  0
     Eigenvalues ---    0.02949   0.06682   0.07716   0.11278   0.13808
     Eigenvalues ---    0.20352   0.21340   0.23958   0.28869   0.29751
     Eigenvalues ---    0.31808   0.36326   0.36331   0.36407   0.36413
     Eigenvalues ---    0.44138   0.47113   0.50401   0.50849   0.50911
     Eigenvalues ---    0.56931   0.86428   1.89393  15.97759
 RFO step:  Lambda=-7.41955686D-06 EMin= 2.94934448D-02
 Linear search not attempted -- first point.
 Variable       Old X    -DE/DX   Delta X   Delta X   Delta X     New X
                                 (Linear)    (Quad)   (Total)
    R2        2.68512   0.00042   0.00000  -0.00055  -0.00055   2.68457
    R3        2.59531   0.00071   0.00000  -0.00003  -0.00003   2.59527
    R4        2.03575  -0.00004   0.00000  -0.00010  -0.00010   2.03564
    R5        2.59466  -0.00067   0.00000  -0.00066  -0.00066   2.59400
    R6        2.59248   0.00079   0.00000   0.00198   0.00198   2.59446
    R7        2.03450   0.00011   0.00000   0.00030   0.00030   2.03480
    R8        2.03567  -0.00005   0.00000  -0.00015  -0.00015   2.03552
    R9        2.03440   0.00005   0.00000   0.00013   0.00013   2.03453
   R10        1.89597  -0.00043   0.00000  -0.00091  -0.00091   1.89506
    A3        1.87506   0.00352   0.00000   0.00024   0.00024   1.87530
    A4        2.21177  -0.00040   0.00000  -0.00136  -0.00136   2.21042
    A5        1.87538   0.00219   0.00000   0.00060   0.00060   1.87598
    A6        1.87924   0.00239   0.00000   0.00007   0.00007   1.87931
    A7        2.28603  -0.00019   0.00000  -0.00066  -0.00066   2.28537
    A8        2.21214  -0.00028   0.00000  -0.00114  -0.00114   2.21100
    A9        2.28541  -0.00029   0.00000  -0.00105  -0.00105   2.28436
   A10        2.18448   0.00015   0.00000   0.00105   0.00105   2.18553
    D4        3.14305   0.00007   0.00000   0.00076   0.00076   3.14381
    D5        0.00107   0.00008   0.00000   0.00094   0.00094   0.00201
    D6       -0.00105   0.00022   0.00000  -0.00080  -0.00080  -0.00185
    D7       -3.13729   0.00011   0.00000   0.00230   0.00230  -3.13499
    D8       -3.14464  -0.00009   0.00000  -0.00178  -0.00178  -3.14642
    D9       -3.14544  -0.00010   0.00000  -0.00227  -0.00227  -3.14771
   D10       -3.13520   0.00024   0.00000   0.00353   0.00353  -3.13167
         Item               Value     Threshold  Converged?
 Maximum Force            0.003516     0.000450     NO 
 RMS     Force            0.001027     0.000300     NO 
 Maximum Displacement     0.003534     0.001800     NO 
 RMS     Displacement     0.001292     0.001200     NO 
 Predicted change in Energy=-3.709778D-06
 GradGradGradGradGradGradGradGradGradGradGradGradGradGradGradGradGradGrad

 ---------------------------------------------------------------------------------------------------
                            Z-MATRIX (ANGSTROMS AND DEGREES)
   CD    Cent   Atom    N1       Length/X        N2       Alpha/Y        N3        Beta/Z          J
 ---------------------------------------------------------------------------------------------------
      1      1  C 
      2      2  C        1   1.420613(     1)
      3      3  C        1   1.373360(     2)      2  107.447(    10)
      4      4  H        1   1.077216(     3)      2  126.648(    11)      3  180.127(    18)      0
      5      5  C        2   1.372686(     4)      1  107.485(    12)      3    0.115(    19)      0
      6      6  N        3   1.372928(     5)      1  107.677(    13)      2   -0.106(    20)      0
      7      7  H        3   1.076769(     6)      1  130.942(    14)      6 -179.622(    21)      0
      8      8  H        2   1.077153(     7)      1  126.681(    15)      5 -180.276(    22)      0
      9      9  H        5   1.076628(     8)      2  130.884(    16)      1 -180.351(    23)      0
     10     10  H        6   1.002823(     9)      3  125.221(    17)      1 -179.432(    24)      0
 ---------------------------------------------------------------------------------------------------
                         Z-Matrix orientation:                         
 ---------------------------------------------------------------------
 Center     Atomic      Atomic             Coordinates (Angstroms)
 Number     Number       Type             X           Y           Z
 ---------------------------------------------------------------------
      1          6           0        0.000000    0.000000    0.000000
      2          6           0        0.000000    0.000000    1.420613
      3          6           0        1.310181    0.000000   -0.411758
      4          1           0       -0.864271    0.001919   -0.642982
      5          6           0        1.309256    0.002629    1.833056
      6          7           0        2.100078    0.002419    0.711179
      7          1           0        1.739460    0.003869   -1.399247
      8          1           0       -0.863848    0.002434    2.064056
      9          1           0        1.736810    0.008467    2.821131
     10          1           0        3.102861    0.011106    0.712904
 ---------------------------------------------------------------------
                    Distance matrix (angstroms):
                    1          2          3          4          5
     1  C    0.000000
     2  C    1.420613   0.000000
     3  C    1.373360   2.252589   0.000000
     4  H    1.077216   2.237273   2.186712   0.000000
     5  C    2.252610   1.372686   2.244816   3.294690   0.000000
     6  N    2.217230   2.216671   1.372928   3.259006   1.372592
     7  H    2.232404   3.313208   1.076769   2.711339   3.260807
     8  H    2.237536   1.077153   3.294854   2.707038   2.185346
     9  H    3.312908   2.231150   3.260929   4.331944   1.076628
    10  H    3.183725   3.182566   2.116292   4.192452   2.114671
                    6          7          8          9         10
     6  N    0.000000
     7  H    2.141016   0.000000
     8  H    3.258087   4.332630   0.000000
     9  H    2.141004   4.220382   2.708619   0.000000
    10  H    1.002823   2.513981   4.190521   2.512115   0.000000
 Symmetry turned off by external request.
 Stoichiometry    C4H5N
 Framework group  C1[X(C4H5N)]
 Deg. of freedom    24
 Full point group                 C1      NOp   1
 Rotational constants (GHZ):           9.1866505           9.0599679           4.5614447
 Standard basis: def2TZVP (5D, 7F)
 The following finite field(s) will be applied:
 An electric field of              0.0048 -0.0008 -0.0010
   185 basis functions,   295 primitive gaussians,   210 cartesian basis functions
    18 alpha electrons       18 beta electrons
       nuclear repulsion energy       161.2174711738 Hartrees.
 NAtoms=   10 NActive=   10 NUniq=   10 SFac= 1.00D+00 NAtFMM=   60 NAOKFM=F Big=F
 Integral buffers will be    131072 words long.
 Raffenetti 2 integral format.
 Two-electron integral symmetry is turned off.
 One-electron integrals computed using PRISM.
   1 Symmetry operations used in ECPInt.
 ECPInt:  NShTT=    2850 NPrTT=    8640 LenC2=    2844 LenP2D=    7462.
 LDataN:  DoStor=T MaxTD1= 6 Len=  172
 NBasis=   185 RedAO= T EigKep=  5.51D-05  NBF=   185
 NBsUse=   185 1.00D-06 EigRej= -1.00D+00 NBFU=   185
 The nuclear repulsion energy is now       161.4892284551 hartrees.
 Initial guess from the checkpoint file:  "checkpoint.chk"
 B after Tr=     0.000110   -0.000327   -0.000230
         Rot=    1.000000    0.000194    0.000091   -0.000302 Ang=   0.04 deg.
 Keep R1 ints in memory in canonical form, NReq=160464041.
 Requested convergence on RMS density matrix=1.00D-08 within 128 cycles.
 Requested convergence on MAX density matrix=1.00D-06.
 Requested convergence on             energy=1.00D-06.
 No special actions if energy rises.
 SCF Done:  E(RB3LYP) =  -210.250548758     A.U. after    8 cycles
            NFock=  8  Conv=0.34D-08     -V/T= 2.0051
   1 Symmetry operations used in ECPInt.
 ECPInt:  NShTT=    2850 NPrTT=    8640 LenC2=    2844 LenP2D=    7462.
 LDataN:  DoStor=T MaxTD1= 7 Len=  274
 Calling FoFJK, ICntrl=      2127 FMM=F ISym2X=0 I1Cent= 0 IOpClX= 0 NMat=1 NMatS=1 NMatT=0.
 -------------------------------------------------------------------
 Center     Atomic                   Forces (Hartrees/Bohr)
 Number     Number              X              Y              Z
 -------------------------------------------------------------------
      1        6           0.000480528   -0.000314543   -0.000126458
      2        6          -0.000110220    0.000113114    0.000133869
      3        6          -0.000255813    0.000270888   -0.000098645
      4        1          -0.000037136   -0.000016822    0.000047163
      5        6          -0.000243088    0.000016728    0.000062232
      6        7           0.000243268   -0.000253557   -0.000014704
      7        1          -0.000000041    0.000038296    0.000007520
      8        1          -0.000037873    0.000019149   -0.000031055
      9        1          -0.000015315    0.000009561    0.000004924
     10        1          -0.000024309    0.000117188    0.000015153
 -------------------------------------------------------------------
 Cartesian Forces:  Max     0.000480528 RMS     0.000157825
 -----------------------------------------------------------------------------------------------
                       Internal Coordinate Forces (Hartree/Bohr or radian)
  Cent   Atom   N1       Length/X         N2         Alpha/Y        N3         Beta/Z          J
 -----------------------------------------------------------------------------------------------
      1  C 
      2  C        1   0.000170(     1)
      3  C        1  -0.000008(     2)      2   0.000682(    10)
      4  H        1   0.000002(     3)      2  -0.000122(    11)      3  -0.000028(    18)     0
      5  C        2  -0.000226(     4)      1   0.000400(    12)      3   0.000043(    19)     0
      6  N        3   0.000126(     5)      1   0.000435(    13)      2   0.000329(    20)     0
      7  H        3  -0.000007(     6)      1   0.000006(    14)      6   0.000059(    21)     0
      8  H        2   0.000012(     7)      1  -0.000097(    15)      5  -0.000031(    22)     0
      9  H        5  -0.000002(     8)      2  -0.000033(    16)      1  -0.000015(    23)     0
     10  H        6  -0.000023(     9)      3   0.000028(    17)      1   0.000182(    24)     0
 -----------------------------------------------------------------------------------------------
 Internal  Forces:  Max     0.000682364 RMS     0.000212789

 GradGradGradGradGradGradGradGradGradGradGradGradGradGradGradGradGradGrad
 Berny optimization.
 Search for a local minimum.
 Step number   2 out of a maximum of   34
 All quantities printed in internal units (Hartrees-Bohrs-Radians)
 Update second derivatives using D2CorN and points    1    2
 DE= -4.57D-06 DEPred=-3.71D-06 R= 1.23D+00
 TightC=F SS=  1.41D+00  RLast= 6.33D-03 DXNew= 1.6818D-01 1.8984D-02
 Trust test= 1.23D+00 RLast= 6.33D-03 DXMaxT set to 1.00D-01
 ITU=  1  0
     Eigenvalues ---    0.02595   0.06312   0.07299   0.10959   0.13787
     Eigenvalues ---    0.20366   0.21100   0.23962   0.28377   0.29698
     Eigenvalues ---    0.31262   0.36326   0.36335   0.36411   0.36415
     Eigenvalues ---    0.44094   0.47050   0.50108   0.50667   0.50878
     Eigenvalues ---    0.56871   0.86316   1.89330  15.97110
 RFO step:  Lambda=-8.75845104D-07 EMin= 2.59488227D-02
 Quartic linear search produced a step of  0.30116.
 Variable       Old X    -DE/DX   Delta X   Delta X   Delta X     New X
                                 (Linear)    (Quad)   (Total)
    R2        2.68457   0.00017  -0.00017   0.00026   0.00010   2.68467
    R3        2.59527  -0.00001  -0.00001  -0.00039  -0.00040   2.59487
    R4        2.03564   0.00000  -0.00003   0.00004   0.00000   2.03565
    R5        2.59400  -0.00023  -0.00020  -0.00028  -0.00047   2.59353
    R6        2.59446   0.00013   0.00060  -0.00007   0.00052   2.59498
    R7        2.03480  -0.00001   0.00009  -0.00011  -0.00002   2.03478
    R8        2.03552   0.00001  -0.00005   0.00009   0.00004   2.03556
    R9        2.03453  -0.00000   0.00004  -0.00004  -0.00000   2.03453
   R10        1.89506  -0.00002  -0.00027   0.00019  -0.00009   1.89497
    A3        1.87530   0.00068   0.00007   0.00009   0.00017   1.87547
    A4        2.21042  -0.00012  -0.00041  -0.00023  -0.00064   2.20978
    A5        1.87598   0.00040   0.00018  -0.00008   0.00010   1.87608
    A6        1.87931   0.00043   0.00002  -0.00010  -0.00008   1.87924
    A7        2.28537   0.00001  -0.00020   0.00023   0.00004   2.28540
    A8        2.21100  -0.00010  -0.00034  -0.00015  -0.00049   2.21051
    A9        2.28436  -0.00003  -0.00032   0.00013  -0.00019   2.28417
   A10        2.18553   0.00003   0.00032  -0.00006   0.00026   2.18578
    D4        3.14381  -0.00003   0.00023   0.00045   0.00068   3.14449
    D5        0.00201   0.00004   0.00028  -0.00096  -0.00068   0.00133
    D6       -0.00185   0.00033  -0.00024   0.00119   0.00095  -0.00090
    D7       -3.13499   0.00006   0.00069   0.00048   0.00118  -3.13381
    D8       -3.14642  -0.00003  -0.00054  -0.00003  -0.00057  -3.14698
    D9       -3.14771  -0.00001  -0.00068  -0.00022  -0.00091  -3.14862
   D10       -3.13167   0.00018   0.00106   0.00162   0.00269  -3.12898
         Item               Value     Threshold  Converged?
 Maximum Force            0.000682     0.000450     NO 
 RMS     Force            0.000213     0.000300     YES
 Maximum Displacement     0.002687     0.001800     NO 
 RMS     Displacement     0.000738     0.001200     YES
 Predicted change in Energy=-6.129086D-07
 GradGradGradGradGradGradGradGradGradGradGradGradGradGradGradGradGradGrad

 ---------------------------------------------------------------------------------------------------
                            Z-MATRIX (ANGSTROMS AND DEGREES)
   CD    Cent   Atom    N1       Length/X        N2       Alpha/Y        N3        Beta/Z          J
 ---------------------------------------------------------------------------------------------------
      1      1  C 
      2      2  C        1   1.420664(     1)
      3      3  C        1   1.373148(     2)      2  107.456(    10)
      4      4  H        1   1.077218(     3)      2  126.611(    11)      3  180.166(    18)      0
      5      5  C        2   1.372435(     4)      1  107.491(    12)      3    0.076(    19)      0
      6      6  N        3   1.373205(     5)      1  107.672(    13)      2   -0.052(    20)      0
      7      7  H        3   1.076760(     6)      1  130.944(    14)      6 -179.554(    21)      0
      8      8  H        2   1.077174(     7)      1  126.653(    15)      5 -180.309(    22)      0
      9      9  H        5   1.076627(     8)      2  130.874(    16)      1 -180.403(    23)      0
     10     10  H        6   1.002777(     9)      3  125.236(    17)      1 -179.278(    24)      0
 ---------------------------------------------------------------------------------------------------
                         Z-Matrix orientation:                         
 ---------------------------------------------------------------------
 Center     Atomic      Atomic             Coordinates (Angstroms)
 Number     Number       Type             X           Y           Z
 ---------------------------------------------------------------------
      1          6           0        0.000000    0.000000    0.000000
      2          6           0        0.000000    0.000000    1.420664
      3          6           0        1.309909    0.000000   -0.411914
      4          1           0       -0.864684    0.002508   -0.642428
      5          6           0        1.308977    0.001736    1.833163
      6          7           0        2.100070    0.001179    0.711178
      7          1           0        1.739057    0.005598   -1.399442
      8          1           0       -0.864176    0.003512    2.063697
      9          1           0        1.736250    0.008023    2.821355
     10          1           0        3.102789    0.011779    0.713089
 ---------------------------------------------------------------------
                    Distance matrix (angstroms):
                    1          2          3          4          5
     1  C    0.000000
     2  C    1.420664   0.000000
     3  C    1.373148   2.252599   0.000000
     4  H    1.077218   2.236970   2.186778   0.000000
     5  C    2.252534   1.372435   2.245077   3.294442   0.000000
     6  N    2.217221   2.216679   1.373205   3.259144   1.372836
     7  H    2.232216   3.313208   1.076760   2.711558   3.261091
     8  H    2.237333   1.077174   3.294740   2.706126   2.185347
     9  H    3.312804   2.230821   3.261266   4.331591   1.076627
    10  H    3.183698   3.182468   2.116646   4.192655   2.114812
                    6          7          8          9         10
     6  N    0.000000
     7  H    2.141277   0.000000
     8  H    3.258231   4.332455   0.000000
     9  H    2.141321   4.220799   2.708558   0.000000
    10  H    1.002777   2.514476   4.190588   2.512415   0.000000
 Symmetry turned off by external request.
 Stoichiometry    C4H5N
 Framework group  C1[X(C4H5N)]
 Deg. of freedom    24
 Full point group                 C1      NOp   1
 Rotational constants (GHZ):           9.1854368           9.0605565           4.5612994
 Standard basis: def2TZVP (5D, 7F)
 The following finite field(s) will be applied:
 An electric field of              0.0048 -0.0008 -0.0010
   185 basis functions,   295 primitive gaussians,   210 cartesian basis functions
    18 alpha electrons       18 beta electrons
       nuclear repulsion energy       161.2145865385 Hartrees.
 NAtoms=   10 NActive=   10 NUniq=   10 SFac= 1.00D+00 NAtFMM=   60 NAOKFM=F Big=F
 Integral buffers will be    131072 words long.
 Raffenetti 2 integral format.
 Two-electron integral symmetry is turned off.
 One-electron integrals computed using PRISM.
   1 Symmetry operations used in ECPInt.
 ECPInt:  NShTT=    2850 NPrTT=    8640 LenC2=    2844 LenP2D=    7462.
 LDataN:  DoStor=T MaxTD1= 6 Len=  172
 NBasis=   185 RedAO= T EigKep=  5.52D-05  NBF=   185
 NBsUse=   185 1.00D-06 EigRej= -1.00D+00 NBFU=   185
 The nuclear repulsion energy is now       161.4863118661 hartrees.
 Initial guess from the checkpoint file:  "checkpoint.chk"
 B after Tr=    -0.000272    0.000510    0.000023
         Rot=    1.000000   -0.000147   -0.000001    0.000178 Ang=  -0.03 deg.
 Keep R1 ints in memory in canonical form, NReq=160464041.
 Requested convergence on RMS density matrix=1.00D-08 within 128 cycles.
 Requested convergence on MAX density matrix=1.00D-06.
 Requested convergence on             energy=1.00D-06.
 No special actions if energy rises.
 SCF Done:  E(RB3LYP) =  -210.250549576     A.U. after    7 cycles
            NFock=  7  Conv=0.73D-08     -V/T= 2.0051
   1 Symmetry operations used in ECPInt.
 ECPInt:  NShTT=    2850 NPrTT=    8640 LenC2=    2844 LenP2D=    7462.
 LDataN:  DoStor=T MaxTD1= 7 Len=  274
 Calling FoFJK, ICntrl=      2127 FMM=F ISym2X=0 I1Cent= 0 IOpClX= 0 NMat=1 NMatS=1 NMatT=0.
 -------------------------------------------------------------------
 Center     Atomic                   Forces (Hartrees/Bohr)
 Number     Number              X              Y              Z
 -------------------------------------------------------------------
      1        6           0.000300949   -0.000232146   -0.000065600
      2        6          -0.000296859    0.000078662    0.000059342
      3        6          -0.000029083    0.000248802    0.000030742
      4        1          -0.000007783   -0.000012804    0.000005745
      5        6          -0.000016708    0.000068318   -0.000017647
      6        7           0.000017278   -0.000183440   -0.000000221
      7        1           0.000012316   -0.000020458    0.000007466
      8        1          -0.000004926   -0.000025059   -0.000010115
      9        1           0.000013771   -0.000018849   -0.000005453
     10        1           0.000011044    0.000096975   -0.000004260
 -------------------------------------------------------------------
 Cartesian Forces:  Max     0.000300949 RMS     0.000109736
 -----------------------------------------------------------------------------------------------
                       Internal Coordinate Forces (Hartree/Bohr or radian)
  Cent   Atom   N1       Length/X         N2         Alpha/Y        N3         Beta/Z          J
 -----------------------------------------------------------------------------------------------
      1  C 
      2  C        1   0.000026(     1)
      3  C        1   0.000001(     2)      2  -0.000047(    10)
      4  H        1   0.000003(     3)      2  -0.000019(    11)      3  -0.000021(    18)     0
      5  C        2  -0.000010(     4)      1  -0.000085(    12)      3   0.000148(    19)     0
      6  N        3   0.000013(     5)      1   0.000075(    13)      2   0.000127(    20)     0
      7  H        3  -0.000002(     6)      1   0.000029(    14)      6  -0.000031(    21)     0
      8  H        2  -0.000002(     7)      1  -0.000022(    15)      5   0.000041(    22)     0
      9  H        5   0.000000(     8)      2   0.000030(    16)      1   0.000029(    23)     0
     10  H        6   0.000012(     9)      3  -0.000009(    17)      1   0.000150(    24)     0
 -----------------------------------------------------------------------------------------------
 Internal  Forces:  Max     0.000149862 RMS     0.000058881

 GradGradGradGradGradGradGradGradGradGradGradGradGradGradGradGradGradGrad
 Berny optimization.
 Search for a local minimum.
 Step number   3 out of a maximum of   34
 All quantities printed in internal units (Hartrees-Bohrs-Radians)
 Update second derivatives using D2CorN and points    1    2    3
 DE= -8.19D-07 DEPred=-6.13D-07 R= 1.34D+00
 Trust test= 1.34D+00 RLast= 3.61D-03 DXMaxT set to 1.00D-01
 ITU=  0  1  0
     Eigenvalues ---    0.01927   0.05766   0.07748   0.10242   0.13750
     Eigenvalues ---    0.20370   0.21058   0.23998   0.28289   0.29678
     Eigenvalues ---    0.31233   0.36327   0.36337   0.36412   0.36419
     Eigenvalues ---    0.43949   0.47084   0.50107   0.50725   0.50903
     Eigenvalues ---    0.56841   0.85883   1.89260  15.96907
 RFO step:  Lambda=-7.08605768D-07 EMin= 1.92706397D-02
 Quartic linear search produced a step of  0.33419.
 Variable       Old X    -DE/DX   Delta X   Delta X   Delta X     New X
                                 (Linear)    (Quad)   (Total)
    R2        2.68467   0.00003   0.00003   0.00018   0.00022   2.68488
    R3        2.59487   0.00000  -0.00013  -0.00006  -0.00019   2.59468
    R4        2.03565   0.00000   0.00000   0.00001   0.00002   2.03566
    R5        2.59353  -0.00001  -0.00016   0.00000  -0.00016   2.59337
    R6        2.59498   0.00001   0.00017   0.00001   0.00018   2.59517
    R7        2.03478  -0.00000  -0.00001  -0.00001  -0.00002   2.03476
    R8        2.03556  -0.00000   0.00001  -0.00001   0.00001   2.03557
    R9        2.03453   0.00000  -0.00000   0.00000   0.00000   2.03453
   R10        1.89497   0.00001  -0.00003   0.00004   0.00001   1.89498
    A3        1.87547  -0.00005   0.00006  -0.00008  -0.00002   1.87544
    A4        2.20978  -0.00002  -0.00021  -0.00013  -0.00034   2.20944
    A5        1.87608  -0.00008   0.00003  -0.00006  -0.00002   1.87605
    A6        1.87924   0.00007  -0.00003   0.00015   0.00012   1.87936
    A7        2.28540   0.00003   0.00001   0.00010   0.00011   2.28551
    A8        2.21051  -0.00002  -0.00016  -0.00014  -0.00031   2.21020
    A9        2.28417   0.00003  -0.00006   0.00010   0.00004   2.28421
   A10        2.18578  -0.00001   0.00009   0.00002   0.00011   2.18589
    D4        3.14449  -0.00002   0.00023  -0.00102  -0.00079   3.14370
    D5        0.00133   0.00015  -0.00023   0.00140   0.00118   0.00250
    D6       -0.00090   0.00013   0.00032  -0.00130  -0.00098  -0.00188
    D7       -3.13381  -0.00003   0.00039   0.00080   0.00119  -3.13262
    D8       -3.14698   0.00004  -0.00019  -0.00014  -0.00033  -3.14731
    D9       -3.14862   0.00003  -0.00030  -0.00088  -0.00119  -3.14980
   D10       -3.12898   0.00015   0.00090   0.00412   0.00502  -3.12397
         Item               Value     Threshold  Converged?
 Maximum Force            0.000150     0.000450     YES
 RMS     Force            0.000059     0.000300     YES
 Maximum Displacement     0.005016     0.001800     NO 
 RMS     Displacement     0.001145     0.001200     YES
 Predicted change in Energy=-3.619685D-07
 GradGradGradGradGradGradGradGradGradGradGradGradGradGradGradGradGradGrad

 ---------------------------------------------------------------------------------------------------
                            Z-MATRIX (ANGSTROMS AND DEGREES)
   CD    Cent   Atom    N1       Length/X        N2       Alpha/Y        N3        Beta/Z          J
 ---------------------------------------------------------------------------------------------------
      1      1  C 
      2      2  C        1   1.420779(     1)
      3      3  C        1   1.373045(     2)      2  107.455(    10)
      4      4  H        1   1.077226(     3)      2  126.591(    11)      3  180.121(    18)      0
      5      5  C        2   1.372352(     4)      1  107.490(    12)      3    0.143(    19)      0
      6      6  N        3   1.373302(     5)      1  107.679(    13)      2   -0.108(    20)      0
      7      7  H        3   1.076751(     6)      1  130.950(    14)      6 -179.486(    21)      0
      8      8  H        2   1.077177(     7)      1  126.635(    15)      5 -180.328(    22)      0
      9      9  H        5   1.076628(     8)      2  130.876(    16)      1 -180.471(    23)      0
     10     10  H        6   1.002782(     9)      3  125.242(    17)      1 -178.990(    24)      0
 ---------------------------------------------------------------------------------------------------
                         Z-Matrix orientation:                         
 ---------------------------------------------------------------------
 Center     Atomic      Atomic             Coordinates (Angstroms)
 Number     Number       Type             X           Y           Z
 ---------------------------------------------------------------------
      1          6           0        0.000000    0.000000    0.000000
      2          6           0        0.000000    0.000000    1.420779
      3          6           0        1.309820    0.000000   -0.411854
      4          1           0       -0.864911    0.001826   -0.642139
      5          6           0        1.308905    0.003276    1.833220
      6          7           0        2.100147    0.002459    0.711238
      7          1           0        1.739093    0.005772   -1.399317
      8          1           0       -0.864378    0.002779    2.063549
      9          1           0        1.736232    0.011031    2.821380
     10          1           0        3.102815    0.017462    0.713177
 ---------------------------------------------------------------------
                    Distance matrix (angstroms):
                    1          2          3          4          5
     1  C    0.000000
     2  C    1.420779   0.000000
     3  C    1.373045   2.252592   0.000000
     4  H    1.077226   2.236896   2.186890   0.000000
     5  C    2.252540   1.372352   2.245077   3.294370   0.000000
     6  N    2.217314   2.216770   1.373302   3.259324   1.372920
     7  H    2.232167   3.313219   1.076751   2.711858   3.261038
     8  H    2.237273   1.077177   3.294657   2.705688   2.185454
     9  H    3.312825   2.230764   3.261250   4.331511   1.076628
    10  H    3.183769   3.182525   2.116797   4.192848   2.114903
                    6          7          8          9         10
     6  N    0.000000
     7  H    2.141218   0.000000
     8  H    3.258397   4.332380   0.000000
     9  H    2.141309   4.220702   2.708791   0.000000
    10  H    1.002782   2.514459   4.190745   2.512392   0.000000
 Symmetry turned off by external request.
 Stoichiometry    C4H5N
 Framework group  C1[X(C4H5N)]
 Deg. of freedom    24
 Full point group                 C1      NOp   1
 Rotational constants (GHZ):           9.1853666           9.0600544           4.5611635
 Standard basis: def2TZVP (5D, 7F)
 The following finite field(s) will be applied:
 An electric field of              0.0048 -0.0008 -0.0010
   185 basis functions,   295 primitive gaussians,   210 cartesian basis functions
    18 alpha electrons       18 beta electrons
       nuclear repulsion energy       161.2121697602 Hartrees.
 NAtoms=   10 NActive=   10 NUniq=   10 SFac= 1.00D+00 NAtFMM=   60 NAOKFM=F Big=F
 Integral buffers will be    131072 words long.
 Raffenetti 2 integral format.
 Two-electron integral symmetry is turned off.
 One-electron integrals computed using PRISM.
   1 Symmetry operations used in ECPInt.
 ECPInt:  NShTT=    2850 NPrTT=    8640 LenC2=    2844 LenP2D=    7462.
 LDataN:  DoStor=T MaxTD1= 6 Len=  172
 NBasis=   185 RedAO= T EigKep=  5.52D-05  NBF=   185
 NBsUse=   185 1.00D-06 EigRej= -1.00D+00 NBFU=   185
 The nuclear repulsion energy is now       161.4838447664 hartrees.
 Initial guess from the checkpoint file:  "checkpoint.chk"
 B after Tr=    -0.000039   -0.000941    0.000116
         Rot=    1.000000    0.000241    0.000000   -0.000443 Ang=   0.06 deg.
 Keep R1 ints in memory in canonical form, NReq=160464041.
 Requested convergence on RMS density matrix=1.00D-08 within 128 cycles.
 Requested convergence on MAX density matrix=1.00D-06.
 Requested convergence on             energy=1.00D-06.
 No special actions if energy rises.
 SCF Done:  E(RB3LYP) =  -210.250549959     A.U. after    7 cycles
            NFock=  7  Conv=0.35D-08     -V/T= 2.0051
   1 Symmetry operations used in ECPInt.
 ECPInt:  NShTT=    2850 NPrTT=    8640 LenC2=    2844 LenP2D=    7462.
 LDataN:  DoStor=T MaxTD1= 7 Len=  274
 Calling FoFJK, ICntrl=      2127 FMM=F ISym2X=0 I1Cent= 0 IOpClX= 0 NMat=1 NMatS=1 NMatT=0.
 -------------------------------------------------------------------
 Center     Atomic                   Forces (Hartrees/Bohr)
 Number     Number              X              Y              Z
 -------------------------------------------------------------------
      1        6           0.000237615   -0.000378621    0.000038957
      2        6          -0.000340684    0.000163229   -0.000038579
      3        6           0.000092276    0.000406952    0.000023325
      4        1           0.000017236   -0.000040769   -0.000015872
      5        6           0.000074399    0.000072847   -0.000006649
      6        7          -0.000106579   -0.000197628    0.000005185
      7        1           0.000001539   -0.000018875   -0.000007855
      8        1           0.000015389   -0.000013844    0.000010956
      9        1           0.000007273   -0.000039211    0.000000621
     10        1           0.000001536    0.000045920   -0.000010089
 -------------------------------------------------------------------
 Cartesian Forces:  Max     0.000406952 RMS     0.000140061
 -----------------------------------------------------------------------------------------------
                       Internal Coordinate Forces (Hartree/Bohr or radian)
  Cent   Atom   N1       Length/X         N2         Alpha/Y        N3         Beta/Z          J
 -----------------------------------------------------------------------------------------------
      1  C 
      2  C        1  -0.000034(     1)
      3  C        1  -0.000014(     2)      2  -0.000210(    10)
      4  H        1  -0.000004(     3)      2   0.000047(    11)      3  -0.000067(    18)     0
      5  C        2   0.000076(     4)      1  -0.000092(    12)      3   0.000073(    19)     0
      6  N        3  -0.000065(     5)      1  -0.000196(    13)      2   0.000319(    20)     0
      7  H        3   0.000008(     6)      1  -0.000003(    14)      6  -0.000029(    21)     0
      8  H        2  -0.000006(     7)      1   0.000037(    15)      5   0.000023(    22)     0
      9  H        5   0.000003(     8)      2   0.000013(    16)      1   0.000060(    23)     0
     10  H        6   0.000002(     9)      3  -0.000020(    17)      1   0.000071(    24)     0
 -----------------------------------------------------------------------------------------------
 Internal  Forces:  Max     0.000319341 RMS     0.000097602

 GradGradGradGradGradGradGradGradGradGradGradGradGradGradGradGradGradGrad
 Berny optimization.
 Search for a local minimum.
 Step number   4 out of a maximum of   34
 All quantities printed in internal units (Hartrees-Bohrs-Radians)
 Update second derivatives using D2CorN and points    1    2    3    4
 DE= -3.82D-07 DEPred=-3.62D-07 R= 1.06D+00
 Trust test= 1.06D+00 RLast= 5.61D-03 DXMaxT set to 1.00D-01
 ITU=  0  0  1  0
     Eigenvalues ---    0.02009   0.05624   0.07751   0.10139   0.13732
     Eigenvalues ---    0.20371   0.21044   0.24021   0.28417   0.29687
     Eigenvalues ---    0.31293   0.36327   0.36337   0.36412   0.36419
     Eigenvalues ---    0.43965   0.47085   0.50133   0.50732   0.50906
     Eigenvalues ---    0.56852   0.85750   1.89295  15.96938
 RFO step:  Lambda=-4.85248210D-07 EMin= 2.00915216D-02
 Quartic linear search produced a step of -0.00787.
 Variable       Old X    -DE/DX   Delta X   Delta X   Delta X     New X
                                 (Linear)    (Quad)   (Total)
    R2        2.68488  -0.00003  -0.00000   0.00003   0.00003   2.68491
    R3        2.59468  -0.00001   0.00000   0.00004   0.00004   2.59472
    R4        2.03566  -0.00000  -0.00000  -0.00001  -0.00001   2.03565
    R5        2.59337   0.00008   0.00000   0.00004   0.00004   2.59341
    R6        2.59517  -0.00006  -0.00000  -0.00006  -0.00007   2.59510
    R7        2.03476   0.00001   0.00000   0.00003   0.00003   2.03479
    R8        2.03557  -0.00001  -0.00000  -0.00002  -0.00002   2.03555
    R9        2.03453   0.00000  -0.00000   0.00001   0.00001   2.03455
   R10        1.89498   0.00000  -0.00000  -0.00001  -0.00001   1.89497
    A3        1.87544  -0.00021   0.00000  -0.00001  -0.00001   1.87543
    A4        2.20944   0.00005   0.00000   0.00004   0.00004   2.20948
    A5        1.87605  -0.00009   0.00000  -0.00000  -0.00000   1.87605
    A6        1.87936  -0.00020  -0.00000  -0.00004  -0.00004   1.87932
    A7        2.28551  -0.00000  -0.00000   0.00002   0.00002   2.28553
    A8        2.21020   0.00004   0.00000   0.00002   0.00002   2.21022
    A9        2.28421   0.00001  -0.00000   0.00005   0.00005   2.28426
   A10        2.18589  -0.00002  -0.00000  -0.00008  -0.00008   2.18581
    D4        3.14370  -0.00007   0.00001  -0.00002  -0.00002   3.14369
    D5        0.00250   0.00007  -0.00001  -0.00078  -0.00079   0.00171
    D6       -0.00188   0.00032   0.00001   0.00112   0.00113  -0.00075
    D7       -3.13262  -0.00003  -0.00001  -0.00011  -0.00012  -3.13273
    D8       -3.14731   0.00002   0.00000   0.00036   0.00036  -3.14695
    D9       -3.14980   0.00006   0.00001   0.00015   0.00016  -3.14965
   D10       -3.12397   0.00007  -0.00004   0.00201   0.00197  -3.12200
         Item               Value     Threshold  Converged?
 Maximum Force            0.000319     0.000450     YES
 RMS     Force            0.000098     0.000300     YES
 Maximum Displacement     0.001966     0.001800     NO 
 RMS     Displacement     0.000498     0.001200     YES
 Predicted change in Energy=-2.437285D-07
 GradGradGradGradGradGradGradGradGradGradGradGradGradGradGradGradGradGrad

 ---------------------------------------------------------------------------------------------------
                            Z-MATRIX (ANGSTROMS AND DEGREES)
   CD    Cent   Atom    N1       Length/X        N2       Alpha/Y        N3        Beta/Z          J
 ---------------------------------------------------------------------------------------------------
      1      1  C 
      2      2  C        1   1.420793(     1)
      3      3  C        1   1.373066(     2)      2  107.454(    10)
      4      4  H        1   1.077219(     3)      2  126.594(    11)      3  180.120(    18)      0
      5      5  C        2   1.372375(     4)      1  107.490(    12)      3    0.098(    19)      0
      6      6  N        3   1.373268(     5)      1  107.677(    13)      2   -0.043(    20)      0
      7      7  H        3   1.076766(     6)      1  130.951(    14)      6 -179.492(    21)      0
      8      8  H        2   1.077167(     7)      1  126.636(    15)      5 -180.307(    22)      0
      9      9  H        5   1.076635(     8)      2  130.879(    16)      1 -180.461(    23)      0
     10     10  H        6   1.002776(     9)      3  125.238(    17)      1 -178.877(    24)      0
 ---------------------------------------------------------------------------------------------------
                         Z-Matrix orientation:                         
 ---------------------------------------------------------------------
 Center     Atomic      Atomic             Coordinates (Angstroms)
 Number     Number       Type             X           Y           Z
 ---------------------------------------------------------------------
      1          6           0        0.000000    0.000000    0.000000
      2          6           0        0.000000    0.000000    1.420793
      3          6           0        1.309845    0.000000   -0.411845
      4          1           0       -0.864878    0.001812   -0.642171
      5          6           0        1.308929    0.002241    1.833241
      6          7           0        2.100093    0.000981    0.711263
      7          1           0        1.739161    0.006595   -1.399301
      8          1           0       -0.864357    0.003149    2.063572
      9          1           0        1.736315    0.009528    2.821386
     10          1           0        3.102735    0.017253    0.713204
 ---------------------------------------------------------------------
                    Distance matrix (angstroms):
                    1          2          3          4          5
     1  C    0.000000
     2  C    1.420793   0.000000
     3  C    1.373066   2.252611   0.000000
     4  H    1.077219   2.236926   2.186886   0.000000
     5  C    2.252570   1.372375   2.245087   3.294404   0.000000
     6  N    2.217270   2.216715   1.373268   3.259269   1.372871
     7  H    2.232211   3.313254   1.076766   2.711878   3.261049
     8  H    2.237287   1.077167   3.294671   2.705744   2.185458
     9  H    3.312869   2.230816   3.261250   4.331569   1.076635
    10  H    3.183696   3.182443   2.116716   4.192759   2.114816
                    6          7          8          9         10
     6  N    0.000000
     7  H    2.141211   0.000000
     8  H    3.258329   4.332414   0.000000
     9  H    2.141268   4.220689   2.708840   0.000000
    10  H    1.002776   2.514383   4.190646   2.512290   0.000000
 Symmetry turned off by external request.
 Stoichiometry    C4H5N
 Framework group  C1[X(C4H5N)]
 Deg. of freedom    24
 Full point group                 C1      NOp   1
 Rotational constants (GHZ):           9.1852567           9.0603223           4.5612079
 Standard basis: def2TZVP (5D, 7F)
 The following finite field(s) will be applied:
 An electric field of              0.0048 -0.0008 -0.0010
   185 basis functions,   295 primitive gaussians,   210 cartesian basis functions
    18 alpha electrons       18 beta electrons
       nuclear repulsion energy       161.2129433967 Hartrees.
 NAtoms=   10 NActive=   10 NUniq=   10 SFac= 1.00D+00 NAtFMM=   60 NAOKFM=F Big=F
 Integral buffers will be    131072 words long.
 Raffenetti 2 integral format.
 Two-electron integral symmetry is turned off.
 One-electron integrals computed using PRISM.
   1 Symmetry operations used in ECPInt.
 ECPInt:  NShTT=    2850 NPrTT=    8640 LenC2=    2844 LenP2D=    7462.
 LDataN:  DoStor=T MaxTD1= 6 Len=  172
 NBasis=   185 RedAO= T EigKep=  5.52D-05  NBF=   185
 NBsUse=   185 1.00D-06 EigRej= -1.00D+00 NBFU=   185
 The nuclear repulsion energy is now       161.4846436203 hartrees.
 Initial guess from the checkpoint file:  "checkpoint.chk"
 B after Tr=     0.000006    0.000384    0.000017
         Rot=    1.000000   -0.000168    0.000002    0.000224 Ang=  -0.03 deg.
 Keep R1 ints in memory in canonical form, NReq=160464041.
 Requested convergence on RMS density matrix=1.00D-08 within 128 cycles.
 Requested convergence on MAX density matrix=1.00D-06.
 Requested convergence on             energy=1.00D-06.
 No special actions if energy rises.
 SCF Done:  E(RB3LYP) =  -210.250550278     A.U. after    6 cycles
            NFock=  6  Conv=0.70D-08     -V/T= 2.0051
   1 Symmetry operations used in ECPInt.
 ECPInt:  NShTT=    2850 NPrTT=    8640 LenC2=    2844 LenP2D=    7462.
 LDataN:  DoStor=T MaxTD1= 7 Len=  274
 Calling FoFJK, ICntrl=      2127 FMM=F ISym2X=0 I1Cent= 0 IOpClX= 0 NMat=1 NMatS=1 NMatT=0.
 -------------------------------------------------------------------
 Center     Atomic                   Forces (Hartrees/Bohr)
 Number     Number              X              Y              Z
 -------------------------------------------------------------------
      1        6           0.000253854   -0.000305288    0.000045516
      2        6          -0.000328660    0.000093975   -0.000043568
      3        6           0.000059629    0.000327927    0.000015332
      4        1           0.000010512   -0.000010232   -0.000015022
      5        6           0.000034660    0.000083679    0.000001184
      6        7          -0.000047637   -0.000108530   -0.000006350
      7        1          -0.000003224   -0.000049494    0.000002408
      8        1           0.000007862   -0.000028783    0.000013228
      9        1           0.000001541   -0.000040625   -0.000003320
     10        1           0.000011464    0.000037369   -0.000009408
 -------------------------------------------------------------------
 Cartesian Forces:  Max     0.000328660 RMS     0.000118228
 -----------------------------------------------------------------------------------------------
                       Internal Coordinate Forces (Hartree/Bohr or radian)
  Cent   Atom   N1       Length/X         N2         Alpha/Y        N3         Beta/Z          J
 -----------------------------------------------------------------------------------------------
      1  C 
      2  C        1  -0.000032(     1)
      3  C        1   0.000019(     2)      2  -0.000052(    10)
      4  H        1   0.000000(     3)      2   0.000037(    11)      3  -0.000017(    18)     0
      5  C        2   0.000034(     4)      1  -0.000039(    12)      3   0.000120(    19)     0
      6  N        3  -0.000034(     5)      1  -0.000035(    13)      2   0.000078(    20)     0
      7  H        3  -0.000004(     6)      1  -0.000004(    14)      6  -0.000076(    21)     0
      8  H        2   0.000002(     7)      1   0.000031(    15)      5   0.000047(    22)     0
      9  H        5  -0.000003(     8)      2   0.000006(    16)      1   0.000062(    23)     0
     10  H        6   0.000012(     9)      3  -0.000019(    17)      1   0.000057(    24)     0
 -----------------------------------------------------------------------------------------------
 Internal  Forces:  Max     0.000120478 RMS     0.000044820

 GradGradGradGradGradGradGradGradGradGradGradGradGradGradGradGradGradGrad
 Berny optimization.
 Search for a local minimum.
 Step number   5 out of a maximum of   34
 All quantities printed in internal units (Hartrees-Bohrs-Radians)
 Update second derivatives using D2CorN and points    1    2    3    4    5

 DE= -3.19D-07 DEPred=-2.44D-07 R= 1.31D+00
 Trust test= 1.31D+00 RLast= 2.44D-03 DXMaxT set to 1.00D-01
 ITU=  0  0  0  1  0
     Eigenvalues ---    0.00856   0.05481   0.08082   0.09460   0.13696
     Eigenvalues ---    0.20374   0.21711   0.24017   0.28330   0.29681
     Eigenvalues ---    0.31252   0.36327   0.36338   0.36412   0.36423
     Eigenvalues ---    0.43962   0.47086   0.50095   0.50728   0.50907
     Eigenvalues ---    0.56847   0.85101   1.89291  15.96883
 RFO step:  Lambda=-5.61166081D-07 EMin= 8.56462501D-03
 Quartic linear search produced a step of  0.45219.
 Variable       Old X    -DE/DX   Delta X   Delta X   Delta X     New X
                                 (Linear)    (Quad)   (Total)
    R2        2.68491  -0.00003   0.00001  -0.00001  -0.00000   2.68491
    R3        2.59472   0.00002   0.00002   0.00003   0.00005   2.59477
    R4        2.03565   0.00000  -0.00001   0.00000  -0.00000   2.03565
    R5        2.59341   0.00003   0.00002   0.00003   0.00005   2.59347
    R6        2.59510  -0.00003  -0.00003  -0.00006  -0.00009   2.59501
    R7        2.03479  -0.00000   0.00001  -0.00003  -0.00001   2.03478
    R8        2.03555   0.00000  -0.00001   0.00001   0.00000   2.03555
    R9        2.03455  -0.00000   0.00001  -0.00001  -0.00001   2.03454
   R10        1.89497   0.00001  -0.00001   0.00005   0.00004   1.89501
    A3        1.87543  -0.00005  -0.00001   0.00001   0.00000   1.87543
    A4        2.20948   0.00004   0.00002   0.00005   0.00007   2.20955
    A5        1.87605  -0.00004  -0.00000  -0.00005  -0.00005   1.87600
    A6        1.87932  -0.00004  -0.00002   0.00003   0.00001   1.87933
    A7        2.28553  -0.00000   0.00001   0.00002   0.00003   2.28556
    A8        2.21022   0.00003   0.00001   0.00006   0.00007   2.21029
    A9        2.28426   0.00001   0.00002   0.00003   0.00005   2.28431
   A10        2.18581  -0.00002  -0.00004  -0.00011  -0.00015   2.18566
    D4        3.14369  -0.00002  -0.00001  -0.00136  -0.00137   3.14232
    D5        0.00171   0.00012  -0.00036   0.00093   0.00057   0.00229
    D6       -0.00075   0.00008   0.00051  -0.00062  -0.00011  -0.00086
    D7       -3.13273  -0.00008  -0.00005  -0.00040  -0.00046  -3.13319
    D8       -3.14695   0.00005   0.00016   0.00082   0.00098  -3.14597
    D9       -3.14965   0.00006   0.00007   0.00011   0.00018  -3.14946
   D10       -3.12200   0.00006   0.00089   0.00609   0.00698  -3.11502
         Item               Value     Threshold  Converged?
 Maximum Force            0.000120     0.000450     YES
 RMS     Force            0.000045     0.000300     YES
 Maximum Displacement     0.006980     0.001800     NO 
 RMS     Displacement     0.001475     0.001200     NO 
 Predicted change in Energy=-2.770156D-07
 GradGradGradGradGradGradGradGradGradGradGradGradGradGradGradGradGradGrad

 ---------------------------------------------------------------------------------------------------
                            Z-MATRIX (ANGSTROMS AND DEGREES)
   CD    Cent   Atom    N1       Length/X        N2       Alpha/Y        N3        Beta/Z          J
 ---------------------------------------------------------------------------------------------------
      1      1  C 
      2      2  C        1   1.420792(     1)
      3      3  C        1   1.373091(     2)      2  107.454(    10)
      4      4  H        1   1.077218(     3)      2  126.598(    11)      3  180.041(    18)      0
      5      5  C        2   1.372403(     4)      1  107.487(    12)      3    0.131(    19)      0
      6      6  N        3   1.373218(     5)      1  107.677(    13)      2   -0.049(    20)      0
      7      7  H        3   1.076759(     6)      1  130.953(    14)      6 -179.519(    21)      0
      8      8  H        2   1.077169(     7)      1  126.640(    15)      5 -180.251(    22)      0
      9      9  H        5   1.076631(     8)      2  130.881(    16)      1 -180.451(    23)      0
     10     10  H        6   1.002799(     9)      3  125.229(    17)      1 -178.478(    24)      0
 ---------------------------------------------------------------------------------------------------
                         Z-Matrix orientation:                         
 ---------------------------------------------------------------------
 Center     Atomic      Atomic             Coordinates (Angstroms)
 Number     Number       Type             X           Y           Z
 ---------------------------------------------------------------------
      1          6           0        0.000000    0.000000    0.000000
      2          6           0        0.000000    0.000000    1.420792
      3          6           0        1.309868    0.000000   -0.411855
      4          1           0       -0.864834    0.000626   -0.642230
      5          6           0        1.308974    0.002993    1.833186
      6          7           0        2.100100    0.001128    0.711204
      7          1           0        1.739204    0.006132   -1.399297
      8          1           0       -0.864320    0.001803    2.063630
      9          1           0        1.736449    0.010377    2.821288
     10          1           0        3.102655    0.023151    0.713051
 ---------------------------------------------------------------------
                    Distance matrix (angstroms):
                    1          2          3          4          5
     1  C    0.000000
     2  C    1.420792   0.000000
     3  C    1.373091   2.252631   0.000000
     4  H    1.077218   2.236961   2.186871   0.000000
     5  C    2.252553   1.372403   2.245043   3.294409   0.000000
     6  N    2.217258   2.216740   1.373218   3.259236   1.372855
     7  H    2.232242   3.313272   1.076759   2.711863   3.260991
     8  H    2.237325   1.077169   3.294711   2.705861   2.185477
     9  H    3.312858   2.230864   3.261179   4.331596   1.076631
    10  H    3.183622   3.182437   2.116609   4.192644   2.114806
                    6          7          8          9         10
     6  N    0.000000
     7  H    2.141141   0.000000
     8  H    3.258350   4.332462   0.000000
     9  H    2.141210   4.220588   2.708896   0.000000
    10  H    1.002799   2.514220   4.190634   2.512239   0.000000
 Symmetry turned off by external request.
 Stoichiometry    C4H5N
 Framework group  C1[X(C4H5N)]
 Deg. of freedom    24
 Full point group                 C1      NOp   1
 Rotational constants (GHZ):           9.1854443           9.0602221           4.5612429
 Standard basis: def2TZVP (5D, 7F)
 The following finite field(s) will be applied:
 An electric field of              0.0048 -0.0008 -0.0010
   185 basis functions,   295 primitive gaussians,   210 cartesian basis functions
    18 alpha electrons       18 beta electrons
       nuclear repulsion energy       161.2133805646 Hartrees.
 NAtoms=   10 NActive=   10 NUniq=   10 SFac= 1.00D+00 NAtFMM=   60 NAOKFM=F Big=F
 Integral buffers will be    131072 words long.
 Raffenetti 2 integral format.
 Two-electron integral symmetry is turned off.
 One-electron integrals computed using PRISM.
   1 Symmetry operations used in ECPInt.
 ECPInt:  NShTT=    2850 NPrTT=    8640 LenC2=    2844 LenP2D=    7462.
 LDataN:  DoStor=T MaxTD1= 6 Len=  172
 NBasis=   185 RedAO= T EigKep=  5.52D-05  NBF=   185
 NBsUse=   185 1.00D-06 EigRej= -1.00D+00 NBFU=   185
 The nuclear repulsion energy is now       161.4850746523 hartrees.
 Initial guess from the checkpoint file:  "checkpoint.chk"
 B after Tr=     0.000010   -0.000909   -0.000019
         Rot=    1.000000    0.000113   -0.000010   -0.000295 Ang=   0.04 deg.
 Keep R1 ints in memory in canonical form, NReq=160464041.
 Requested convergence on RMS density matrix=1.00D-08 within 128 cycles.
 Requested convergence on MAX density matrix=1.00D-06.
 Requested convergence on             energy=1.00D-06.
 No special actions if energy rises.
 SCF Done:  E(RB3LYP) =  -210.250550459     A.U. after    6 cycles
            NFock=  6  Conv=0.85D-08     -V/T= 2.0051
   1 Symmetry operations used in ECPInt.
 ECPInt:  NShTT=    2850 NPrTT=    8640 LenC2=    2844 LenP2D=    7462.
 LDataN:  DoStor=T MaxTD1= 7 Len=  274
 Calling FoFJK, ICntrl=      2127 FMM=F ISym2X=0 I1Cent= 0 IOpClX= 0 NMat=1 NMatS=1 NMatT=0.
 -------------------------------------------------------------------
 Center     Atomic                   Forces (Hartrees/Bohr)
 Number     Number              X              Y              Z
 -------------------------------------------------------------------
      1        6           0.000268642   -0.000413088    0.000029688
      2        6          -0.000296983    0.000090985   -0.000040017
      3        6           0.000016532    0.000394293   -0.000001412
      4        1           0.000005706   -0.000004787   -0.000010409
      5        6           0.000012781    0.000068712    0.000012798
      6        7          -0.000001831   -0.000061027    0.000003912
      7        1          -0.000006151   -0.000025218   -0.000004466
      8        1           0.000007856    0.000002214    0.000008825
      9        1          -0.000003564   -0.000025246    0.000002501
     10        1          -0.000002988   -0.000026837   -0.000001421
 -------------------------------------------------------------------
 Cartesian Forces:  Max     0.000413088 RMS     0.000130217
 -----------------------------------------------------------------------------------------------
                       Internal Coordinate Forces (Hartree/Bohr or radian)
  Cent   Atom   N1       Length/X         N2         Alpha/Y        N3         Beta/Z          J
 -----------------------------------------------------------------------------------------------
      1  C 
      2  C        1  -0.000016(     1)
      3  C        1   0.000006(     2)      2   0.000008(    10)
      4  H        1   0.000002(     3)      2   0.000024(    11)      3  -0.000008(    18)     0
      5  C        2   0.000013(     4)      1   0.000039(    12)      3   0.000083(    19)     0
      6  N        3  -0.000001(     5)      1  -0.000011(    13)      2   0.000194(    20)     0
      7  H        3   0.000001(     6)      1  -0.000015(    14)      6  -0.000039(    21)     0
      8  H        2  -0.000001(     7)      1   0.000024(    15)      5  -0.000004(    22)     0
      9  H        5   0.000001(     8)      2  -0.000009(    16)      1   0.000039(    23)     0
     10  H        6  -0.000004(     9)      3  -0.000002(    17)      1  -0.000041(    24)     0
 -----------------------------------------------------------------------------------------------
 Internal  Forces:  Max     0.000193666 RMS     0.000046975

 GradGradGradGradGradGradGradGradGradGradGradGradGradGradGradGradGradGrad
 Berny optimization.
 Search for a local minimum.
 Step number   6 out of a maximum of   34
 All quantities printed in internal units (Hartrees-Bohrs-Radians)
 Update second derivatives using D2CorN and points    1    2    3    4    5
                                                          6
 DE= -1.81D-07 DEPred=-2.77D-07 R= 6.55D-01
 Trust test= 6.55D-01 RLast= 7.22D-03 DXMaxT set to 1.00D-01
 ITU=  0  0  0  0  1  0
     Eigenvalues ---    0.01367   0.05435   0.08028   0.09174   0.13652
     Eigenvalues ---    0.20375   0.21697   0.24015   0.28252   0.29677
     Eigenvalues ---    0.31213   0.36327   0.36338   0.36412   0.36423
     Eigenvalues ---    0.43948   0.47078   0.50047   0.50725   0.50908
     Eigenvalues ---    0.56842   0.84935   1.89291  15.96840
 RFO step:  Lambda=-1.13531470D-07 EMin= 1.36665695D-02
 Quartic linear search produced a step of -0.27904.
 Variable       Old X    -DE/DX   Delta X   Delta X   Delta X     New X
                                 (Linear)    (Quad)   (Total)
    R2        2.68491  -0.00002   0.00000  -0.00006  -0.00006   2.68485
    R3        2.59477   0.00001  -0.00001   0.00004   0.00003   2.59479
    R4        2.03565   0.00000   0.00000   0.00000   0.00000   2.03565
    R5        2.59347   0.00001  -0.00001   0.00004   0.00002   2.59349
    R6        2.59501  -0.00000   0.00003  -0.00002   0.00001   2.59502
    R7        2.03478   0.00000   0.00000   0.00000   0.00001   2.03479
    R8        2.03555  -0.00000  -0.00000  -0.00000  -0.00000   2.03555
    R9        2.03454   0.00000   0.00000   0.00000   0.00000   2.03454
   R10        1.89501  -0.00000  -0.00001  -0.00000  -0.00001   1.89500
    A3        1.87543   0.00001  -0.00000  -0.00002  -0.00002   1.87541
    A4        2.20955   0.00002  -0.00002   0.00009   0.00007   2.20962
    A5        1.87600   0.00004   0.00001   0.00002   0.00004   1.87604
    A6        1.87933  -0.00001  -0.00000   0.00001   0.00000   1.87933
    A7        2.28556  -0.00001  -0.00001  -0.00005  -0.00006   2.28550
    A8        2.21029   0.00002  -0.00002   0.00007   0.00005   2.21033
    A9        2.28431  -0.00001  -0.00001  -0.00002  -0.00003   2.28428
   A10        2.18566  -0.00000   0.00004  -0.00002   0.00003   2.18568
    D4        3.14232  -0.00001   0.00038   0.00009   0.00048   3.14279
    D5        0.00229   0.00008  -0.00016  -0.00026  -0.00042   0.00187
    D6       -0.00086   0.00019   0.00003   0.00052   0.00055  -0.00031
    D7       -3.13319  -0.00004   0.00013  -0.00063  -0.00050  -3.13369
    D8       -3.14597  -0.00000  -0.00027   0.00016  -0.00011  -3.14608
    D9       -3.14946   0.00004  -0.00005   0.00030   0.00025  -3.14921
   D10       -3.11502  -0.00004  -0.00195   0.00000  -0.00195  -3.11697
         Item               Value     Threshold  Converged?
 Maximum Force            0.000194     0.000450     YES
 RMS     Force            0.000047     0.000300     YES
 Maximum Displacement     0.001947     0.001800     NO 
 RMS     Displacement     0.000449     0.001200     YES
 Predicted change in Energy=-9.678813D-08
 GradGradGradGradGradGradGradGradGradGradGradGradGradGradGradGradGradGrad

 ---------------------------------------------------------------------------------------------------
                            Z-MATRIX (ANGSTROMS AND DEGREES)
   CD    Cent   Atom    N1       Length/X        N2       Alpha/Y        N3        Beta/Z          J
 ---------------------------------------------------------------------------------------------------
      1      1  C 
      2      2  C        1   1.420762(     1)
      3      3  C        1   1.373106(     2)      2  107.453(    10)
      4      4  H        1   1.077219(     3)      2  126.602(    11)      3  180.069(    18)      0
      5      5  C        2   1.372415(     4)      1  107.489(    12)      3    0.107(    19)      0
      6      6  N        3   1.373224(     5)      1  107.678(    13)      2   -0.018(    20)      0
      7      7  H        3   1.076762(     6)      1  130.950(    14)      6 -179.547(    21)      0
      8      8  H        2   1.077167(     7)      1  126.643(    15)      5 -180.257(    22)      0
      9      9  H        5   1.076632(     8)      2  130.880(    16)      1 -180.436(    23)      0
     10     10  H        6   1.002791(     9)      3  125.230(    17)      1 -178.589(    24)      0
 ---------------------------------------------------------------------------------------------------
                         Z-Matrix orientation:                         
 ---------------------------------------------------------------------
 Center     Atomic      Atomic             Coordinates (Angstroms)
 Number     Number       Type             X           Y           Z
 ---------------------------------------------------------------------
      1          6           0        0.000000    0.000000    0.000000
      2          6           0        0.000000    0.000000    1.420762
      3          6           0        1.309891    0.000000   -0.411834
      4          1           0       -0.864790    0.001037   -0.642292
      5          6           0        1.308971    0.002445    1.833208
      6          7           0        2.100108    0.000404    0.711242
      7          1           0        1.739193    0.006172   -1.399294
      8          1           0       -0.864287    0.002263    2.063640
      9          1           0        1.736384    0.009443    2.821340
     10          1           0        3.102693    0.020665    0.713120
 ---------------------------------------------------------------------
                    Distance matrix (angstroms):
                    1          2          3          4          5
     1  C    0.000000
     2  C    1.420762   0.000000
     3  C    1.373106   2.252603   0.000000
     4  H    1.077219   2.236975   2.186858   0.000000
     5  C    2.252568   1.372415   2.245043   3.294441   0.000000
     6  N    2.217278   2.216726   1.373224   3.259244   1.372847
     7  H    2.232231   3.313238   1.076762   2.711790   3.261008
     8  H    2.237321   1.077167   3.294696   2.705933   2.185441
     9  H    3.312866   2.230861   3.261196   4.331620   1.076632
    10  H    3.183657   3.182434   2.116621   4.192665   2.114797
                    6          7          8          9         10
     6  N    0.000000
     7  H    2.141181   0.000000
     8  H    3.258316   4.332440   0.000000
     9  H    2.141236   4.220637   2.708810   0.000000
    10  H    1.002791   2.514286   4.190605   2.512273   0.000000
 Symmetry turned off by external request.
 Stoichiometry    C4H5N
 Framework group  C1[X(C4H5N)]
 Deg. of freedom    24
 Full point group                 C1      NOp   1
 Rotational constants (GHZ):           9.1854722           9.0602133           4.5612431
 Standard basis: def2TZVP (5D, 7F)
 The following finite field(s) will be applied:
 An electric field of              0.0048 -0.0008 -0.0010
   185 basis functions,   295 primitive gaussians,   210 cartesian basis functions
    18 alpha electrons       18 beta electrons
       nuclear repulsion energy       161.2134283274 Hartrees.
 NAtoms=   10 NActive=   10 NUniq=   10 SFac= 1.00D+00 NAtFMM=   60 NAOKFM=F Big=F
 Integral buffers will be    131072 words long.
 Raffenetti 2 integral format.
 Two-electron integral symmetry is turned off.
 One-electron integrals computed using PRISM.
   1 Symmetry operations used in ECPInt.
 ECPInt:  NShTT=    2850 NPrTT=    8640 LenC2=    2844 LenP2D=    7462.
 LDataN:  DoStor=T MaxTD1= 6 Len=  172
 NBasis=   185 RedAO= T EigKep=  5.52D-05  NBF=   185
 NBsUse=   185 1.00D-06 EigRej= -1.00D+00 NBFU=   185
 The nuclear repulsion energy is now       161.4851399085 hartrees.
 Initial guess from the checkpoint file:  "checkpoint.chk"
 B after Tr=     0.000033    0.000434   -0.000010
         Rot=    1.000000   -0.000084    0.000008    0.000210 Ang=  -0.03 deg.
 Keep R1 ints in memory in canonical form, NReq=160464041.
 Requested convergence on RMS density matrix=1.00D-08 within 128 cycles.
 Requested convergence on MAX density matrix=1.00D-06.
 Requested convergence on             energy=1.00D-06.
 No special actions if energy rises.
 SCF Done:  E(RB3LYP) =  -210.250550570     A.U. after    6 cycles
            NFock=  6  Conv=0.40D-08     -V/T= 2.0051
   1 Symmetry operations used in ECPInt.
 ECPInt:  NShTT=    2850 NPrTT=    8640 LenC2=    2844 LenP2D=    7462.
 LDataN:  DoStor=T MaxTD1= 7 Len=  274
 Calling FoFJK, ICntrl=      2127 FMM=F ISym2X=0 I1Cent= 0 IOpClX= 0 NMat=1 NMatS=1 NMatT=0.
 -------------------------------------------------------------------
 Center     Atomic                   Forces (Hartrees/Bohr)
 Number     Number              X              Y              Z
 -------------------------------------------------------------------
      1        6           0.000287472   -0.000344941    0.000012850
      2        6          -0.000297173    0.000078791   -0.000011864
      3        6           0.000009770    0.000308087   -0.000000093
      4        1           0.000003905    0.000003656   -0.000005323
      5        6          -0.000000421    0.000038801    0.000006744
      6        7          -0.000006715   -0.000019919   -0.000004928
      7        1          -0.000001512   -0.000032838    0.000000228
      8        1           0.000002719   -0.000004568    0.000005978
      9        1          -0.000000712   -0.000025812   -0.000000481
     10        1           0.000002668   -0.000001258   -0.000003111
[...]
 Rotational               0.889              2.981             24.252
 Vibrational             52.274              9.067              3.388
 Vibration     1          0.765              1.472              0.966
                       Q            Log10(Q)             Ln(Q)
 Total Bot       0.254898D-25        -25.593633        -58.931518
 Total V=0       0.145456D+13         12.162733         28.005727
 Vib (Bot)       0.265207D-37        -37.576416        -86.522894
 Vib (Bot)    1  0.447017D+00         -0.349676         -0.805158
 Vib (V=0)       0.151339D+01          0.179950          0.414350
 Vib (V=0)    1  0.117069D+01          0.068442          0.157593
 Electronic      0.100000D+01          0.000000          0.000000
 Translational   0.215763D+08          7.333976         16.887104
 Rotational      0.445458D+05          4.648806         10.704272
 -------------------------------------------------------------------
 Center     Atomic                   Forces (Hartrees/Bohr)
 Number     Number              X              Y              Z
 -------------------------------------------------------------------
      1        6           0.000287431   -0.000344942    0.000012854
      2        6          -0.000297145    0.000078792   -0.000011854
      3        6           0.000009850    0.000308089   -0.000000020
      4        1           0.000003885    0.000003655   -0.000005337
      5        6          -0.000000344    0.000038802    0.000006645
      6        7          -0.000006724   -0.000019917   -0.000004859
      7        1          -0.000001513   -0.000032840    0.000000203
      8        1           0.000002697   -0.000004566    0.000005989
      9        1          -0.000000731   -0.000025815   -0.000000503
     10        1           0.000002593   -0.000001258   -0.000003119
 -------------------------------------------------------------------
 Cartesian Forces:  Max     0.000344942 RMS     0.000114794
 -----------------------------------------------------------------------------------------------
                       Internal Coordinate Forces (Hartree/Bohr or radian)
  Cent   Atom   N1       Length/X         N2         Alpha/Y        N3         Beta/Z          J
 -----------------------------------------------------------------------------------------------
      1  C 
      2  C        1   0.000000(     1)
      3  C        1   0.000006(     2)      2   0.000028(    10)
      4  H        1   0.000000(     3)      2   0.000013(    11)      3   0.000006(    18)     0
      5  C        2   0.000001(     4)      1   0.000017(    12)      3   0.000019(    19)     0
      6  N        3  -0.000009(     5)      1   0.000009(    13)      2   0.000003(    20)     0
      7  H        3  -0.000001(     6)      1  -0.000002(    14)      6  -0.000050(    21)     0
      8  H        2   0.000001(     7)      1   0.000013(    15)      5   0.000007(    22)     0
      9  H        5  -0.000001(     8)      2  -0.000001(    16)      1   0.000040(    23)     0
     10  H        6   0.000003(     9)      3  -0.000006(    17)      1  -0.000002(    24)     0
 -----------------------------------------------------------------------------------------------
 Internal  Forces:  Max     0.000050471 RMS     0.000016128

 GradGradGradGradGradGradGradGradGradGradGradGradGradGradGradGradGradGrad
 Berny optimization.
 Search for a local minimum.
 Step number   1 out of a maximum of    2
 All quantities printed in internal units (Hartrees-Bohrs-Radians)
 Second derivative matrix not updated -- analytic derivatives used.
 ITU=  0
     Eigenvalues ---    0.01357   0.02719   0.03246   0.04797   0.05066
     Eigenvalues ---    0.15880   0.17211   0.19286   0.19988   0.20471
     Eigenvalues ---    0.21515   0.31749   0.36396   0.37047   0.37154
     Eigenvalues ---    0.37271   0.39654   0.45074   0.47912   0.50546
     Eigenvalues ---    0.54687   1.11020   2.27615  12.77035
 Angle between quadratic step and forces=  37.86 degrees.
 Linear search not attempted -- first point.
 Variable       Old X    -DE/DX   Delta X   Delta X   Delta X     New X
                                 (Linear)    (Quad)   (Total)
    R2        2.68485   0.00000   0.00000  -0.00002  -0.00002   2.68483
    R3        2.59479   0.00001   0.00000   0.00001   0.00001   2.59481
    R4        2.03565   0.00000   0.00000   0.00000   0.00000   2.03565
    R5        2.59349   0.00000   0.00000   0.00001   0.00001   2.59350
    R6        2.59502  -0.00001   0.00000  -0.00002  -0.00002   2.59500
    R7        2.03479  -0.00000   0.00000  -0.00000  -0.00000   2.03478
    R8        2.03555   0.00000   0.00000   0.00000   0.00000   2.03556
    R9        2.03454  -0.00000   0.00000  -0.00000  -0.00000   2.03454
   R10        1.89500   0.00000   0.00000   0.00001   0.00001   1.89501
    A3        1.87541   0.00003   0.00000   0.00000   0.00000   1.87542
    A4        2.20962   0.00001   0.00000   0.00007   0.00007   2.20969
    A5        1.87604   0.00002   0.00000  -0.00000  -0.00000   1.87604
    A6        1.87933   0.00001   0.00000   0.00000   0.00000   1.87933
    A7        2.28550  -0.00000   0.00000  -0.00001  -0.00001   2.28549
    A8        2.21033   0.00001   0.00000   0.00007   0.00007   2.21040
    A9        2.28428  -0.00000   0.00000  -0.00000  -0.00000   2.28428
   A10        2.18568  -0.00001   0.00000  -0.00003  -0.00003   2.18566
    D4        3.14279   0.00001   0.00000   0.00026   0.00026   3.14306
    D5        0.00187   0.00002   0.00000  -0.00021  -0.00021   0.00166
    D6       -0.00031   0.00000   0.00000   0.00035   0.00035   0.00005
    D7       -3.13369  -0.00005   0.00000  -0.00155  -0.00155  -3.13524
    D8       -3.14608   0.00001   0.00000   0.00024   0.00024  -3.14584
    D9       -3.14921   0.00004   0.00000   0.00095   0.00095  -3.14826
   D10       -3.11697  -0.00000   0.00000  -0.00016  -0.00016  -3.11713
         Item               Value     Threshold  Converged?
 Maximum Force            0.000050     0.000450     YES
 RMS     Force            0.000016     0.000300     YES
 Maximum Displacement     0.001548     0.001800     YES
 RMS     Displacement     0.000389     0.001200     YES
 Predicted change in Energy=-5.941191D-08
 Optimization completed.
    -- Stationary point found.
                       ----------------------------
                       !   Optimized Parameters   !
                       ! (Angstroms and Degrees)  !
 ----------------------                            ----------------------
 !      Name          Value   Derivative information (Atomic Units)     !
 ------------------------------------------------------------------------
 !       R2          1.4208   -DE/DX =    0.0                           !
 !       R3          1.3731   -DE/DX =    0.0                           !
 !       R4          1.0772   -DE/DX =    0.0                           !
 !       R5          1.3724   -DE/DX =    0.0                           !
 !       R6          1.3732   -DE/DX =    0.0                           !
 !       R7          1.0768   -DE/DX =    0.0                           !
 !       R8          1.0772   -DE/DX =    0.0                           !
 !       R9          1.0766   -DE/DX =    0.0                           !
 !       R10         1.0028   -DE/DX =    0.0                           !
 !       A3        107.4533   -DE/DX =    0.0                           !
 !       A4        126.6018   -DE/DX =    0.0                           !
 !       A5        107.4892   -DE/DX =    0.0                           !
 !       A6        107.6776   -DE/DX =    0.0                           !
 !       A7        130.9497   -DE/DX =    0.0                           !
 !       A8        126.6427   -DE/DX =    0.0                           !
 !       A9        130.8797   -DE/DX =    0.0                           !
 !       A10       125.2304   -DE/DX =    0.0                           !
 !       D4        180.0687   -DE/DX =    0.0                           !
 !       D5          0.107    -DE/DX =    0.0                           !
 !       D6         -0.0177   -DE/DX =    0.0                           !
 !       D7       -179.5475   -DE/DX =   -0.0001                        !
 !       D8       -180.257    -DE/DX =    0.0                           !
 !       D9       -180.4364   -DE/DX =    0.0                           !
 !       D10      -178.5891   -DE/DX =    0.0                           !
 ------------------------------------------------------------------------
 GradGradGradGradGradGradGradGradGradGradGradGradGradGradGradGradGradGrad


 ----------------------------------------------------------------------

 Electric dipole moment (input orientation):
 (Debye = 10**-18 statcoulomb cm , SI units = C m)
                  (au)            (Debye)         (10**-30 SI)
   Tot        0.473188D+00      0.120272D+01      0.401186D+01
   x          0.467015D+00      0.118703D+01      0.395952D+01
   y          0.435341D-01      0.110653D+00      0.369097D+00
   z          0.625183D-01      0.158906D+00      0.530052D+00

 Dipole polarizability, Alpha (input orientation).
 (esu units = cm**3 , SI units = C**2 m**2 J**-1)
 Alpha(0;0):
               (au)            (10**-24 esu)      (10**-40 SI)
   iso        0.498480D+02      0.738671D+01      0.821882D+01
   aniso      0.256416D+02      0.379969D+01      0.422773D+01
   xx         0.573448D+02      0.849762D+01      0.945488D+01
   yx         0.521053D-01      0.772121D-02      0.859101D-02
   yy         0.327951D+02      0.485974D+01      0.540718D+01
   zx        -0.313518D-01     -0.464586D-02     -0.516921D-02
   zy         0.212248D-01      0.314519D-02      0.349949D-02
   zz         0.594040D+02      0.880276D+01      0.979439D+01

 ----------------------------------------------------------------------

 Dipole orientation:
     6          0.00000000          0.00000000          0.00000000
     6         -2.64982660         -0.24701056          0.35472641
     6          1.11365190         -0.12693284          2.34021939
     1          0.96963280          0.24468494         -1.77307955
     6         -3.07413007         -0.51252571          2.89945654
     7         -0.77256833         -0.44120029          4.09450561
     1          3.06765415         -0.00874560          2.89543039
     1         -4.07718503         -0.22353963         -1.09633020
     1         -4.80537855         -0.73597500          3.94454095
     1         -0.51465762         -0.55548057          5.96839169

 Electric dipole moment (dipole orientation):
 (Debye = 10**-18 statcoulomb cm , SI units = C m)
                  (au)            (Debye)         (10**-30 SI)
   Tot        0.473188D+00      0.120272D+01      0.401186D+01
   x          0.000000D+00      0.000000D+00      0.000000D+00
   y          0.000000D+00      0.000000D+00      0.000000D+00
   z          0.473188D+00      0.120272D+01      0.401186D+01

 Dipole polarizability, Alpha (dipole orientation).
 (esu units = cm**3 , SI units = C**2 m**2 J**-1)
 Alpha(0;0):
               (au)            (10**-24 esu)      (10**-40 SI)
   iso        0.498480D+02      0.738671D+01      0.821882D+01
   aniso      0.256416D+02      0.379969D+01      0.422773D+01
   xx         0.592035D+02      0.877305D+01      0.976134D+01
   yx         0.212609D+01      0.315054D+00      0.350545D+00
   yy         0.331656D+02      0.491464D+01      0.546827D+01
   zx        -0.630030D-01     -0.933608D-02     -0.103878D-01
   zy        -0.221031D+01     -0.327535D+00     -0.364432D+00
   zz         0.571748D+02      0.847243D+01      0.942685D+01

 ----------------------------------------------------------------------
 1\1\GINC-BHC0021\Freq\RB3LYP\def2TZVP\C4H5N1\DHANAWAY\10-Jun-2022\1\\#
 N Geom=AllCheck Guess=TCheck SCRF=Check GenChk RB3LYP/def2TZVP Freq\\i
 nt_zmat_initalOpt\\0,1\C\C,1,R2\C,1,R3,2,A3\H,1,R4,2,A4,3,D4,0\C,2,R5,
 1,A5,3,D5,0\N,3,R6,1,A6,2,D6,0\H,3,R7,1,A7,6,D7,0\H,2,R8,1,A8,5,D8,0\H
 ,5,R9,2,A9,1,D9,0\H,6,R10,3,A10,1,D10,0\\R2=1.42076208\R3=1.3731062\R4
 =1.07721941\R5=1.37241507\R6=1.37322362\R7=1.07676214\R8=1.07716725\R9
 =1.07663211\R10=1.00279109\A3=107.45330774\A4=126.60182078\A5=107.4891
 7049\A6=107.6776313\A7=130.94966929\A8=126.64267718\A9=130.87967833\A1
 0=125.2303982\D4=180.06873135\D5=0.1070188\D6=-0.01767891\D7=-179.5474
 7157\D8=-180.25704772\D9=-180.43639356\D10=-178.58912275\\Version=ES64
 L-G16RevA.03\HF=-210.2505506\RMSD=2.070e-09\RMSF=1.148e-04\ZeroPoint=0
 .0820848\Thermal=0.086136\Dipole=0.4670154,0.0435341,0.0625183\DipoleD
 eriv=-0.0941931,-0.0023214,-0.0004791,-0.0039734,-0.2273405,0.0017003,
 0.0327758,-0.0003252,0.0301316,-0.0988391,-0.0023067,-0.0129191,-0.005
 0578,-0.2226192,0.0003133,-0.0326652,0.0007221,0.0138024,0.29611,0.000
 9627,0.0989677,-0.0000294,-0.1719407,-0.0084509,0.1946298,-0.0029799,-
 0.1105151,0.0301629,-0.0003104,-0.0599136,0.0003303,0.1751946,-0.00068
 64,-0.0667609,-0.0003345,0.0302761,0.297667,0.0012658,-0.0842024,-0.00
 17048,-0.1638143,0.0057418,-0.1937008,0.0021579,-0.106385,-0.705426,0.
 0058444,-0.0023646,0.0215519,-0.2423217,0.0004796,-0.0019657,0.0008524
 ,-0.0034015,0.0323162,-0.0004089,0.0684016,-0.0010566,0.1893177,0.0031
 412,0.0537459,0.0004296,-0.0354547,0.0369394,-0.0002513,0.0539628,0.00
 11507,0.1759026,-0.0001059,0.0607421,0.000162,0.0367718,0.0372389,-0.0
 005266,-0.0625411,-0.0005793,0.1897494,-0.0020218,-0.0479158,-0.000571
 7,-0.0173304,0.1680239,-0.0019476,0.0010878,-0.0106316,0.297872,-0.000
 1111,0.0011148,-0.0001128,0.1621047\Polar=57.3448153,0.0521053,32.7951
 203,-0.0313518,0.0212248,59.4039549\PG=C01 [X(C4H5N1)]\NImag=0\\0.7949
 8142,-0.00009549,0.11772442,0.11926130,-0.00021718,0.61913126,-0.11240
 721,0.00014899,0.01705488,0.79687395,0.00009650,-0.06068085,-0.0001209
 9,-0.00002335,0.11883039,-0.01639230,0.00008500,-0.27506759,-0.1193434
 0,0.00082274,0.62006185,-0.35334329,0.00016358,0.06605130,0.00094034,-
 0.00006259,0.07539990,0.66842291,-0.00050276,-0.06157675,0.00063242,-0
 .00033483,0.01115332,-0.00024561,0.00189585,0.10615564,0.08322130,0.00
 037224,-0.12441811,0.01809526,-0.00018634,-0.03617244,-0.13109664,-0.0
 0216825,0.78222268,-0.24950910,0.00027808,-0.14074608,0.00711276,-0.00
 001627,0.00334307,-0.01134009,0.00001527,-0.01897695,0.25775154,0.0003
 0078,-0.02677085,0.00025073,-0.00000053,-0.00035777,0.00001431,0.00003
 217,-0.00127123,-0.00005258,-0.00026120,0.02210569,-0.14269531,0.00016
 363,-0.16271956,-0.02378029,0.00001344,-0.00658205,0.00915891,-0.00002
 018,0.01103850,0.15381208,-0.00017625,0.16306161,0.00111767,-0.0001763
 7,-0.07587184,-0.35437425,-0.00028637,-0.06631257,-0.01382088,0.000471
 53,0.01287113,0.00012289,-0.00005026,0.00061948,0.66971846,-0.00027632
 ,0.01113743,0.00016109,-0.00091865,-0.06270659,-0.00078167,0.00037714,
 0.01663893,0.00029364,0.00000769,0.00347489,-0.00000094,0.00228311,0.1
 0864674,-0.01868117,0.00005261,-0.03528363,-0.08437484,-0.00053623,-0.
 12599485,-0.01201615,-0.00053351,-0.09284005,0.00195966,0.00002657,-0.
 00618526,0.13236157,0.00313430,0.78504797,-0.08554635,-0.00004643,-0.0
 0050108,-0.08554789,-0.00001933,0.00036649,-0.16631460,-0.00064118,-0.
 08665174,-0.00472747,-0.00002964,0.00405382,-0.16652662,-0.00045938,0.
 08653900,0.94962529,0.00045385,0.01384041,-0.00082293,0.00045667,0.013
 85851,0.00080305,-0.00191434,-0.04989417,-0.00035343,-0.00004557,0.004
 42566,0.00001846,-0.00170604,-0.05051621,-0.00001857,0.01131578,0.0698
 8184,-0.04239129,-0.00037542,-0.00926324,0.04319194,0.00036334,-0.0077
 1220,-0.09201099,0.00127443,-0.24216886,0.00185611,-0.00009302,-0.0003
 3869,0.09090165,-0.00157204,-0.24284470,0.00073987,0.00052498,0.613155
 61,0.00299899,-0.00015306,0.02377686,-0.00569794,-0.00000450,0.0019241
 0,-0.11063665,-0.00078340,0.11577895,0.00040186,0.00001479,-0.00085929
 ,-0.00457315,-0.00001475,-0.00251861,0.01283002,0.00014616,-0.02365788
 ,0.10267315,0.00013644,0.00023790,-0.00014033,0.00005203,0.00462752,0.
 00006178,-0.00101330,-0.01835261,0.00196947,-0.00001191,-0.00302669,-0
 .00000451,-0.00008799,0.00169309,0.00001016,0.00007762,-0.00437157,-0.
 00011059,0.00079349,0.01718412,-0.00080646,-0.00000868,0.00006832,0.00
 090082,0.00004049,0.00078352,0.10685006,0.00167009,-0.30263063,0.00049
 753,-0.00001589,-0.00006859,-0.00447809,-0.00000535,-0.00100549,0.0126
 5571,0.00011031,-0.01891884,-0.11612907,-0.00178515,0.32222238,0.00727
 615,-0.00002488,-0.00346081,-0.24975890,0.00052133,0.14100878,0.000100
 22,0.00000910,-0.00202089,-0.00006809,-0.00000493,0.00069872,-0.011417
 38,0.00006902,0.01893523,-0.00470082,-0.00005641,-0.00183255,0.0005143
 0,0.00000671,-0.00004518,0.25787484,-0.00000809,-0.00031276,0.00000209
 ,0.00064487,-0.02733186,-0.00051816,-0.00003547,0.00342163,-0.00002695
 ,-0.00000597,-0.00227623,-0.00000245,-0.00004184,-0.00096583,0.0001026
 2,-0.00002945,0.00445602,0.00005817,0.00000804,0.00126579,0.00000866,-
 0.00053801,0.02240647,0.02362460,-0.00005329,-0.00674267,0.14306958,-0
 .00037106,-0.16315754,-0.00069916,-0.00000136,-0.00610386,-0.00068993,
 0.00000753,0.00087421,-0.00911891,0.00004391,0.01111523,-0.00410246,-0
 .00003085,-0.00025426,0.00142217,-0.00000402,0.00003891,-0.15390242,0.
 00040972,0.16342334,-0.00562376,-0.00002209,-0.00193412,0.00287021,-0.
 00014161,-0.02372428,-0.00455767,-0.00000790,0.00254129,0.00048830,0.0
 0000590,-0.00142924,-0.11053449,-0.00092336,-0.11591982,0.01279880,0.0
 0017722,0.02386947,0.00085982,-0.00001170,0.00076242,0.00042197,0.0000
 1625,0.00083320,0.10262359,0.00002594,0.00459043,-0.00004488,0.0001103
 2,0.00072776,0.00007213,-0.00005653,0.00174314,0.00000303,0.00000786,0
 .00123011,0.00000146,-0.00107826,-0.01956714,-0.00213221,0.00005502,-0
 .00414466,0.00003660,-0.00001402,0.00232935,0.00000824,-0.00001263,-0.
 00309444,0.00000930,0.00090250,0.01780032,-0.00081454,-0.00004154,0.00
 080040,0.00075054,0.00001063,0.00027650,0.00438329,0.00000361,-0.00088
 405,0.00003827,-0.00001056,0.00005965,-0.10700665,-0.00193566,-0.30410
 387,-0.01233286,-0.00011543,-0.01873784,-0.00073341,-0.00001732,-0.000
 56282,-0.00047224,0.00001927,-0.00006835,0.11598233,0.00206249,0.32314
 268,0.00005547,-0.00007233,-0.00363041,-0.00001107,-0.00006381,0.00373
 021,-0.00945031,-0.00012167,0.00623830,-0.00023261,-0.00000708,0.00042
 112,-0.00971225,-0.00014449,-0.00628489,-0.46189036,-0.00882731,-0.000
 66634,0.00062959,0.00005860,-0.00020773,-0.00024230,-0.00001034,-0.000
 43665,0.00065321,0.00005980,0.00020527,0.48020063,-0.00013085,0.001810
 64,0.00029997,-0.00013553,0.00187958,-0.00031357,0.00061349,-0.0080178
 9,0.00014918,0.00003202,0.00246643,0.00000736,0.00067250,-0.00783532,-
 0.00010573,-0.01022300,0.00246417,-0.00010645,0.00000725,-0.00158690,-
 0.00002272,0.00003070,0.00243122,-0.00000988,0.00000479,-0.00161487,0.
 00002451,0.00912864,0.00800294,-0.00432613,0.00002263,-0.00650519,0.00
 443550,-0.00003601,-0.00643519,-0.02602052,-0.00061163,0.01195682,-0.0
 0109376,0.00004917,0.00086017,0.02603424,0.00066272,0.01209465,-0.0007
 6674,-0.00011560,-0.07291697,0.00099618,0.00002052,0.00007324,0.001091
 36,-0.00005297,0.00087500,-0.00098124,-0.00001616,0.00007771,0.0006311
 2,0.00007733,0.05991976\\-0.00028743,0.00034494,-0.00001285,0.00029715
 ,-0.00007879,0.00001185,-0.00000985,-0.00030809,0.00000002,-0.00000389
 ,-0.00000365,0.00000534,0.00000034,-0.00003880,-0.00000665,0.00000672,
 0.00001992,0.00000486,0.00000151,0.00003284,-0.00000020,-0.00000270,0.
 00000457,-0.00000599,0.00000073,0.00002581,0.00000050,-0.00000259,0.00
 000126,0.00000312\\\@


 WHEN YOU REACH FOR THE STARS, YOU MAY NOT QUITE GET ONE,
 BUT YOU WON'T COME UP WITH A HANDFUL OF MUD, EITHER.

                                         -- LEO BURNETT (AD AGENCY HEAD)
 Job cpu time:       0 days  0 hours 17 minutes  3.5 seconds.
 Elapsed time:       0 days  0 hours  1 minutes 26.0 seconds.
 File lengths (MBytes):  RWF=     34 Int=      0 D2E=      0 Chk=     32 Scr=      1
 Normal termination of Gaussian 16 at Fri Jun 10 02:12:16 2022.
