 Entering Gaussian System, Link 0=g16
 Input=ts_zmat_field_N50.gjf
 Output=ts_zmat_field_N50.out
 Initial command:
 /software/gaussian/g16-a03/l1.exe "/local_scratch/11171427/Gau-16472.inp" -scrdir="/local_scratch/11171427/"
 Entering Link 1 = /software/gaussian/g16-a03/l1.exe PID=     16473.
  
 Copyright (c) 1988,1990,1992,1993,1995,1998,2003,2009,2016,
            Gaussian, Inc.  All Rights Reserved.
  
 This is part of the Gaussian(R) 16 program.  It is based on
 the Gaussian(R) 09 system (copyright 2009, Gaussian, Inc.),
 the Gaussian(R) 03 system (copyright 2003, Gaussian, Inc.),
 the Gaussian(R) 98 system (copyright 1998, Gaussian, Inc.),
 the Gaussian(R) 94 system (copyright 1995, Gaussian, Inc.),
 the Gaussian 92(TM) system (copyright 1992, Gaussian, Inc.),
 the Gaussian 90(TM) system (copyright 1990, Gaussian, Inc.),
 the Gaussian 88(TM) system (copyright 1988, Gaussian, Inc.),
 the Gaussian 86(TM) system (copyright 1986, Carnegie Mellon
 University), and the Gaussian 82(TM) system (copyright 1983,
 Carnegie Mellon University). Gaussian is a federally registered
 trademark of Gaussian, Inc.
  
 This software contains proprietary and confidential information,
 including trade secrets, belonging to Gaussian, Inc.
  
 This software is provided under written license and may be
 used, copied, transmitted, or stored only in accord with that
 written license.
  
 The following legend is applicable only to US Government
 contracts under FAR:
  
                    RESTRICTED RIGHTS LEGEND
  
 Use, reproduction and disclosure by the US Government is
 subject to restrictions as set forth in subparagraphs (a)
 and (c) of the Commercial Computer Software - Restricted
 Rights clause in FAR 52.227-19.
  
 Gaussian, Inc.
 340 Quinnipiac St., Bldg. 40, Wallingford CT 06492
  
  
 ---------------------------------------------------------------
 Warning -- This program may not be used in any manner that
 competes with the business of Gaussian, Inc. or will provide
 assistance to any competitor of Gaussian, Inc.  The licensee
 of this program is prohibited from giving any competitor of
 Gaussian, Inc. access to this program.  By using this program,
 the user acknowledges that Gaussian, Inc. is engaged in the
 business of creating and licensing software in the field of
 computational chemistry and represents and warrants to the
 licensee that it is not a competitor of Gaussian, Inc. and that
 it will not use this program in any manner prohibited above.
 ---------------------------------------------------------------
  

 Cite this work as:
 Gaussian 16, Revision A.03,
 M. J. Frisch, G. W. Trucks, H. B. Schlegel, G. E. Scuseria, 
 M. A. Robb, J. R. Cheeseman, G. Scalmani, V. Barone, 
 G. A. Petersson, H. Nakatsuji, X. Li, M. Caricato, A. V. Marenich, 
 J. Bloino, B. G. Janesko, R. Gomperts, B. Mennucci, H. P. Hratchian, 
 J. V. Ortiz, A. F. Izmaylov, J. L. Sonnenberg, D. Williams-Young, 
 F. Ding, F. Lipparini, F. Egidi, J. Goings, B. Peng, A. Petrone, 
 T. Henderson, D. Ranasinghe, V. G. Zakrzewski, J. Gao, N. Rega, 
 G. Zheng, W. Liang, M. Hada, M. Ehara, K. Toyota, R. Fukuda, 
 J. Hasegawa, M. Ishida, T. Nakajima, Y. Honda, O. Kitao, H. Nakai, 
 T. Vreven, K. Throssell, J. A. Montgomery, Jr., J. E. Peralta, 
 F. Ogliaro, M. J. Bearpark, J. J. Heyd, E. N. Brothers, K. N. Kudin, 
 V. N. Staroverov, T. A. Keith, R. Kobayashi, J. Normand, 
 K. Raghavachari, A. P. Rendell, J. C. Burant, S. S. Iyengar, 
 J. Tomasi, M. Cossi, J. M. Millam, M. Klene, C. Adamo, R. Cammi, 
 J. W. Ochterski, R. L. Martin, K. Morokuma, O. Farkas, 
 J. B. Foresman, and D. J. Fox, Gaussian, Inc., Wallingford CT, 2016.
 
 ******************************************
 Gaussian 16:  ES64L-G16RevA.03 25-Dec-2016
                10-Jun-2022 
 ******************************************
 %nprocshared=12
 Will use up to   12 processors via shared memory.
 %chk=checkpoint.chk
 %mem=12GB
 ----------------------------------------------------------------------
 # Opt=(TS, CalcFC, noeigentest, Z-matrix, MaxStep=10) geom=allcheckpoi
 nt guess=read Field=read NoSymm B3LYP/Def2TZVP freq=noraman pop=none
 ----------------------------------------------------------------------
 1/5=1,8=10,10=4,11=1,18=40,26=3,29=7,38=1/1,3;
 2/12=2,15=1,29=3,40=1/2;
 3/5=44,7=101,11=2,14=-6,25=1,30=1,71=2,74=-5,116=-2,140=1/1,2,3;
 4/5=1/1;
 5/5=2,38=6/2;
 8/6=4,10=90,11=11/1;
 11/6=1,8=1,9=11,15=111,16=1,31=1/1,2,10;
 10/6=1,13=1,31=1/2;
 7/10=1,18=20,25=1,30=1/1,2,3,16;
 1/5=1,8=10,10=4,11=1,18=40,26=3/3(2);
 2/15=1,29=3/2;
 99//99;
 2/15=1,29=3/2;
 3/5=44,7=101,11=2,14=-2,25=1,30=1,71=1,74=-5/1,2,3;
 4/5=5,16=3,69=1/1;
 5/5=2,38=5/2;
 7/30=1/1,2,3,16;
 1/5=1,8=10,11=1,18=40,26=3/3(-5);
 2/15=1,29=3/2;
 99/9=1/99;
 Structure from the checkpoint file:  "checkpoint.chk"
 -----------------
 ts_zmat_initalOpt
 -----------------
 Charge =  0 Multiplicity = 1
 Z-Matrix found in chk file.
 C
 C,1,R2
 C,1,R3,2,A3
 H,1,R4,2,A4,3,D4,0
 C,3,R5,1,A5,2,D5,0
 H,2,R6,1,A6,3,D6,0
 C,2,R7,1,A7,6,D7,0
 H,3,R8,1,A8,5,D8,0
 C,5,R9,3,A9,1,D9,0
 H,5,R10,3,A10,9,D10,0
 C,5,R11,3,A11,9,D11,0
 H,7,R12,2,A12,1,D12,0
 H,7,R13,2,A13,12,D13,0
 C,9,R14,5,A14,3,D14,0
 H,9,R15,5,A15,14,D15,0
 H,9,R16,5,A16,14,D16,0
 H,11,R17,5,A17,3,D17,0
 H,11,R18,5,A18,17,D18,0
 N,14,R19,9,A19,5,D19,0
 C,14,R20,9,A20,19,D20,0
 O,19,R21,14,A21,9,D21,0
 O,20,R22,14,A22,9,D22,0
 O,20,R23,14,A23,22,D23,0
 C,23,R24,20,A24,14,D24,0
 H,24,R25,23,A25,20,D25,0
 H,24,R26,23,A26,25,D26,0
 H,24,R27,23,A27,25,D27,0
      Variables:
 R2=1.39900342
 R3=1.3680235
 R4=1.08161277
 R5=1.48410112
 R6=1.08418604
 R7=1.50024325
 R8=1.08108557
 R9=1.58535786
 R10=1.0892465
 R11=1.5404604
 R12=1.09099322
 R13=1.09639858
 R14=1.49202003
 R15=1.08816433
 R16=1.09084343
 R17=1.09048018
 R18=1.09112621
 R19=1.36579837
 R20=1.47498654
 R21=1.25181516
 R22=1.2143537
 R23=1.34947886
 R24=1.43158116
 R25=1.08734922
 R26=1.09018151
 R27=1.09018841
 A3=116.68765273
 A4=120.89195728
 A5=117.34566066
 A6=118.99186953
 A7=120.35893355
 A8=121.45520657
 A9=110.24617936
 A10=111.27444455
 A11=108.79271231
 A12=110.8549909
 A13=106.76575335
 A14=115.26505947
 A15=107.7719755
 A16=106.68582308
 A17=109.61295676
 A18=109.29632618
 A19=118.92984115
 A20=120.15010127
 A21=113.27187005
 A22=123.54484738
 A23=113.99021315
 A24=115.37809883
 A25=105.41619525
 A26=110.84626917
 A27=110.99121205
 D4=165.32772572
 D5=-2.85667435
 D6=-160.47353831
 D7=-158.28364183
 D8=177.17488798
 D9=72.35428123
 D10=119.04633413
 D11=-119.14093432
 D12=-148.48463561
 D13=-114.43440163
 D14=-41.8532454
 D15=-123.16352253
 D16=118.98853938
 D17=-178.77577833
 D18=117.29343391
 D19=81.5408751
 D20=158.49388855
 D21=-11.16781527
 D22=10.16335494
 D23=178.98915125
 D24=179.12395944
 D25=-179.42692053
 D26=119.5535109
 D27=-119.59071582
 Recover connectivity data from disk.

 GradGradGradGradGradGradGradGradGradGradGradGradGradGradGradGradGradGrad
 Berny optimization.
 Initialization pass.
                       ----------------------------
                       !    Initial Parameters    !
                       ! (Angstroms and Degrees)  !
 ----------------------                            ----------------------
 !      Name          Value   Derivative information (Atomic Units)     !
 ------------------------------------------------------------------------
 !       R2          1.399    calculate D2E/DX2 analytically            !
 !       R3          1.368    calculate D2E/DX2 analytically            !
 !       R4          1.0816   calculate D2E/DX2 analytically            !
 !       R5          1.4841   calculate D2E/DX2 analytically            !
 !       R6          1.0842   calculate D2E/DX2 analytically            !
 !       R7          1.5002   calculate D2E/DX2 analytically            !
 !       R8          1.0811   calculate D2E/DX2 analytically            !
 !       R9          1.5854   calculate D2E/DX2 analytically            !
 !       R10         1.0892   calculate D2E/DX2 analytically            !
 !       R11         1.5405   calculate D2E/DX2 analytically            !
 !       R12         1.091    calculate D2E/DX2 analytically            !
 !       R13         1.0964   calculate D2E/DX2 analytically            !
 !       R14         1.492    calculate D2E/DX2 analytically            !
 !       R15         1.0882   calculate D2E/DX2 analytically            !
 !       R16         1.0908   calculate D2E/DX2 analytically            !
 !       R17         1.0905   calculate D2E/DX2 analytically            !
 !       R18         1.0911   calculate D2E/DX2 analytically            !
 !       R19         1.3658   calculate D2E/DX2 analytically            !
 !       R20         1.475    calculate D2E/DX2 analytically            !
 !       R21         1.2518   calculate D2E/DX2 analytically            !
 !       R22         1.2144   calculate D2E/DX2 analytically            !
 !       R23         1.3495   calculate D2E/DX2 analytically            !
 !       R24         1.4316   calculate D2E/DX2 analytically            !
 !       R25         1.0873   calculate D2E/DX2 analytically            !
 !       R26         1.0902   calculate D2E/DX2 analytically            !
 !       R27         1.0902   calculate D2E/DX2 analytically            !
 !       A3        116.6877   calculate D2E/DX2 analytically            !
 !       A4        120.892    calculate D2E/DX2 analytically            !
 !       A5        117.3457   calculate D2E/DX2 analytically            !
 !       A6        118.9919   calculate D2E/DX2 analytically            !
 !       A7        120.3589   calculate D2E/DX2 analytically            !
 !       A8        121.4552   calculate D2E/DX2 analytically            !
 !       A9        110.2462   calculate D2E/DX2 analytically            !
 !       A10       111.2744   calculate D2E/DX2 analytically            !
 !       A11       108.7927   calculate D2E/DX2 analytically            !
 !       A12       110.855    calculate D2E/DX2 analytically            !
 !       A13       106.7658   calculate D2E/DX2 analytically            !
 !       A14       115.2651   calculate D2E/DX2 analytically            !
 !       A15       107.772    calculate D2E/DX2 analytically            !
 !       A16       106.6858   calculate D2E/DX2 analytically            !
 !       A17       109.613    calculate D2E/DX2 analytically            !
 !       A18       109.2963   calculate D2E/DX2 analytically            !
 !       A19       118.9298   calculate D2E/DX2 analytically            !
 !       A20       120.1501   calculate D2E/DX2 analytically            !
 !       A21       113.2719   calculate D2E/DX2 analytically            !
 !       A22       123.5448   calculate D2E/DX2 analytically            !
 !       A23       113.9902   calculate D2E/DX2 analytically            !
 !       A24       115.3781   calculate D2E/DX2 analytically            !
 !       A25       105.4162   calculate D2E/DX2 analytically            !
 !       A26       110.8463   calculate D2E/DX2 analytically            !
 !       A27       110.9912   calculate D2E/DX2 analytically            !
 !       D4        165.3277   calculate D2E/DX2 analytically            !
 !       D5         -2.8567   calculate D2E/DX2 analytically            !
 !       D6       -160.4735   calculate D2E/DX2 analytically            !
 !       D7       -158.2836   calculate D2E/DX2 analytically            !
 !       D8        177.1749   calculate D2E/DX2 analytically            !
 !       D9         72.3543   calculate D2E/DX2 analytically            !
 !       D10       119.0463   calculate D2E/DX2 analytically            !
 !       D11      -119.1409   calculate D2E/DX2 analytically            !
 !       D12      -148.4846   calculate D2E/DX2 analytically            !
 !       D13      -114.4344   calculate D2E/DX2 analytically            !
 !       D14       -41.8532   calculate D2E/DX2 analytically            !
 !       D15      -123.1635   calculate D2E/DX2 analytically            !
 !       D16       118.9885   calculate D2E/DX2 analytically            !
 !       D17      -178.7758   calculate D2E/DX2 analytically            !
 !       D18       117.2934   calculate D2E/DX2 analytically            !
 !       D19        81.5409   calculate D2E/DX2 analytically            !
 !       D20       158.4939   calculate D2E/DX2 analytically            !
 !       D21       -11.1678   calculate D2E/DX2 analytically            !
 !       D22        10.1634   calculate D2E/DX2 analytically            !
 !       D23       178.9892   calculate D2E/DX2 analytically            !
 !       D24       179.124    calculate D2E/DX2 analytically            !
 !       D25      -179.4269   calculate D2E/DX2 analytically            !
 !       D26       119.5535   calculate D2E/DX2 analytically            !
 !       D27      -119.5907   calculate D2E/DX2 analytically            !
 ------------------------------------------------------------------------
 Trust Radius=1.00D-01 FncErr=1.00D-07 GrdErr=1.00D-06 EigMax=2.50D+02 EigMin=1.00D-04
 Number of steps in this run=     85 maximum allowed number of steps=    150.
 Search for a saddle point of order  1.
 GradGradGradGradGradGradGradGradGradGradGradGradGradGradGradGradGradGrad

 ---------------------------------------------------------------------------------------------------
                            Z-MATRIX (ANGSTROMS AND DEGREES)
   CD    Cent   Atom    N1       Length/X        N2       Alpha/Y        N3        Beta/Z          J
 ---------------------------------------------------------------------------------------------------
      1      1  C 
      2      2  C        1   1.399003(     1)
      3      3  C        1   1.368023(     2)      2  116.688(    27)
      4      4  H        1   1.081613(     3)      2  120.892(    28)      3  165.328(    52)      0
      5      5  C        3   1.484101(     4)      1  117.346(    29)      2   -2.857(    53)      0
      6      6  H        2   1.084186(     5)      1  118.992(    30)      3 -160.474(    54)      0
      7      7  C        2   1.500243(     6)      1  120.359(    31)      6 -158.284(    55)      0
      8      8  H        3   1.081086(     7)      1  121.455(    32)      5  177.175(    56)      0
      9      9  C        5   1.585358(     8)      3  110.246(    33)      1   72.354(    57)      0
     10     10  H        5   1.089246(     9)      3  111.274(    34)      9  119.046(    58)      0
     11     11  C        5   1.540460(    10)      3  108.793(    35)      9 -119.141(    59)      0
     12     12  H        7   1.090993(    11)      2  110.855(    36)      1 -148.485(    60)      0
     13     13  H        7   1.096399(    12)      2  106.766(    37)     12 -114.434(    61)      0
     14     14  C        9   1.492020(    13)      5  115.265(    38)      3  -41.853(    62)      0
     15     15  H        9   1.088164(    14)      5  107.772(    39)     14 -123.164(    63)      0
     16     16  H        9   1.090843(    15)      5  106.686(    40)     14  118.989(    64)      0
     17     17  H       11   1.090480(    16)      5  109.613(    41)      3 -178.776(    65)      0
     18     18  H       11   1.091126(    17)      5  109.296(    42)     17  117.293(    66)      0
     19     19  N       14   1.365798(    18)      9  118.930(    43)      5   81.541(    67)      0
     20     20  C       14   1.474987(    19)      9  120.150(    44)     19  158.494(    68)      0
     21     21  O       19   1.251815(    20)     14  113.272(    45)      9  -11.168(    69)      0
     22     22  O       20   1.214354(    21)     14  123.545(    46)      9   10.163(    70)      0
     23     23  O       20   1.349479(    22)     14  113.990(    47)     22  178.989(    71)      0
     24     24  C       23   1.431581(    23)     20  115.378(    48)     14  179.124(    72)      0
     25     25  H       24   1.087349(    24)     23  105.416(    49)     20 -179.427(    73)      0
     26     26  H       24   1.090182(    25)     23  110.846(    50)     25  119.554(    74)      0
     27     27  H       24   1.090188(    26)     23  110.991(    51)     25 -119.591(    75)      0
 ---------------------------------------------------------------------------------------------------
                         Z-Matrix orientation:                         
 ---------------------------------------------------------------------
 Center     Atomic      Atomic             Coordinates (Angstroms)
 Number     Number       Type             X           Y           Z
 ---------------------------------------------------------------------
      1          6           0        0.000000    0.000000    0.000000
      2          6           0        0.000000    0.000000    1.399003
      3          6           0        1.222285    0.000000   -0.614416
      4          1           0       -0.897905   -0.235097   -0.555322
      5          6           0        2.422720    0.065699    0.255755
      6          1           0       -0.893784   -0.316970    1.924493
      7          6           0        0.973382    0.853417    2.157250
      8          1           0        1.314173   -0.091303   -1.687713
      9          6           0        2.633282   -1.315353    1.005234
     10          1           0        3.322533    0.260803   -0.326248
     11          6           0        2.213611    1.172057    1.307070
     12          1           0        1.246414    0.384044    3.103510
     13          1           0        0.442601    1.773550    2.428760
     14          6           0        1.390426   -1.948235    1.535227
     15          1           0        3.339531   -1.148871    1.816159
     16          1           0        3.063003   -2.004560    0.277036
     17          1           0        3.097885    1.246622    1.940826
     18          1           0        2.095491    2.131905    0.801801
     19          7           0        0.602723   -2.670852    0.685078
     20          6           0        1.250384   -2.209800    2.980065
     21          8           0        0.916609   -2.531568   -0.518715
     22          8           0        2.018620   -1.781161    3.817166
     23          8           0        0.172795   -2.956219    3.300613
     24          6           0        0.018851   -3.244719    4.694347
     25          1           0       -0.879459   -3.853178    4.766073
     26          1           0        0.881504   -3.792043    5.074824
     27          1           0       -0.095296   -2.327667    5.272704
 ---------------------------------------------------------------------
                    Distance matrix (angstroms):
                    1          2          3          4          5
     1  C    0.000000
     2  C    1.399003   0.000000
     3  C    1.368023   2.355385   0.000000
     4  H    1.081613   2.163537   2.134003   0.000000
     5  C    2.437068   2.679721   1.484101   3.431453   0.000000
     6  H    2.145459   1.084186   3.320283   2.481170   3.732334
     7  C    2.515853   1.500243   2.910739   3.470536   2.517292
     8  H    2.140972   3.356070   1.081086   2.489231   2.242898
     9  C    3.110438   2.969745   2.518796   4.008937   1.585358
    10  H    3.348684   3.752831   2.135907   4.255642   1.089246
    11  C    2.825283   2.506440   2.459380   3.889745   1.540460
    12  H    3.366424   2.146248   3.737786   4.285848   3.097539
    13  H    3.039778   2.098040   3.607534   3.838797   3.399937
    14  C    2.843558   2.397386   2.906003   3.541426   2.599732
    15  H    3.971247   3.556176   3.422035   4.941130   2.179583
    16  H    3.671103   3.828715   2.863772   4.417308   2.167115
    17  H    3.862352   3.382976   3.406053   4.938885   2.165616
    18  H    3.094994   3.048401   2.704289   4.050296   2.162048
    19  N    2.822421   2.829561   3.034138   3.118234   3.314426
    20  C    3.915030   2.991059   4.219513   4.584055   3.738198
    21  O    2.741910   3.305548   2.551751   2.927043   3.100640
    22  O    4.670987   3.618684   4.842065   5.478603   4.032100
    23  O    4.434313   3.519262   5.016783   4.839333   4.844100
    24  C    5.706614   4.624699   6.337145   6.120236   6.036434
    25  H    6.191598   5.192070   6.943628   6.434913   6.826781
    26  H    6.396130   5.354278   6.845668   6.893237   6.362463
    27  H    5.764418   4.520251   6.466237   6.244111   6.102325
                    6          7          8          9         10
     6  H    0.000000
     7  C    2.215918   0.000000
     8  H    4.239579   3.973961   0.000000
     9  C    3.779154   2.964114   3.238875   0.000000
    10  H    4.814249   3.469505   2.451749   2.175357   0.000000
    11  C    3.500617   1.537044   3.372505   2.540559   2.174356
    12  H    2.542036   1.090993   4.815222   3.035476   4.011072
    13  H    2.531894   1.096399   4.602462   4.045594   4.262919
    14  C    2.833755   2.900016   3.720396   1.492020   3.475338
    15  H    4.315640   3.118359   4.183018   1.088164   2.564640
    16  H    4.606326   4.008710   3.252568   1.090843   2.358639
    17  H    4.287016   2.171396   4.258869   2.766750   2.482324
    18  H    4.024077   2.175063   3.427943   3.494881   2.505823
    19  N    3.052285   3.837337   3.576363   2.462326   4.124894
    20  C    3.048687   3.183874   5.126426   2.571458   4.618375
    21  O    3.761812   4.315336   2.734869   2.597800   3.690914
    22  O    3.769372   3.284638   5.801341   2.915775   4.799759
    23  O    3.161793   4.057283   5.864630   3.743688   5.781367
    24  C    4.132397   4.913523   7.235508   4.916020   6.957684
    25  H    4.536469   5.691311   7.785568   5.737927   7.779030
    26  H    5.015213   5.486436   7.721048   5.075853   7.180234
    27  H    3.986352   4.579020   7.445490   5.165386   7.051950
                   11         12         13         14         15
    11  C    0.000000
    12  H    2.187151   0.000000
    13  H    2.180930   1.741300   0.000000
    14  C    3.235106   2.814210   3.943153   0.000000
    15  H    2.629368   2.896246   4.160291   2.125304   0.000000
    16  H    3.445771   4.122424   5.076469   2.093736   1.782574
    17  H    1.090480   2.350281   2.750684   3.645139   2.410876
    18  H    1.091126   3.012277   2.346797   4.205065   3.652403
    19  N    4.213050   3.949119   4.776900   1.365798   3.329548
    20  C    3.894056   2.596782   4.101649   1.474987   2.616253
    21  O    4.328110   4.661553   5.238924   2.187111   3.637861
    22  O    3.880734   2.407015   4.128859   2.372717   2.479641
    23  O    5.018148   3.514095   4.817015   2.369651   3.936791
    24  C    5.983186   4.147962   5.522270   3.679963   4.868619
    25  H    6.839939   5.023694   6.234656   4.384011   5.815079
    26  H    6.372815   4.632379   6.178196   4.023354   4.862833
    27  H    5.771080   3.722763   5.019694   4.039811   5.013511
                   16         17         18         19         20
    16  H    0.000000
    17  H    3.652342   0.000000
    18  H    4.280398   1.756672   0.000000
    19  N    2.581361   4.811377   5.030751   0.000000
    20  C    3.260993   4.054643   4.930460   2.428786   0.000000
    21  O    2.349035   5.008196   4.988136   1.251815   3.529362
    22  O    3.697723   3.721953   4.940690   3.550534   1.214354
    23  O    4.289636   5.298023   5.985802   2.665951   1.349479
    24  C    5.506131   6.102005   6.955029   4.092000   2.350849
    25  H    6.253946   7.057567   7.770907   4.499920   3.229048
    26  H    5.565321   6.334227   7.404434   4.539236   2.650959
    27  H    5.919117   5.837239   6.684033   4.653097   2.661004
                   21         22         23         24         25
    21  O    0.000000
    22  O    4.536231   0.000000
    23  O    3.914186   2.248257   0.000000
    24  C    5.337655   2.628788   1.431581   0.000000
    25  H    5.735982   3.686807   2.014782   1.087349   0.000000
    26  H    5.733908   2.630282   2.085353   1.090182   1.788869
    27  H    5.882691   2.624100   2.087126   1.090188   1.788511
                   26         27
    26  H    0.000000
    27  H    1.771353   0.000000
 Symmetry turned off by external request.
 Stoichiometry    C10H13NO3
 Framework group  C1[X(C10H13NO3)]
 Deg. of freedom    75
 Full point group                 C1      NOp   1
 Rotational constants (GHZ):           1.1748057           0.6023303           0.5188117
 Standard basis: def2TZVP (5D, 7F)
 The following finite field(s) will be applied:
 An electric field of             -0.0025 -0.0043  0.0007
   512 basis functions,   818 primitive gaussians,   582 cartesian basis functions
    52 alpha electrons       52 beta electrons
       nuclear repulsion energy       960.7596916218 Hartrees.
 NAtoms=   27 NActive=   27 NUniq=   27 SFac= 1.00D+00 NAtFMM=   60 NAOKFM=F Big=F
 Integral buffers will be    131072 words long.
 Raffenetti 2 integral format.
 Two-electron integral symmetry is turned off.
 One-electron integrals computed using PRISM.
   1 Symmetry operations used in ECPInt.
 ECPInt:  NShTT=   21321 NPrTT=   64608 LenC2=   20336 LenP2D=   46799.
 LDataN:  DoStor=T MaxTD1= 6 Len=  172
 NBasis=   512 RedAO= T EigKep=  1.94D-05  NBF=   512
 NBsUse=   512 1.00D-06 EigRej= -1.00D+00 NBFU=   512
 The nuclear repulsion energy is now       961.4173069017 hartrees.
 Initial guess from the checkpoint file:  "checkpoint.chk"
 B after Tr=     0.000000    0.000000   -0.000000
         Rot=    1.000000   -0.000000    0.000000    0.000000 Ang=   0.00 deg.
 Requested convergence on RMS density matrix=1.00D-08 within 128 cycles.
 Requested convergence on MAX density matrix=1.00D-06.
 Requested convergence on             energy=1.00D-06.
 No special actions if energy rises.
 SCF Done:  E(RB3LYP) =  -669.445220948     A.U. after   12 cycles
            NFock= 12  Conv=0.93D-08     -V/T= 2.0048
 DoSCS=F DFT=T ScalE2(SS,OS)=  1.000000  1.000000
 Range of M.O.s used for correlation:     1   512
 NBasis=   512 NAE=    52 NBE=    52 NFC=     0 NFV=     0
 NROrb=    512 NOA=    52 NOB=    52 NVA=   460 NVB=   460

 **** Warning!!: The largest alpha MO coefficient is  0.29096527D+02

   1 Symmetry operations used in ECPInt.
 ECPInt:  NShTT=   21321 NPrTT=   64608 LenC2=   20336 LenP2D=   46799.
 LDataN:  DoStor=T MaxTD1= 7 Len=  274
 Number of processors reduced to  10 by ecpmxn.
 Symmetrizing basis deriv contribution to polar:
 IMax=3 JMax=2 DiffMx= 0.00D+00
 G2DrvN: will do    28 centers at a time, making    1 passes.
 Calling FoFCou, ICntrl=  3107 FMM=F I1Cent=   0 AccDes= 0.00D+00.
 End of G2Drv F.D. properties file   721 does not exist.
 End of G2Drv F.D. properties file   722 does not exist.
 End of G2Drv F.D. properties file   788 does not exist.
          IDoAtm=111111111111111111111111111
          Differentiating once with respect to nuclear coordinates.
 CalDSu exits because no D1Ps are significant.
          There are    84 degrees of freedom in the 1st order CPHF.  IDoFFX=6 NUNeed=     0.
     78 vectors produced by pass  0 Test12= 2.85D-14 1.19D-09 XBig12= 1.75D-01 1.52D-01.
 AX will form    78 AO Fock derivatives at one time.
     78 vectors produced by pass  1 Test12= 2.85D-14 1.19D-09 XBig12= 5.46D-02 7.88D-02.
     78 vectors produced by pass  2 Test12= 2.85D-14 1.19D-09 XBig12= 6.36D-04 3.58D-03.
     78 vectors produced by pass  3 Test12= 2.85D-14 1.19D-09 XBig12= 3.04D-06 1.79D-04.
     78 vectors produced by pass  4 Test12= 2.85D-14 1.19D-09 XBig12= 7.95D-09 7.37D-06.
     77 vectors produced by pass  5 Test12= 2.85D-14 1.19D-09 XBig12= 1.32D-11 3.21D-07.
     27 vectors produced by pass  6 Test12= 2.85D-14 1.19D-09 XBig12= 1.93D-14 1.13D-08.
 InvSVY:  IOpt=1 It=  1 EMax= 1.11D-15
 Solved reduced A of dimension   494 with    84 vectors.
 End of Minotr F.D. properties file   721 does not exist.
 End of Minotr F.D. properties file   722 does not exist.
 End of Minotr F.D. properties file   788 does not exist.
   1 Symmetry operations used in ECPInt.
 ECPInt:  NShTT=   21321 NPrTT=   64608 LenC2=   20336 LenP2D=   46799.
 LDataN:  DoStor=T MaxTD1= 8 Len=  415
 Calling FoFJK, ICntrl=    100147 FMM=F ISym2X=0 I1Cent= 0 IOpClX= 0 NMat=1 NMatS=1 NMatT=0.
 -------------------------------------------------------------------
 Center     Atomic                   Forces (Hartrees/Bohr)
 Number     Number              X              Y              Z
 -------------------------------------------------------------------
      1        6          -0.000567316    0.000756243    0.000791078
      2        6          -0.000003859    0.001422706   -0.000613738
      3        6           0.000675774   -0.000921635    0.000240090
      4        1           0.000002512    0.000113214   -0.000048287
      5        6           0.000331756    0.000179533   -0.000090248
      6        1          -0.000116441   -0.000056197    0.000013928
      7        6           0.000112476   -0.000354747   -0.000210071
      8        1           0.000039130    0.000222305   -0.000021349
      9        6           0.000011249    0.000035355    0.000033499
     10        1          -0.000174203    0.000005844    0.000115289
     11        6          -0.000085910    0.000343900   -0.000127300
     12        1          -0.000067869    0.000181085    0.000105625
     13        1          -0.000040814   -0.000063353   -0.000062773
     14        6          -0.000219764   -0.001213782    0.000010695
     15        1           0.000074952    0.000152662   -0.000199228
     16        1           0.000073897    0.000009989    0.000045978
     17        1          -0.000138716    0.000085853   -0.000221055
     18        1           0.000149774   -0.000182555    0.000204255
     19        7           0.000318273   -0.000206498    0.002216632
     20        6           0.003105988    0.002553751   -0.001914329
     21        8          -0.000215886   -0.000342340   -0.001535051
     22        8          -0.001240525   -0.001277238    0.000208531
     23        8          -0.002579062   -0.002197474    0.001838852
     24        6           0.000654621    0.000958561   -0.001185131
     25        1          -0.000379183   -0.000162307    0.000025823
     26        1           0.000193996    0.000029272    0.000217378
     27        1           0.000085150   -0.000072148    0.000160906
 -------------------------------------------------------------------
 Cartesian Forces:  Max     0.003105988 RMS     0.000833342
 -----------------------------------------------------------------------------------------------
                       Internal Coordinate Forces (Hartree/Bohr or radian)
  Cent   Atom   N1       Length/X         N2         Alpha/Y        N3         Beta/Z          J
 -----------------------------------------------------------------------------------------------
      1  C 
      2  C        1  -0.000767(     1)
      3  C        1   0.000598(     2)      2   0.000741(    27)
      4  H        1  -0.000002(     3)      2   0.000117(    28)      3   0.000191(    52)     0
      5  C        3  -0.000199(     4)      1   0.001553(    29)      2   0.003231(    53)     0
      6  H        2   0.000119(     5)      1  -0.000103(    30)      3  -0.000249(    54)     0
      7  C        2  -0.000217(     6)      1  -0.000320(    31)      6  -0.000274(    55)     0
      8  H        3   0.000006(     7)      1   0.000100(    32)      5   0.000386(    56)     0
      9  C        5   0.001458(     8)      3   0.001950(    33)      1   0.003311(    57)     0
     10  H        5  -0.000204(     9)      3   0.000003(    34)      9   0.000083(    58)     0
     11  C        5   0.000089(    10)      3  -0.000362(    35)      9  -0.000600(    59)     0
     12  H        7  -0.000003(    11)      2   0.000250(    36)      1  -0.000384(    60)     0
     13  H        7  -0.000049(    12)      2  -0.000173(    37)     12  -0.000029(    61)     0
     14  C        9   0.001065(    13)      5   0.004274(    38)      3   0.000750(    62)     0
     15  H        9  -0.000076(    14)      5  -0.000419(    39)     14  -0.000286(    63)     0
     16  H        9  -0.000008(    15)      5   0.000054(    40)     14   0.000164(    64)     0
     17  H       11  -0.000235(    16)      5   0.000019(    41)      3   0.000021(    65)     0
     18  H       11  -0.000271(    17)      5   0.000170(    42)     17  -0.000254(    66)     0
     19  N       14  -0.000193(    18)      9   0.003226(    43)      5   0.001153(    67)     0
     20  C       14  -0.000590(    19)      9   0.001187(    44)     19  -0.000675(    68)     0
     21  O       19   0.001384(    20)     14   0.001840(    45)      9   0.000032(    69)     0
     22  O       20  -0.001092(    21)     14   0.003172(    46)      9  -0.000686(    70)     0
     23  O       20   0.002667(    22)     14   0.002863(    47)     22  -0.000048(    71)     0
     24  C       23  -0.000972(    23)     20  -0.001742(    48)     14   0.000541(    72)     0
     25  H       24   0.000406(    24)     23  -0.000020(    49)     20  -0.000035(    73)     0
     26  H       24   0.000215(    25)     23   0.000239(    50)     25   0.000312(    74)     0
     27  H       24   0.000016(    26)     23   0.000345(    51)     25  -0.000193(    75)     0
 -----------------------------------------------------------------------------------------------
 Internal  Forces:  Max     0.004273554 RMS     0.001178610

 GradGradGradGradGradGradGradGradGradGradGradGradGradGradGradGradGradGrad
 Berny optimization.
 Search for a saddle point.
 Step number   1 out of a maximum of   85
 All quantities printed in internal units (Hartrees-Bohrs-Radians)
 Swapping is turned off.
 Second derivative matrix not updated -- analytic derivatives used.
 ITU=  0
     Eigenvalues ---   -0.09161   0.00791   0.01782   0.02662   0.02867
     Eigenvalues ---    0.03597   0.03910   0.04829   0.05790   0.06525
     Eigenvalues ---    0.07277   0.08071   0.08162   0.10902   0.11386
     Eigenvalues ---    0.11883   0.13523   0.15047   0.15501   0.15648
     Eigenvalues ---    0.16343   0.16818   0.17863   0.18230   0.19136
     Eigenvalues ---    0.19975   0.21163   0.21413   0.22001   0.22351
     Eigenvalues ---    0.22765   0.23232   0.24140   0.24621   0.26378
     Eigenvalues ---    0.26777   0.28208   0.29231   0.30120   0.30790
     Eigenvalues ---    0.31029   0.31369   0.32214   0.32681   0.33109
     Eigenvalues ---    0.33544   0.33799   0.33896   0.34006   0.34164
     Eigenvalues ---    0.34944   0.35204   0.35250   0.35575   0.35605
     Eigenvalues ---    0.36092   0.36927   0.37946   0.40183   0.40541
     Eigenvalues ---    0.43607   0.45763   0.46329   0.52948   0.62651
     Eigenvalues ---    0.71934   0.76302   0.82592   0.87566   0.92548
     Eigenvalues ---    1.04437   1.66391   2.10233   5.85125  16.71146
 Eigenvectors required to have negative eigenvalues:
                          D19       D9        D20       D7        D12
   1                    0.42283  -0.40252  -0.37432   0.33947  -0.33363
                          R19       R2        R3        R21       A7
   1                    0.20957   0.19722  -0.15308  -0.14733  -0.14671
 RFO step:  Lambda0=2.319036890D-05 Lambda=-2.68301381D-04.
 Linear search not attempted -- option 19 set.
 Variable       Old X    -DE/DX   Delta X   Delta X   Delta X     New X
                                 (Linear)    (Quad)   (Total)
    R2        2.64373  -0.00077   0.00000  -0.00093  -0.00093   2.64280
    R3        2.58519   0.00060   0.00000  -0.00076  -0.00076   2.58443
    R4        2.04395  -0.00000   0.00000  -0.00026  -0.00026   2.04369
    R5        2.80454  -0.00020   0.00000  -0.00327  -0.00327   2.80127
    R6        2.04881   0.00012   0.00000   0.00018   0.00018   2.04899
    R7        2.83505  -0.00022   0.00000  -0.00272  -0.00272   2.83233
    R8        2.04296   0.00001   0.00000   0.00049   0.00049   2.04344
    R9        2.99589   0.00146   0.00000   0.00423   0.00423   3.00012
   R10        2.05838  -0.00020   0.00000  -0.00059  -0.00059   2.05779
   R11        2.91105   0.00009   0.00000  -0.00058  -0.00058   2.91047
   R12        2.06168  -0.00000   0.00000   0.00014   0.00014   2.06182
   R13        2.07189  -0.00005   0.00000   0.00032   0.00032   2.07221
   R14        2.81951   0.00106   0.00000   0.00037   0.00037   2.81988
   R15        2.05633  -0.00008   0.00000   0.00009   0.00009   2.05642
   R16        2.06140  -0.00001   0.00000  -0.00035  -0.00035   2.06104
   R17        2.06071  -0.00024   0.00000  -0.00063  -0.00063   2.06008
   R18        2.06193  -0.00027   0.00000  -0.00088  -0.00088   2.06105
   R19        2.58098  -0.00019   0.00000   0.00092   0.00092   2.58190
   R20        2.78732  -0.00059   0.00000  -0.00451  -0.00451   2.78281
   R21        2.36559   0.00138   0.00000   0.00012   0.00012   2.36571
   R22        2.29480  -0.00109   0.00000  -0.00167  -0.00167   2.29313
   R23        2.55015   0.00267   0.00000   0.01101   0.01101   2.56116
   R24        2.70530  -0.00097   0.00000  -0.00394  -0.00394   2.70136
   R25        2.05479   0.00041   0.00000   0.00149   0.00149   2.05628
   R26        2.06014   0.00021   0.00000   0.00093   0.00093   2.06107
   R27        2.06016   0.00002   0.00000   0.00024   0.00024   2.06040
    A3        2.03658   0.00074   0.00000   0.00233   0.00233   2.03892
    A4        2.10996   0.00012   0.00000   0.00109   0.00109   2.11105
    A5        2.04807   0.00155   0.00000   0.00167   0.00167   2.04974
    A6        2.07680  -0.00010   0.00000  -0.00010  -0.00010   2.07670
    A7        2.10066  -0.00032   0.00000   0.00275   0.00275   2.10341
    A8        2.11979   0.00010   0.00000  -0.00162  -0.00162   2.11818
    A9        1.92416   0.00195   0.00000  -0.00277  -0.00277   1.92139
   A10        1.94211   0.00000   0.00000   0.00080   0.00080   1.94290
   A11        1.89879  -0.00036   0.00000   0.00121   0.00121   1.90000
   A12        1.93478   0.00025   0.00000   0.00089   0.00089   1.93567
   A13        1.86341  -0.00017   0.00000  -0.00276  -0.00276   1.86066
   A14        2.01175   0.00427   0.00000   0.00438   0.00438   2.01614
   A15        1.88098  -0.00042   0.00000  -0.00621  -0.00621   1.87476
   A16        1.86202   0.00005   0.00000  -0.00001  -0.00001   1.86200
   A17        1.91311   0.00002   0.00000  -0.00056  -0.00056   1.91255
   A18        1.90758   0.00017   0.00000  -0.00110  -0.00110   1.90648
   A19        2.07572   0.00323   0.00000   0.00656   0.00656   2.08228
   A20        2.09701   0.00119   0.00000   0.00006   0.00006   2.09707
   A21        1.97697   0.00184   0.00000   0.00477   0.00477   1.98174
   A22        2.15626   0.00317   0.00000   0.00598   0.00598   2.16224
   A23        1.98950   0.00286   0.00000   0.00209   0.00209   1.99159
   A24        2.01373  -0.00174   0.00000  -0.00667  -0.00667   2.00706
   A25        1.83986  -0.00002   0.00000   0.00062   0.00062   1.84048
   A26        1.93463   0.00024   0.00000   0.00250   0.00250   1.93713
   A27        1.93716   0.00035   0.00000   0.00241   0.00241   1.93957
    D4        2.88551   0.00019   0.00000   0.02356   0.02356   2.90907
    D5       -0.04986   0.00323   0.00000   0.02899   0.02899  -0.02087
    D6       -2.80079  -0.00025   0.00000  -0.01155  -0.01155  -2.81234
    D7       -2.76257  -0.00027   0.00000  -0.01016  -0.01016  -2.77273
    D8        3.09229   0.00039   0.00000  -0.01940  -0.01940   3.07289
    D9        1.26282   0.00331   0.00000  -0.00865  -0.00865   1.25417
   D10        2.07775   0.00008   0.00000  -0.00421  -0.00421   2.07354
   D11       -2.07940  -0.00060   0.00000  -0.00457  -0.00457  -2.08397
   D12       -2.59155  -0.00038   0.00000  -0.00892  -0.00892  -2.60046
   D13       -1.99726  -0.00003   0.00000   0.00379   0.00379  -1.99347
   D14       -0.73048   0.00075   0.00000  -0.02179  -0.02179  -0.75226
   D15       -2.14961  -0.00029   0.00000   0.00208   0.00208  -2.14753
   D16        2.07674   0.00016   0.00000   0.00530   0.00530   2.08204
   D17       -3.12023   0.00002   0.00000  -0.01097  -0.01097  -3.13120
   D18        2.04716  -0.00025   0.00000  -0.00322  -0.00322   2.04394
   D19        1.42316   0.00115   0.00000   0.02516   0.02516   1.44832
   D20        2.76624  -0.00067   0.00000   0.00436   0.00436   2.77060
   D21       -0.19492   0.00003   0.00000   0.00601   0.00601  -0.18890
   D22        0.17738  -0.00069   0.00000  -0.02833  -0.02833   0.14905
   D23        3.12395  -0.00005   0.00000  -0.00112  -0.00112   3.12283
   D24        3.12630   0.00054   0.00000   0.01182   0.01182   3.13812
   D25       -3.13159  -0.00004   0.00000  -0.00839  -0.00839  -3.13998
   D26        2.08660   0.00031   0.00000   0.00118   0.00118   2.08778
   D27       -2.08725  -0.00019   0.00000   0.00027   0.00027  -2.08698
         Item               Value     Threshold  Converged?
 Maximum Force            0.004274     0.000450     NO 
 RMS     Force            0.001179     0.000300     NO 
 Maximum Displacement     0.028989     0.001800     NO 
 RMS     Displacement     0.008182     0.001200     NO 
 Predicted change in Energy=-1.231953D-04
 GradGradGradGradGradGradGradGradGradGradGradGradGradGradGradGradGradGrad

 ---------------------------------------------------------------------------------------------------
                            Z-MATRIX (ANGSTROMS AND DEGREES)
   CD    Cent   Atom    N1       Length/X        N2       Alpha/Y        N3        Beta/Z          J
 ---------------------------------------------------------------------------------------------------
      1      1  C 
      2      2  C        1   1.398512(     1)
      3      3  C        1   1.367619(     2)      2  116.821(    27)
      4      4  H        1   1.081475(     3)      2  120.954(    28)      3  166.678(    52)      0
      5      5  C        3   1.482370(     4)      1  117.441(    29)      2   -1.196(    53)      0
      6      6  H        2   1.084280(     5)      1  118.986(    30)      3 -161.135(    54)      0
      7      7  C        2   1.498803(     6)      1  120.516(    31)      6 -158.866(    55)      0
      8      8  H        3   1.081344(     7)      1  121.363(    32)      5  176.064(    56)      0
      9      9  C        5   1.587598(     8)      3  110.087(    33)      1   71.859(    57)      0
     10     10  H        5   1.088935(     9)      3  111.320(    34)      9  118.805(    58)      0
     11     11  C        5   1.540155(    10)      3  108.862(    35)      9 -119.403(    59)      0
     12     12  H        7   1.091070(    11)      2  110.906(    36)      1 -148.996(    60)      0
     13     13  H        7   1.096566(    12)      2  106.608(    37)     12 -114.217(    61)      0
     14     14  C        9   1.492217(    13)      5  115.516(    38)      3  -43.102(    62)      0
     15     15  H        9   1.088212(    14)      5  107.416(    39)     14 -123.045(    63)      0
     16     16  H        9   1.090656(    15)      5  106.685(    40)     14  119.292(    64)      0
     17     17  H       11   1.090145(    16)      5  109.581(    41)      3 -179.404(    65)      0
     18     18  H       11   1.090662(    17)      5  109.234(    42)     17  117.109(    66)      0
     19     19  N       14   1.366285(    18)      9  119.306(    43)      5   82.983(    67)      0
     20     20  C       14   1.472597(    19)      9  120.153(    44)     19  158.744(    68)      0
     21     21  O       19   1.251878(    20)     14  113.545(    45)      9  -10.823(    69)      0
     22     22  O       20   1.213470(    21)     14  123.887(    46)      9    8.540(    70)      0
     23     23  O       20   1.355307(    22)     14  114.110(    47)     22  178.925(    71)      0
     24     24  C       23   1.429498(    23)     20  114.996(    48)     14  179.801(    72)      0
     25     25  H       24   1.088136(    24)     23  105.452(    49)     20 -179.908(    73)      0
     26     26  H       24   1.090672(    25)     23  110.990(    50)     25  119.621(    74)      0
     27     27  H       24   1.090316(    26)     23  111.129(    51)     25 -119.575(    75)      0
 ---------------------------------------------------------------------------------------------------
                         Z-Matrix orientation:                         
 ---------------------------------------------------------------------
 Center     Atomic      Atomic             Coordinates (Angstroms)
 Number     Number       Type             X           Y           Z
 ---------------------------------------------------------------------
      1          6           0        0.000000    0.000000    0.000000
      2          6           0        0.000000    0.000000    1.398512
      3          6           0        1.220489    0.000000   -0.617081
      4          1           0       -0.902489   -0.213713   -0.556262
      5          6           0        2.423602    0.027453    0.248475
      6          1           0       -0.897513   -0.306672    1.923951
      7          6           0        0.989123    0.829953    2.159579
      8          1           0        1.307780   -0.082596   -1.691726
      9          6           0        2.608316   -1.374585    0.970026
     10          1           0        3.325466    0.212872   -0.332938
     11          6           0        2.242930    1.121199    1.317658
     12          1           0        1.243698    0.358209    3.109885
     13          1           0        0.476943    1.762316    2.425714
     14          6           0        1.361753   -1.984344    1.518648
     15          1           0        3.335782   -1.237103    1.767583
     16          1           0        3.005986   -2.061663    0.222153
     17          1           0        3.126634    1.158706    1.954900
     18          1           0        2.158097    2.091966    0.827803
     19          7           0        0.544196   -2.697106    0.687803
     20          6           0        1.234767   -2.234246    2.964320
     21          8           0        0.837403   -2.579939   -0.523601
     22          8           0        2.030325   -1.840113    3.791518
     23          8           0        0.126422   -2.933469    3.310033
     24          6           0       -0.013502   -3.190689    4.709220
     25          1           0       -0.939487   -3.753326    4.809372
     26          1           0        0.828608   -3.772729    5.085576
     27          1           0       -0.071610   -2.260994    5.275860
 ---------------------------------------------------------------------
                    Distance matrix (angstroms):
                    1          2          3          4          5
     1  C    0.000000
     2  C    1.398512   0.000000
     3  C    1.367619   2.356313   0.000000
     4  H    1.081475   2.163631   2.134575   0.000000
     5  C    2.436460   2.682757   1.482370   3.430546   0.000000
     6  H    2.145032   1.084280   3.322172   2.481959   3.734791
     7  C    2.516141   1.498803   2.907266   3.470336   2.520725
     8  H    2.139871   3.356588   1.081344   2.488325   2.240881
     9  C    3.103828   2.979329   2.516835   4.000367   1.587598
    10  H    3.348863   3.755257   2.134708   4.255286   1.088935
    11  C    2.832675   2.508857   2.458799   3.897080   1.540155
    12  H    3.368455   2.145670   3.744213   4.286473   3.112755
    13  H    3.036004   2.094845   3.594053   3.834019   3.396999
    14  C    2.845748   2.409652   2.918718   3.545021   2.605415
    15  H    3.972684   3.576881   3.419285   4.940701   2.176893
    16  H    3.651816   3.830173   2.853554   4.392838   2.168933
    17  H    3.865240   3.380534   3.404568   4.941995   2.164689
    18  H    3.117525   3.059316   2.709819   4.074185   2.160632
    19  N    2.836125   2.841767   3.071560   3.131747   3.338922
    20  C    3.911994   2.994705   4.221196   4.587473   3.728864
    21  O    2.762515   3.324432   2.609900   2.937229   3.148114
    22  O    4.678017   3.637954   4.845368   5.490880   4.024378
    23  O    4.424652   3.503589   5.022395   4.837765   4.839135
    24  C    5.688359   4.597985   6.330301   6.113753   6.016158
    25  H    6.172532   5.157912   6.942575   6.428083   6.812227
    26  H    6.386170   5.339899   6.848895   6.891562   6.354757
    27  H    5.740377   4.488993   6.442700   6.236615   6.061162
                    6          7          8          9         10
     6  H    0.000000
     7  C    2.215137   0.000000
     8  H    4.241067   3.970748   0.000000
     9  C    3.786984   2.982752   3.231959   0.000000
    10  H    4.816329   3.471588   2.450442   2.175325   0.000000
    11  C    3.502683   1.538079   3.373429   2.546231   2.172880
    12  H    2.536394   1.091070   4.822229   3.073069   4.025905
    13  H    2.534089   1.096566   4.587734   4.062257   4.257349
    14  C    2.843085   2.910311   3.731764   1.492217   3.480272
    15  H    4.337158   3.151696   4.172829   1.088212   2.552395
    16  H    4.605801   4.022785   3.234740   1.090656   2.362986
    17  H    4.282762   2.172309   4.259924   2.766983   2.483614
    18  H    4.036305   2.175501   3.435082   3.498557   2.498212
    19  N    3.052992   3.847627   3.616750   2.467652   4.152752
    20  C    3.056881   3.177619   5.129687   2.569604   4.607745
    21  O    3.764065   4.341640   2.796872   2.611500   3.745211
    22  O    3.796245   3.297965   5.803180   2.917465   4.785736
    23  O    3.141612   4.028789   5.877132   3.750407   5.779669
    24  C    4.105697   4.865335   7.237274   4.914645   6.939473
    25  H    4.495202   5.634482   7.796714   5.743335   7.769421
    26  H    4.998892   5.456364   7.731657   5.084900   7.174929
    27  H    3.966962   4.515564   7.429361   5.148586   7.008478
                   11         12         13         14         15
    11  C    0.000000
    12  H    2.189223   0.000000
    13  H    2.181176   1.739978   0.000000
    14  C    3.234388   2.834347   3.955138   0.000000
    15  H    2.637867   2.953576   4.195547   2.125354   0.000000
    16  H    3.451521   4.159379   5.086704   2.095323   1.782420
    17  H    1.090145   2.349518   2.758057   3.630962   2.412204
    18  H    1.090662   3.008312   2.342706   4.210431   3.654152
    19  N    4.226331   3.961153   4.786575   1.366285   3.330239
    20  C    3.871291   2.596553   4.103279   1.472597   2.615481
    21  O    4.366253   4.690417   5.261517   2.190995   3.646180
    22  O    3.864524   2.432287   4.154023   2.373547   2.482771
    23  O    4.988937   3.481883   4.791167   2.374014   3.944211
    24  C    5.931825   4.090611   5.476056   3.677817   4.866973
    25  H    6.788287   4.955731   6.173362   4.387923   5.819088
    26  H    6.336249   4.597859   6.151037   4.025611   4.870770
    27  H    5.697692   3.644408   4.960975   4.030845   4.996668
                   16         17         18         19         20
    16  H    0.000000
    17  H    3.658927   0.000000
    18  H    4.282331   1.754818   0.000000
    19  N    2.584768   4.810594   5.055640   0.000000
    20  C    3.269018   4.013753   4.912571   2.423563   0.000000
    21  O    2.351066   5.035972   5.039566   1.251878   3.527462
    22  O    3.706934   3.683472   4.925563   3.546274   1.213470
    23  O    4.311256   5.252005   5.961893   2.665800   1.355307
    24  C    5.525013   6.030254   6.905627   4.089797   2.348964
    25  H    6.282599   6.986373   7.721098   4.506023   3.230975
    26  H    5.596570   6.277030   7.368231   4.536327   2.651721
    27  H    5.920413   5.740374   6.610981   4.649697   2.655288
                   21         22         23         24         25
    21  O    0.000000
    22  O    4.537692   0.000000
    23  O    3.915000   2.247688   0.000000
    24  C    5.336615   2.616001   1.429498   0.000000
    25  H    5.742366   3.676438   2.014037   1.088136   0.000000
    26  H    5.734604   2.617961   2.085660   1.090672   1.789644
    27  H    5.878927   2.607402   2.087083   1.090316   1.788260
                   26         27
    26  H    0.000000
    27  H    1.769730   0.000000
 Symmetry turned off by external request.
 Stoichiometry    C10H13NO3
 Framework group  C1[X(C10H13NO3)]
 Deg. of freedom    75
 Full point group                 C1      NOp   1
 Rotational constants (GHZ):           1.1628871           0.6042658           0.5199055
 Standard basis: def2TZVP (5D, 7F)
 The following finite field(s) will be applied:
 An electric field of             -0.0025 -0.0043  0.0007
   512 basis functions,   818 primitive gaussians,   582 cartesian basis functions
    52 alpha electrons       52 beta electrons
       nuclear repulsion energy       959.9107456468 Hartrees.
 NAtoms=   27 NActive=   27 NUniq=   27 SFac= 1.00D+00 NAtFMM=   60 NAOKFM=F Big=F
 Integral buffers will be    131072 words long.
 Raffenetti 2 integral format.
 Two-electron integral symmetry is turned off.
 One-electron integrals computed using PRISM.
   1 Symmetry operations used in ECPInt.
 ECPInt:  NShTT=   21321 NPrTT=   64608 LenC2=   20334 LenP2D=   46802.
 LDataN:  DoStor=T MaxTD1= 6 Len=  172
 NBasis=   512 RedAO= T EigKep=  2.01D-05  NBF=   512
 NBsUse=   512 1.00D-06 EigRej= -1.00D+00 NBFU=   512
 The nuclear repulsion energy is now       960.5925218746 hartrees.
 Initial guess from the checkpoint file:  "checkpoint.chk"
 B after Tr=    -0.008075    0.007115    0.008717
         Rot=    0.999918    0.000913   -0.005012    0.011790 Ang=   1.47 deg.
 ExpMin= 9.52D-02 ExpMax= 2.70D+04 ExpMxC= 9.22D+02 IAcc=2 IRadAn=         4 AccDes= 0.00D+00
 Harris functional with IExCor=  402 and IRadAn=       4 diagonalized for initial guess.
 HarFok:  IExCor=  402 AccDes= 0.00D+00 IRadAn=         4 IDoV= 1 UseB2=F ITyADJ=14
 ICtDFT=  3500011 ScaDFX=  1.000000  1.000000  1.000000  1.000000
 FoFCou: FMM=F IPFlag=           0 FMFlag=      100000 FMFlg1=           0
         NFxFlg=           0 DoJE=T BraDBF=F KetDBF=T FulRan=T
         wScrn=  0.000000 ICntrl=       500 IOpCl=  0 I1Cent=   200000004 NGrid=           0
         NMat0=    1 NMatS0=      1 NMatT0=    0 NMatD0=    1 NMtDS0=    0 NMtDT0=    0
 Symmetry not used in FoFCou.
 Requested convergence on RMS density matrix=1.00D-08 within 128 cycles.
 Requested convergence on MAX density matrix=1.00D-06.
 Requested convergence on             energy=1.00D-06.
 No special actions if energy rises.
 Integral accuracy reduced to 1.0D-05 until final iterations.
 Initial convergence to 1.0D-05 achieved.  Increase integral accuracy.
 SCF Done:  E(RB3LYP) =  -669.445345651     A.U. after   13 cycles
            NFock= 13  Conv=0.75D-08     -V/T= 2.0049
   1 Symmetry operations used in ECPInt.
 ECPInt:  NShTT=   21321 NPrTT=   64608 LenC2=   20334 LenP2D=   46802.
 LDataN:  DoStor=T MaxTD1= 7 Len=  274
 Calling FoFJK, ICntrl=      2127 FMM=F ISym2X=0 I1Cent= 0 IOpClX= 0 NMat=1 NMatS=1 NMatT=0.
 -------------------------------------------------------------------
 Center     Atomic                   Forces (Hartrees/Bohr)
 Number     Number              X              Y              Z
 -------------------------------------------------------------------
      1        6          -0.000151113    0.002175408    0.000106322
      2        6           0.000069742   -0.000195424   -0.000065017
      3        6           0.000094027   -0.001972452   -0.000059358
      4        1          -0.000011409   -0.000012774    0.000009339
      5        6          -0.000001881    0.000035261    0.000022808
      6        1          -0.000002675   -0.000006435    0.000001095
      7        6           0.000245586    0.000034137   -0.000166152
      8        1          -0.000007474    0.000036705   -0.000003266
      9        6          -0.000000971    0.000013185    0.000020164
     10        1           0.000001081    0.000000722    0.000000419
     11        6          -0.000221027   -0.000048156    0.000149889
     12        1           0.000023866    0.000014441   -0.000012402
     13        1           0.000018874    0.000009265   -0.000018557
     14        6          -0.000032525   -0.000049507   -0.000106159
     15        1           0.000003929   -0.000005689   -0.000004775
     16        1           0.000002459   -0.000004068    0.000001969
     17        1          -0.000028282   -0.000008654    0.000030932
     18        1          -0.000017695   -0.000000534    0.000017138
     19        7           0.000037145   -0.000009061    0.000131933
     20        6           0.000056433    0.000072380    0.000006702
     21        8          -0.000018347   -0.000016964   -0.000080624
     22        8           0.000008257   -0.000007674   -0.000009092
     23        8          -0.000054920   -0.000046042    0.000014491
     24        6          -0.000008769   -0.000005411    0.000007546
     25        1          -0.000001792   -0.000000136   -0.000000107
     26        1          -0.000000269   -0.000000901    0.000000534
     27        1          -0.000002252   -0.000001622    0.000004227
 -------------------------------------------------------------------
 Cartesian Forces:  Max     0.002175408 RMS     0.000332275
 -----------------------------------------------------------------------------------------------
                       Internal Coordinate Forces (Hartree/Bohr or radian)
  Cent   Atom   N1       Length/X         N2         Alpha/Y        N3         Beta/Z          J
 -----------------------------------------------------------------------------------------------
      1  C 
      2  C        1  -0.000261(     1)
      3  C        1  -0.000238(     2)      2  -0.001522(    27)
      4  H        1   0.000007(     3)      2  -0.000031(    28)      3  -0.000017(    52)     0
      5  C        3  -0.000107(     4)      1  -0.001444(    29)      2   0.000494(    53)     0
      6  H        2   0.000005(     5)      1  -0.000003(    30)      3  -0.000349(    54)     0
      7  C        2   0.000122(     6)      1  -0.000917(    31)      6  -0.000358(    55)     0
      8  H        3  -0.000000(     7)      1  -0.000012(    32)      5   0.000065(    56)     0
      9  C        5   0.000047(     8)      3   0.000090(    33)      1   0.000910(    57)     0
     10  H        5   0.000001(     9)      3   0.000002(    34)      9   0.000001(    58)     0
     11  C        5   0.000128(    10)      3  -0.000480(    35)      9   0.000797(    59)     0
     12  H        7  -0.000011(    11)      2   0.000048(    36)      1  -0.000019(    60)     0
     13  H        7  -0.000005(    12)      2   0.000021(    37)     12  -0.000051(    61)     0
     14  C        9   0.000030(    13)      5   0.000177(    38)      3   0.000026(    62)     0
     15  H        9  -0.000002(    14)      5   0.000008(    39)     14  -0.000014(    63)     0
     16  H        9   0.000002(    15)      5   0.000009(    40)     14   0.000003(    64)     0
     17  H       11  -0.000005(    16)      5   0.000045(    41)      3  -0.000038(    65)     0
     18  H       11  -0.000007(    17)      5   0.000035(    42)     17   0.000033(    66)     0
     19  N       14  -0.000029(    18)      9   0.000185(    43)      5   0.000114(    67)     0
     20  C       14   0.000022(    19)      9  -0.000004(    44)     19   0.000008(    68)     0
     21  O       19   0.000072(    20)     14   0.000103(    45)      9  -0.000008(    69)     0
     22  O       20  -0.000003(    21)     14  -0.000018(    46)      9  -0.000001(    70)     0
     23  O       20   0.000090(    22)     14  -0.000031(    47)     22   0.000021(    71)     0
     24  C       23   0.000015(    23)     20   0.000043(    48)     14  -0.000003(    72)     0
     25  H       24   0.000002(    24)     23  -0.000001(    49)     20   0.000000(    73)     0
     26  H       24   0.000000(    25)     23   0.000001(    50)     25  -0.000002(    74)     0
     27  H       24   0.000001(    26)     23   0.000010(    51)     25   0.000003(    75)     0
 -----------------------------------------------------------------------------------------------
 Internal  Forces:  Max     0.001521907 RMS     0.000321159

 GradGradGradGradGradGradGradGradGradGradGradGradGradGradGradGradGradGrad
 Berny optimization.
 Search for a saddle point.
 Step number   2 out of a maximum of   85
 All quantities printed in internal units (Hartrees-Bohrs-Radians)
 Swapping is turned off.
 Update second derivatives using D2CorN and points    1    2
 ITU=  0  0
     Eigenvalues ---   -0.09144   0.00791   0.01781   0.02633   0.02876
     Eigenvalues ---    0.03600   0.03911   0.04824   0.05784   0.06524
     Eigenvalues ---    0.07277   0.08071   0.08161   0.10898   0.11386
     Eigenvalues ---    0.11883   0.13521   0.15043   0.15501   0.15646
     Eigenvalues ---    0.16343   0.16818   0.17864   0.18229   0.19133
     Eigenvalues ---    0.19975   0.21155   0.21413   0.22003   0.22353
     Eigenvalues ---    0.22765   0.23232   0.24140   0.24622   0.26378
     Eigenvalues ---    0.26771   0.28208   0.29230   0.30120   0.30789
     Eigenvalues ---    0.31028   0.31369   0.32214   0.32679   0.33109
     Eigenvalues ---    0.33544   0.33799   0.33895   0.34006   0.34164
     Eigenvalues ---    0.34945   0.35204   0.35250   0.35575   0.35605
     Eigenvalues ---    0.36092   0.36925   0.37945   0.40179   0.40541
     Eigenvalues ---    0.43608   0.45761   0.46329   0.52947   0.62651
     Eigenvalues ---    0.71934   0.76290   0.82588   0.87562   0.92547
     Eigenvalues ---    1.04441   1.66378   2.10232   5.85126  16.71146
 Eigenvectors required to have negative eigenvalues:
                          D19       D9        D20       D7        D12
   1                    0.42267  -0.40218  -0.37488   0.34000  -0.33372
                          R19       R2        R3        R21       A7
   1                    0.20938   0.19714  -0.15283  -0.14718  -0.14711
 RFO step:  Lambda0=3.304389156D-08 Lambda=-8.88470084D-07.
 Linear search not attempted -- option 19 set.
 Variable       Old X    -DE/DX   Delta X   Delta X   Delta X     New X
                                 (Linear)    (Quad)   (Total)
    R2        2.64280  -0.00026   0.00000  -0.00012  -0.00012   2.64269
    R3        2.58443  -0.00024   0.00000   0.00014   0.00014   2.58457
    R4        2.04369   0.00001   0.00000   0.00002   0.00002   2.04371
    R5        2.80127  -0.00011   0.00000  -0.00007  -0.00007   2.80120
    R6        2.04899   0.00000   0.00000  -0.00000  -0.00000   2.04899
    R7        2.83233   0.00012   0.00000  -0.00002  -0.00002   2.83230
    R8        2.04344  -0.00000   0.00000   0.00001   0.00001   2.04345
    R9        3.00012   0.00005   0.00000   0.00011   0.00011   3.00024
   R10        2.05779   0.00000   0.00000   0.00000   0.00000   2.05779
   R11        2.91047   0.00013   0.00000   0.00001   0.00001   2.91048
   R12        2.06182  -0.00001   0.00000  -0.00003  -0.00003   2.06179
   R13        2.07221  -0.00001   0.00000   0.00002   0.00002   2.07223
   R14        2.81988   0.00003   0.00000   0.00001   0.00001   2.81989
   R15        2.05642  -0.00000   0.00000   0.00001   0.00001   2.05643
   R16        2.06104   0.00000   0.00000  -0.00000  -0.00000   2.06104
   R17        2.06008  -0.00001   0.00000   0.00000   0.00000   2.06008
   R18        2.06105  -0.00001   0.00000  -0.00001  -0.00001   2.06104
   R19        2.58190  -0.00003   0.00000  -0.00010  -0.00010   2.58180
   R20        2.78281   0.00002   0.00000   0.00010   0.00010   2.78291
   R21        2.36571   0.00007   0.00000   0.00008   0.00008   2.36578
   R22        2.29313  -0.00000   0.00000  -0.00003  -0.00003   2.29309
   R23        2.56116   0.00009   0.00000   0.00024   0.00024   2.56140
   R24        2.70136   0.00001   0.00000   0.00001   0.00001   2.70137
   R25        2.05628   0.00000   0.00000   0.00001   0.00001   2.05629
   R26        2.06107   0.00000   0.00000   0.00001   0.00001   2.06108
   R27        2.06040   0.00000   0.00000   0.00001   0.00001   2.06041
    A3        2.03892  -0.00152   0.00000   0.00006   0.00006   2.03897
    A4        2.11105  -0.00003   0.00000  -0.00010  -0.00010   2.11095
    A5        2.04974  -0.00144   0.00000  -0.00008  -0.00008   2.04965
    A6        2.07670  -0.00000   0.00000   0.00007   0.00007   2.07677
    A7        2.10341  -0.00092   0.00000  -0.00007  -0.00007   2.10333
    A8        2.11818  -0.00001   0.00000  -0.00005  -0.00005   2.11813
    A9        1.92139   0.00009   0.00000  -0.00032  -0.00032   1.92106
   A10        1.94290   0.00000   0.00000   0.00006   0.00006   1.94296
   A11        1.90000  -0.00048   0.00000   0.00018   0.00018   1.90018
   A12        1.93567   0.00005   0.00000   0.00006   0.00006   1.93573
   A13        1.86066   0.00002   0.00000  -0.00011  -0.00011   1.86054
   A14        2.01614   0.00018   0.00000   0.00011   0.00011   2.01625
   A15        1.87476   0.00001   0.00000  -0.00013  -0.00013   1.87464
   A16        1.86200   0.00001   0.00000   0.00005   0.00005   1.86206
   A17        1.91255   0.00004   0.00000  -0.00001  -0.00001   1.91253
   A18        1.90648   0.00003   0.00000  -0.00006  -0.00006   1.90643
   A19        2.08228   0.00018   0.00000   0.00040   0.00040   2.08268
   A20        2.09707  -0.00000   0.00000  -0.00024  -0.00024   2.09683
   A21        1.98174   0.00010   0.00000   0.00021   0.00021   1.98194
   A22        2.16224  -0.00002   0.00000   0.00005   0.00005   2.16230
   A23        1.99159  -0.00003   0.00000  -0.00006  -0.00006   1.99154
   A24        2.00706   0.00004   0.00000   0.00009   0.00009   2.00715
   A25        1.84048  -0.00000   0.00000  -0.00002  -0.00002   1.84046
   A26        1.93713   0.00000   0.00000   0.00001   0.00001   1.93714
   A27        1.93957   0.00001   0.00000   0.00006   0.00006   1.93963
    D4        2.90907  -0.00002   0.00000   0.00031   0.00031   2.90938
    D5       -0.02087   0.00049   0.00000   0.00052   0.00052  -0.02035
    D6       -2.81234  -0.00035   0.00000  -0.00019  -0.00019  -2.81253
    D7       -2.77273  -0.00036   0.00000  -0.00027  -0.00027  -2.77300
    D8        3.07289   0.00006   0.00000   0.00014   0.00014   3.07303
    D9        1.25417   0.00091   0.00000   0.00023   0.00023   1.25440
   D10        2.07354   0.00000   0.00000  -0.00026  -0.00026   2.07327
   D11       -2.08397   0.00080   0.00000  -0.00012  -0.00012  -2.08409
   D12       -2.60046  -0.00002   0.00000  -0.00050  -0.00050  -2.60096
   D13       -1.99347  -0.00005   0.00000   0.00011   0.00011  -1.99336
   D14       -0.75226   0.00003   0.00000  -0.00130  -0.00130  -0.75356
   D15       -2.14753  -0.00001   0.00000   0.00009   0.00009  -2.14744
   D16        2.08204   0.00000   0.00000   0.00016   0.00016   2.08220
   D17       -3.13120  -0.00004   0.00000  -0.00084  -0.00084  -3.13204
   D18        2.04394   0.00003   0.00000  -0.00002  -0.00002   2.04392
   D19        1.44832   0.00011   0.00000   0.00140   0.00140   1.44972
   D20        2.77060   0.00001   0.00000  -0.00000  -0.00000   2.77060
   D21       -0.18890  -0.00001   0.00000  -0.00003  -0.00003  -0.18894
   D22        0.14905  -0.00000   0.00000  -0.00043  -0.00043   0.14862
   D23        3.12283   0.00002   0.00000   0.00020   0.00020   3.12303
   D24        3.13812  -0.00000   0.00000  -0.00018  -0.00018   3.13794
   D25       -3.13998   0.00000   0.00000  -0.00002  -0.00002  -3.14000
   D26        2.08778  -0.00000   0.00000  -0.00002  -0.00002   2.08776
   D27       -2.08698   0.00000   0.00000   0.00003   0.00003  -2.08696
         Item               Value     Threshold  Converged?
 Maximum Force            0.001522     0.000450     NO 
 RMS     Force            0.000321     0.000300     NO 
 Maximum Displacement     0.001397     0.001800     YES
 RMS     Displacement     0.000287     0.001200     YES
 Predicted change in Energy=-4.277131D-07
 GradGradGradGradGradGradGradGradGradGradGradGradGradGradGradGradGradGrad

 ---------------------------------------------------------------------------------------------------
                            Z-MATRIX (ANGSTROMS AND DEGREES)
   CD    Cent   Atom    N1       Length/X        N2       Alpha/Y        N3        Beta/Z          J
 ---------------------------------------------------------------------------------------------------
      1      1  C 
      2      2  C        1   1.398450(     1)
      3      3  C        1   1.367695(     2)      2  116.824(    27)
      4      4  H        1   1.081484(     3)      2  120.949(    28)      3  166.695(    52)      0
      5      5  C        3   1.482331(     4)      1  117.437(    29)      2   -1.166(    53)      0
      6      6  H        2   1.084279(     5)      1  118.990(    30)      3 -161.146(    54)      0
      7      7  C        2   1.498791(     6)      1  120.512(    31)      6 -158.881(    55)      0
      8      8  H        3   1.081349(     7)      1  121.360(    32)      5  176.072(    56)      0
      9      9  C        5   1.587656(     8)      3  110.069(    33)      1   71.872(    57)      0
     10     10  H        5   1.088935(     9)      3  111.323(    34)      9  118.790(    58)      0
     11     11  C        5   1.540161(    10)      3  108.872(    35)      9 -119.410(    59)      0
     12     12  H        7   1.091054(    11)      2  110.909(    36)      1 -149.024(    60)      0
     13     13  H        7   1.096576(    12)      2  106.601(    37)     12 -114.211(    61)      0
     14     14  C        9   1.492221(    13)      5  115.523(    38)      3  -43.176(    62)      0
     15     15  H        9   1.088215(    14)      5  107.409(    39)     14 -123.039(    63)      0
     16     16  H        9   1.090654(    15)      5  106.688(    40)     14  119.301(    64)      0
     17     17  H       11   1.090146(    16)      5  109.580(    41)      3 -179.453(    65)      0
     18     18  H       11   1.090658(    17)      5  109.230(    42)     17  117.108(    66)      0
     19     19  N       14   1.366230(    18)      9  119.329(    43)      5   83.063(    67)      0
     20     20  C       14   1.472652(    19)      9  120.140(    44)     19  158.744(    68)      0
     21     21  O       19   1.251918(    20)     14  113.557(    45)      9  -10.825(    69)      0
     22     22  O       20   1.213452(    21)     14  123.890(    46)      9    8.515(    70)      0
     23     23  O       20   1.355433(    22)     14  114.107(    47)     22  178.936(    71)      0
     24     24  C       23   1.429503(    23)     20  115.001(    48)     14  179.791(    72)      0
     25     25  H       24   1.088139(    24)     23  105.451(    49)     20 -179.909(    73)      0
     26     26  H       24   1.090675(    25)     23  110.990(    50)     25  119.620(    74)      0
     27     27  H       24   1.090320(    26)     23  111.133(    51)     25 -119.574(    75)      0
 ---------------------------------------------------------------------------------------------------
                         Z-Matrix orientation:                         
 ---------------------------------------------------------------------
 Center     Atomic      Atomic             Coordinates (Angstroms)
 Number     Number       Type             X           Y           Z
 ---------------------------------------------------------------------
      1          6           0        0.000000    0.000000    0.000000
      2          6           0        0.000000    0.000000    1.398450
      3          6           0        1.220522    0.000000   -0.617183
      4          1           0       -0.902616   -0.213452   -0.556175
      5          6           0        2.423586    0.026767    0.248396
      6          1           0       -0.897534   -0.306491    1.923956
      7          6           0        0.989538    0.829529    2.159416
      8          1           0        1.307673   -0.081990   -1.691891
      9          6           0        2.607730   -1.375986    0.968830
     10          1           0        3.325549    0.212209   -0.332858
     11          6           0        2.243315    1.119893    1.318291
     12          1           0        1.243605    0.358015    3.109955
     13          1           0        0.477821    1.762277    2.425131
     14          6           0        1.361240   -1.985085    1.518361
     15          1           0        3.336078   -1.239575    1.765768
     16          1           0        3.004146   -2.062925    0.220167
     17          1           0        3.126734    1.156160    1.956000
     18          1           0        2.159597    2.091061    0.829048
     19          7           0        0.542733   -2.698038    0.688706
     20          6           0        1.235213   -2.234152    2.964317
     21          8           0        0.834771   -2.581924   -0.523123
     22          8           0        2.031660   -1.840192    3.790715
     23          8           0        0.126642   -2.932679    3.311203
     24          6           0       -0.012420   -3.189378    4.710577
     25          1           0       -0.938674   -3.751430    4.811561
     26          1           0        0.829604   -3.771825    5.086508
     27          1           0       -0.069592   -2.259502    5.277022
 ---------------------------------------------------------------------
                    Distance matrix (angstroms):
                    1          2          3          4          5
     1  C    0.000000
     2  C    1.398450   0.000000
     3  C    1.367695   2.356364   0.000000
     4  H    1.081484   2.163524   2.134713   0.000000
     5  C    2.436429   2.682743   1.482331   3.430548   0.000000
     6  H    2.145020   1.084279   3.322271   2.481881   3.734756
     7  C    2.516025   1.498791   2.907056   3.470229   2.520500
     8  H    2.139913   3.356626   1.081349   2.488476   2.240938
     9  C    3.103582   2.979625   2.516569   3.999956   1.587656
    10  H    3.348895   3.755227   2.134715   4.255401   1.088935
    11  C    2.832757   2.508595   2.458927   3.897218   1.540161
    12  H    3.368464   2.145688   3.744364   4.286414   3.112973
    13  H    3.035654   2.094757   3.593452   3.833705   3.396494
    14  C    2.845867   2.409962   2.919060   3.545057   2.605560
    15  H    3.972896   3.577832   3.419149   4.940736   2.176852
    16  H    3.650894   3.830001   2.852741   4.391588   2.169023
    17  H    3.865114   3.379946   3.404647   4.941915   2.164684
    18  H    3.118287   3.059512   2.710347   4.075141   2.160591
    19  N    2.836950   2.842130   3.073134   3.132400   3.340067
    20  C    3.912079   2.994850   4.221231   4.587745   3.728299
    21  O    2.763482   3.324999   2.612276   2.937562   3.150372
    22  O    4.677977   3.638252   4.844978   5.491057   4.023328
    23  O    4.425009   3.503608   5.022887   4.838406   4.838911
    24  C    5.688745   4.598094   6.330663   6.114512   6.015710
    25  H    6.172962   5.157874   6.943099   6.428933   6.811905
    26  H    6.386507   5.340101   6.849202   6.892204   6.354323
    27  H    5.740832   4.489267   6.442934   6.237502   6.060532
                    6          7          8          9         10
     6  H    0.000000
     7  C    2.215181   0.000000
     8  H    4.241190   3.970472   0.000000
     9  C    3.787211   2.983343   3.231719   0.000000
    10  H    4.816294   3.471233   2.450581   2.175320   0.000000
    11  C    3.502333   1.537452   3.373595   2.546436   2.172881
    12  H    2.536265   1.091054   4.822389   3.074413   4.026004
    13  H    2.534281   1.096576   4.586921   4.062761   4.256614
    14  C    2.843282   2.910527   3.732340   1.492221   3.480463
    15  H    4.338104   3.153157   4.172510   1.088215   2.551866
    16  H    4.605548   4.023136   3.233897   1.090654   2.363339
    17  H    4.281952   2.171560   4.260177   2.766882   2.483836
    18  H    4.036475   2.174944   3.435558   3.498682   2.497909
    19  N    3.052820   3.847902   3.618852   2.467895   4.154178
    20  C    3.057260   3.177163   5.130041   2.569478   4.607119
    21  O    3.763865   4.342578   2.799880   2.612200   3.747980
    22  O    3.797000   3.297660   5.802964   2.917255   4.784386
    23  O    3.141696   4.028078   5.878113   3.750440   5.779490
    24  C    4.106059   4.864560   7.238100   4.914696   6.938952
    25  H    4.495283   5.633566   7.797805   5.743370   7.769110
    26  H    4.999328   5.455814   7.732408   5.084983   7.174385
    27  H    3.967719   4.514791   7.429951   5.148706   7.007645
                   11         12         13         14         15
    11  C    0.000000
    12  H    2.188593   0.000000
    13  H    2.180533   1.739932   0.000000
    14  C    3.234033   2.834983   3.955425   0.000000
    15  H    2.638457   2.955938   4.197083   2.125319   0.000000
    16  H    3.451821   4.160689   5.086881   2.095354   1.782406
    17  H    1.090146   2.348367   2.757573   3.629865   2.412376
    18  H    1.090658   3.007496   2.341784   4.210403   3.654406
    19  N    4.226695   3.961455   4.786836   1.366230   3.330159
    20  C    3.869792   2.596269   4.103147   1.472652   2.615213
    21  O    4.367865   4.691443   5.262290   2.191128   3.646568
    22  O    3.862613   2.432401   4.154157   2.373615   2.482469
    23  O    4.987519   3.480916   4.790727   2.374120   3.944040
    24  C    5.930072   4.089447   5.475627   3.677975   4.866833
    25  H    6.786588   4.954326   6.172720   4.388023   5.818915
    26  H    6.334583   4.597144   6.150851   4.025761   4.870525
    27  H    5.695736   3.643084   4.960611   4.031144   4.996774
                   16         17         18         19         20
    16  H    0.000000
    17  H    3.659324   0.000000
    18  H    4.282476   1.754826   0.000000
    19  N    2.584851   4.810192   5.056621   0.000000
    20  C    3.269373   4.011082   4.911347   2.423452   0.000000
    21  O    2.351176   5.037104   5.041857   1.251918   3.527539
    22  O    3.707311   3.680148   4.923676   3.546162   1.213452
    23  O    4.311729   5.249356   5.960869   2.665647   1.355433
    24  C    5.525608   6.027079   6.904126   4.089627   2.349142
    25  H    6.283135   6.983281   7.719741   4.505789   3.231134
    26  H    5.597344   6.273909   7.366701   4.536075   2.651915
    27  H    5.921005   5.736937   6.609173   4.649720   2.655516
                   21         22         23         24         25
    21  O    0.000000
    22  O    4.537830   0.000000
    23  O    3.914911   2.247789   0.000000
    24  C    5.336510   2.616240   1.429503   0.000000
    25  H    5.742099   3.676662   2.014033   1.088139   0.000000
    26  H    5.734444   2.618249   2.085673   1.090675   1.789641
    27  H    5.879074   2.607718   2.087132   1.090320   1.788241
                   26         27
    26  H    0.000000
    27  H    1.769737   0.000000
 Symmetry turned off by external request.
 Stoichiometry    C10H13NO3
 Framework group  C1[X(C10H13NO3)]
 Deg. of freedom    75
 Full point group                 C1      NOp   1
 Rotational constants (GHZ):           1.1624931           0.6043495           0.5199079
 Standard basis: def2TZVP (5D, 7F)
 The following finite field(s) will be applied:
 An electric field of             -0.0025 -0.0043  0.0007
   512 basis functions,   818 primitive gaussians,   582 cartesian basis functions
    52 alpha electrons       52 beta electrons
       nuclear repulsion energy       959.8843447573 Hartrees.
 NAtoms=   27 NActive=   27 NUniq=   27 SFac= 1.00D+00 NAtFMM=   60 NAOKFM=F Big=F
 Integral buffers will be    131072 words long.
 Raffenetti 2 integral format.
 Two-electron integral symmetry is turned off.
 One-electron integrals computed using PRISM.
   1 Symmetry operations used in ECPInt.
 ECPInt:  NShTT=   21321 NPrTT=   64608 LenC2=   20334 LenP2D=   46800.
 LDataN:  DoStor=T MaxTD1= 6 Len=  172
 NBasis=   512 RedAO= T EigKep=  2.01D-05  NBF=   512
 NBsUse=   512 1.00D-06 EigRej= -1.00D+00 NBFU=   512
 The nuclear repulsion energy is now       960.5664833639 hartrees.
 Initial guess from the checkpoint file:  "checkpoint.chk"
 B after Tr=    -0.000754   -0.000410    0.000934
[...]
 66938,-0.00046921,-0.00038321,-0.00109168,-0.00019396,-0.00022235,-0.0
 0003463,0.00004691,0.00021535,-0.00029547,0.01702648,0.00121534,-0.014
 87238,0.20957577,0.34230714,-0.00237928,-0.00286395,0.00348643,-0.0047
 8164,0.02251764,-0.00082706,0.00397056,0.00118798,0.00234022,-0.000156
 17,-0.00050270,0.00034391,0.00152454,-0.00305442,0.00240006,0.00099343
 ,-0.00254222,0.00083268,0.00077148,-0.00435344,-0.00357729,-0.00022720
 ,0.00001177,-0.00052277,0.01096751,0.00813332,-0.01045579,-0.00024947,
 -0.00060947,-0.00002840,-0.00175171,0.00148838,-0.00059144,0.00039548,
 -0.00430136,0.00206470,-0.00220739,-0.00115299,-0.00025598,0.03023474,
 0.02291156,-0.18409853,-0.00292115,-0.00106019,-0.00047347,-0.00048546
 ,-0.00003643,0.00060856,-0.00072416,-0.00086152,-0.00031684,0.00022086
 ,0.00047914,-0.00021521,-0.00776352,-0.01207960,-0.05432022,0.17375761
 ,0.04697214,0.76035101,-0.00064666,0.00156446,-0.00333364,0.00249324,-
 0.00295611,0.00321471,-0.00271171,0.00539396,0.00195517,0.00018449,0.0
 0127471,0.00002024,0.00167291,0.00107995,-0.00085438,0.00024020,-0.000
 15259,0.00003416,-0.00118958,0.00053044,-0.00001361,-0.00011208,-0.000
 94415,0.00001207,-0.00652642,0.00507782,-0.00698802,-0.00000103,0.0004
 1971,-0.00036544,-0.00053160,-0.00002850,-0.00029617,-0.00010205,-0.00
 029577,0.00001618,0.00027549,0.00010889,0.00005912,0.02070852,0.010214
 21,-0.02259032,0.00144687,-0.00129552,-0.00197777,0.00107733,-0.001808
 91,-0.00308351,0.00019542,-0.00026275,-0.00005938,0.00004065,-0.000091
 94,0.00007314,-0.10321607,-0.03595710,0.12160657,0.00158042,-0.0104063
 4,-0.00877878,0.08481966,0.01340452,-0.00863441,-0.01907530,0.00342951
 ,-0.00606536,0.01157843,-0.00467277,0.01403827,0.00106122,-0.00110738,
 0.00099301,0.00026864,-0.00370455,0.00108666,-0.00386278,0.00044660,-0
 .00089492,0.00016824,-0.00017471,-0.00053286,-0.00153655,0.00006148,-0
 .00196212,-0.00017048,0.00174202,-0.00877820,0.00186471,-0.00013972,-0
 .00047431,0.00022435,0.00035238,-0.00027145,0.00004410,-0.00064476,-0.
 00020896,0.00017143,-0.00077918,0.00013941,-0.00007641,0.01500747,0.02
 357052,-0.02479425,0.00104384,-0.00023425,-0.00131472,0.00087209,0.000
 06282,-0.00063503,-0.00009289,-0.00023741,0.00031352,-0.00000941,-0.00
 036179,-0.00013672,-0.04325102,-0.05871259,0.04313097,-0.00771560,0.00
 128550,-0.00247830,0.02462073,0.04618121,-0.01049358,0.00136484,0.0157
 8347,-0.01143095,0.02279639,-0.01599612,0.00473616,-0.00897421,-0.0063
 6578,0.00173444,-0.00206148,0.00093057,0.00193784,-0.00397218,0.005211
 88,0.00016189,-0.00138149,-0.00024057,0.00319070,-0.00584650,-0.001227
 32,-0.00009711,0.00201275,0.00092020,0.00868476,0.00851087,-0.00189378
 ,-0.00027215,-0.00050792,0.00009477,-0.00052687,0.00076691,-0.00147117
 ,0.00033001,0.00099890,0.00051089,-0.00153884,-0.00101347,-0.00007104,
 -0.02572614,-0.05803763,-0.13623120,0.00214070,0.00137437,-0.00025655,
 -0.00368255,-0.00053143,0.00150441,-0.00013548,-0.00008800,-0.00040929
 ,-0.00009940,0.00056573,0.00041905,0.11950820,0.05442931,-0.43112073,-
 0.01024175,-0.01007496,0.02309755,-0.08061300,-0.00378518,0.56044475,0
 .00109911,0.00058121,-0.00106170,0.00095006,-0.00439769,0.00077830,-0.
 00130411,-0.00047063,-0.00016432,0.00006870,0.00020362,-0.00001303,0.0
 0051512,0.00103096,-0.00026953,0.00021762,0.00002262,0.00007591,0.0000
 7690,0.00048579,0.00005633,0.00015369,-0.00004791,0.00014880,-0.003579
 12,-0.00171825,0.00178660,0.00003737,0.00015534,-0.00004782,-0.0001310
 9,-0.00016915,-0.00019196,-0.00108791,0.00095391,-0.00020003,0.0004459
 2,-0.00004878,0.00032833,-0.00033969,-0.00553135,-0.02496946,0.0025821
 5,0.00093534,0.00092613,0.00064538,0.00003420,0.00015293,0.00039436,0.
 00036591,0.00006495,0.00012337,-0.00014742,0.00008428,0.00463395,0.001
 65984,0.00238371,-0.32607372,-0.12215032,-0.24666736,0.00073086,0.0007
 3277,-0.00325083,0.39181905,-0.00062153,0.00106390,0.00127972,-0.00143
 184,-0.00446095,-0.00257695,0.00039974,-0.00088717,-0.00081314,0.00004
 778,0.00002367,0.00004925,-0.00045223,0.00088302,-0.00075686,0.0001644
 6,0.00002927,-0.00005966,0.00105892,-0.00001242,0.00104998,0.00010057,
 -0.00000758,0.00011991,-0.00233367,-0.00100239,0.00161938,0.00001953,0
 .00011922,0.00010035,0.00104639,-0.00036968,-0.00005170,-0.00033135,0.
 00089634,0.00080268,0.00085648,-0.00007361,0.00044901,-0.00531274,0.01
 795444,-0.01083931,0.00141716,-0.00024816,0.00056101,0.00042931,-0.000
 00916,0.00045603,0.00029508,0.00041233,-0.00004729,-0.00012989,-0.0002
 2571,0.00028595,-0.00272331,0.00371388,0.00374472,-0.12275144,-0.14006
 874,-0.11327186,0.00299782,0.00020034,-0.00089806,0.18163053,0.1287411
 9,0.00140061,0.00114406,-0.00177995,0.00140462,-0.00816121,0.00048857,
 -0.00192711,-0.00056083,-0.00118239,0.00007605,0.00021046,-0.00005534,
 -0.00082942,0.00011684,-0.00051203,-0.00035439,0.00093220,-0.00027351,
 -0.00078824,0.00144160,0.00026250,0.00007213,0.00003689,0.00022095,-0.
 00228385,-0.00222353,0.00093141,0.00010345,0.00024191,0.00004822,0.000
 71557,-0.00056458,0.00021479,-0.00024914,0.00167369,-0.00072549,0.0008
 4679,0.00020932,0.00041329,-0.04110331,-0.01538353,-0.05000976,0.00016
 952,0.00033978,-0.00198012,-0.00049716,0.00016765,-0.00066869,0.000315
 06,0.00039413,0.00005458,-0.00016804,-0.00010990,0.00018400,0.00574205
 ,0.00940921,0.00239733,-0.24772385,-0.11597808,-0.38060037,0.00062801,
 -0.00189336,-0.01040698,0.30383324,0.14041518,0.41821590,0.00037851,-0
 .00034191,0.00063476,-0.00240605,0.00357442,0.00062247,0.00005637,0.00
 007817,0.00024639,-0.00002385,-0.00003395,0.00023242,0.00061872,-0.000
 42321,0.00091062,0.00093461,-0.00092351,0.00030379,0.00050533,-0.00095
 519,-0.00135193,0.00007388,0.00001926,-0.00006610,0.00197566,0.0008327
 4,-0.00056368,-0.00002810,-0.00013358,0.00006178,-0.00019387,0.0003038
 4,-0.00031891,-0.00089227,0.00067951,0.00032421,-0.00012309,-0.0005081
 0,0.00032450,-0.00530793,-0.01172143,0.02062515,0.00081995,0.00005430,
 -0.00083989,0.00021637,-0.00007157,0.00053647,0.00012721,0.00016988,-0
 .00019736,0.00009629,-0.00002023,0.00011413,-0.00111129,-0.00381316,-0
 .00814188,-0.16660911,-0.06316376,0.01036877,-0.00093899,0.00049684,0.
 00599448,-0.07142588,-0.05647492,-0.02238202,0.31549425,-0.00010276,-0
 .00058493,-0.00002064,-0.00074730,0.00148002,0.00083424,0.00008847,0.0
 0020725,0.00023935,-0.00000447,0.00004111,0.00009313,0.00035415,-0.000
 05172,0.00028254,-0.00013397,0.00002910,-0.00008532,0.00016921,0.00002
 601,0.00003412,0.00001095,0.00010311,-0.00002842,0.00064863,0.00239003
 ,0.00094212,-0.00000963,-0.00010066,-0.00000120,-0.00007342,0.00016174
 ,-0.00013761,-0.00025714,0.00063968,-0.00028476,-0.00003430,-0.0001149
 7,-0.00004937,-0.01214522,-0.00212280,0.01438012,0.00050234,0.00018385
 ,-0.00065719,-0.00048420,-0.00039586,0.00055677,0.00004441,0.00005270,
 -0.00005323,0.00007479,-0.00006650,0.00006473,-0.00329292,0.00030556,-
 0.00468878,-0.06546042,-0.10542530,0.01490959,0.00066770,-0.00053203,0
 .00448184,-0.05777894,-0.00422018,-0.01325766,0.15021717,0.17122995,0.
 00013790,0.00083238,-0.00013732,0.00148760,-0.00382044,-0.00084448,0.0
 0013165,-0.00019283,-0.00042840,-0.00000370,-0.00005357,-0.00009946,0.
 00051957,0.00040439,-0.00131601,-0.00016789,0.00020483,-0.00012537,-0.
 00034643,0.00102182,0.00077129,0.00001101,-0.00008674,0.00009429,-0.00
 362031,-0.00138746,-0.00484399,-0.00003564,0.00060854,-0.00018512,0.00
 019754,-0.00036346,0.00010713,0.00015970,0.00002465,-0.00031504,0.0003
 5189,0.00041700,-0.00005306,0.03592501,0.02607828,-0.01954147,-0.00015
 112,0.00010824,0.00047978,0.00105692,0.00061556,-0.00084409,0.00009677
 ,0.00004573,0.00011314,-0.00008318,0.00002386,0.00001789,0.00221665,0.
 00229631,-0.00174488,0.03354382,0.02934249,-0.12779512,0.00172232,0.00
 089747,-0.00376465,-0.02455679,-0.01529044,0.02328924,-0.04289798,-0.0
 6719763,0.41536639,0.00019643,0.00011664,-0.00020691,0.00026953,-0.000
 49338,0.00010604,-0.00026055,0.00005911,-0.00006686,0.00000625,0.00000
 511,-0.00002424,-0.00029322,-0.00005076,0.00014488,0.00010071,-0.00008
 141,-0.00000922,-0.00009080,0.00011851,0.00001936,0.00000603,-0.000016
 97,0.00001343,0.00046065,-0.00038387,0.00085883,0.00003021,-0.00007939
 ,0.00004001,0.00002601,0.00000938,0.00005096,0.00006493,-0.00012970,-0
 .00000692,0.00004047,0.00006330,-0.00000465,-0.00315835,-0.00374845,-0
 .00144376,-0.00001062,-0.00005312,0.00002350,-0.00009713,-0.00005270,-
 0.00002202,-0.00000239,-0.00000698,0.00001602,-0.00000331,-0.00000096,
 -0.00002410,-0.00037579,0.00032087,-0.00083484,-0.01048062,-0.01201705
 ,0.04399229,0.00056619,0.00014041,-0.00056715,-0.00024699,0.00316737,0
 .00239927,-0.07903407,-0.00719433,-0.01221994,0.60245536,0.00010079,0.
 00008192,0.00010651,-0.00026792,0.00013057,-0.00020300,0.00002932,-0.0
 0008128,-0.00022728,-0.00000004,-0.00002253,-0.00002981,-0.00017088,0.
 00016038,-0.00011120,0.00015540,-0.00004000,0.00012561,0.00011953,-0.0
 0020486,0.00012341,0.00002007,0.00001641,0.00000777,-0.00012654,0.0005
 7209,0.00069448,0.00003961,-0.00002033,-0.00003989,-0.00002734,-0.0000
 0974,0.00001279,-0.00012277,-0.00010095,-0.00003966,-0.00001445,-0.000
 01010,-0.00001500,-0.00452962,0.00174894,-0.00072152,-0.00002681,0.000
 05018,0.00001522,-0.00022193,-0.00012048,0.00006697,0.00001115,-0.0000
 0600,0.00003609,0.00002513,0.00000191,-0.00005092,0.00035994,-0.000354
 00,-0.00008141,-0.01081472,-0.00957300,0.02853661,0.00039963,0.0004033
 2,-0.00049907,0.00543368,-0.00301193,0.00169607,-0.01026455,-0.0708993
 1,0.00882157,0.01386580,0.58139739,-0.00045840,-0.00042567,0.00034892,
 -0.00036727,0.00169911,-0.00013416,0.00030568,0.00002389,0.00016916,-0
 .00000005,0.00002915,0.00002987,0.00022108,-0.00009719,0.00027906,-0.0
 0023783,0.00024615,-0.00003627,0.00024983,-0.00045031,-0.00018792,-0.0
 0001630,0.00006985,-0.00003503,-0.00001258,0.00021051,0.00050143,-0.00
 005295,-0.00011843,0.00003927,-0.00010083,0.00010200,-0.00015996,-0.00
 018436,0.00040920,0.00013333,-0.00011218,-0.00023464,0.00011565,-0.001
 55883,-0.00189642,0.00493071,0.00021229,0.00002386,-0.00024123,-0.0000
 8514,-0.00007388,0.00026186,-0.00003569,0.00002483,-0.00005912,0.00003
 283,-0.00002501,0.00004684,0.00020949,-0.00062470,-0.00094831,0.035688
 86,0.02423686,-0.02592957,-0.00082564,-0.00016492,0.00145307,-0.013890
 19,-0.00837305,-0.00524313,0.01091569,0.02256145,-0.19352808,0.0131775
 7,0.02556185,0.44063311,-0.00005153,-0.00003369,0.00005386,-0.00004937
 ,0.00015877,-0.00002546,0.00003832,-0.00000708,0.00002571,0.00000119,0
 .00000202,0.00000894,0.00002543,-0.00000212,0.00003746,-0.00001068,-0.
 00000555,-0.00000496,0.00001549,-0.00002091,-0.00003119,-0.00000013,0.
 00000351,-0.00000325,0.00006836,0.00005317,0.00005882,-0.00000420,-0.0
 0001423,0.00000723,-0.00000297,0.00001180,-0.00001718,-0.00001990,0.00
 005045,0.00001583,-0.00000716,-0.00002103,0.00000871,-0.00003536,-0.00
 018025,0.00021628,0.00005065,0.00001268,-0.00002915,-0.00000838,-0.000
 02148,0.00003191,0.00000111,0.00000719,-0.00000898,0.00000267,-0.00000
 583,0.00001072,0.00000231,-0.00009905,-0.00027529,0.00085938,0.0004301
 7,-0.00150176,-0.00009696,0.00000780,0.00037119,0.00027890,-0.00044778
 ,0.00160771,-0.00169472,-0.00179481,0.00405286,-0.24647199,-0.11686652
 ,0.01603589,0.26226091,-0.00000617,-0.00001981,0.00002078,-0.00009511,
 0.00012424,0.00001054,0.00001865,0.00001486,0.00002220,-0.00000159,0.0
 0000395,0.00001656,-0.00000910,0.00001199,0.00002667,-0.00001159,-0.00
 002597,0.00000041,-0.00000021,0.00000271,-0.00006823,0.00000192,-0.000
 00138,-0.00000232,0.00006328,0.00001118,0.00010229,0.00000054,-0.00001
 525,0.00000677,0.00000902,0.00000324,0.00000363,0.00000813,0.00003505,
 -0.00000214,-0.00001100,-0.00002023,0.00000183,-0.00033616,-0.00007044
 ,0.00013439,0.00004122,0.00000517,-0.00002059,-0.00001319,-0.00001683,
 0.00003460,0.00000463,0.00000505,-0.00000834,-0.00000154,-0.00000498,0
 .00000982,0.00002201,-0.00010337,-0.00016006,0.00086467,0.00074194,0.0
 0002538,-0.00004328,-0.00001095,0.00021897,-0.00028929,0.00049556,0.00
 071085,-0.00600424,-0.00363380,0.00480056,-0.11543187,-0.12261172,0.00
 846925,0.13035341,0.12595729,0.00000720,0.00002964,-0.00000164,0.00005
 675,-0.00019153,-0.00002201,0.00001365,-0.00000524,-0.00001079,-0.0000
 0109,0.00000103,-0.00000769,0.00006587,0.00001561,-0.00008718,-0.00000
 321,0.00002597,-0.00000151,-0.00002534,0.00005170,0.00003752,0.0000000
 5,-0.00000408,0.00000342,-0.00020484,-0.00006148,-0.00041896,-0.000006
 92,0.00004492,-0.00001254,0.00001128,-0.00002080,0.00000254,0.00001393
 ,-0.00000493,-0.00002163,0.00001587,0.00002097,-0.00000574,0.00163294,
 0.00099590,-0.00000887,-0.00001334,0.00000725,0.00002914,0.00007871,0.
 00005035,-0.00004813,0.00000370,0.00000172,0.00000361,-0.00000595,0.00
 000206,0.00000375,-0.00003427,0.00006880,0.00037040,-0.00446831,-0.001
 60274,-0.00730884,0.00001273,-0.00003104,-0.00021852,0.00004685,-0.000
 30001,0.00316746,0.03746567,0.02454686,-0.01865840,0.00608393,0.002690
 92,-0.04428770,-0.02032922,-0.01403006,0.06191588,0.00001965,0.0000025
 0,0.00000072,-0.00007143,0.00002158,0.00003953,-0.00000237,-0.00001770
 ,0.00000517,-0.00000151,-0.00000568,0.00000350,0.00001278,-0.00000710,
 -0.00000721,0.00001502,-0.00001384,0.00000878,0.00001880,0.00000457,0.
 00003224,0.00000091,0.00000223,-0.00000238,-0.00002010,0.00001729,-0.0
 0001455,0.00000374,0.00000739,-0.00000956,-0.00000814,-0.00000160,0.00
 000471,-0.00000826,-0.00000699,-0.00003235,-0.00001530,0.00000433,-0.0
 0001913,-0.00020289,0.00062342,0.00005007,-0.00002019,-0.00000067,0.00
 001301,0.00000183,0.00000233,-0.00002160,0.00000184,-0.00000817,0.0000
 0414,0.00000274,0.00000538,-0.00000674,0.00000712,-0.00001373,0.000092
 76,0.00039822,-0.00159194,0.00122049,0.00006729,-0.00000796,-0.0000563
 5,0.00006581,-0.00033503,0.00060402,0.00899638,-0.00502349,-0.00143069
 ,-0.21300692,0.11256439,-0.06427038,-0.01840830,0.01473229,-0.00681513
 ,0.22314258,-0.00005662,-0.00003054,0.00002276,0.00003603,0.00009054,-
 0.00001757,0.00004420,-0.00000307,0.00001209,0.00000085,-0.00000145,0.
 00000094,-0.00000893,-0.00001489,0.00001409,-0.00004582,0.00002032,-0.
 00003162,-0.00003969,-0.00000393,-0.00004473,-0.00000657,0.00000515,-0
 .00000229,0.00004321,0.00002730,0.00003750,-0.00000357,-0.00000504,0.0
 0000552,0.00000666,0.00000326,0.00000879,0.00006134,-0.00004549,0.0000
 3290,-0.00000432,0.00000225,-0.00000384,-0.00024234,-0.00019242,0.0001
 2951,-0.00003345,-0.00001112,0.00001238,-0.00002124,-0.00000177,0.0000
 1519,-0.00001213,-0.00000770,-0.00000248,-0.00000775,0.00000281,0.0000
 0481,0.00000280,-0.00001465,-0.00006774,0.00482551,0.00259172,0.001560
 68,-0.00008272,-0.00003026,0.00003313,-0.00119011,-0.00002147,-0.00241
 951,-0.00047240,-0.00256701,0.00863708,0.10848403,-0.12503615,0.041888
 79,-0.01341155,0.01093289,-0.00639842,-0.12090033,0.12885961,0.0000857
 1,0.00008797,-0.00006808,0.00011375,-0.00035362,0.00000641,-0.00008728
 ,0.00000595,-0.00002575,0.00000184,-0.00000278,-0.00000556,-0.00002945
 ,0.00000017,-0.00003254,0.00005250,-0.00007064,-0.00000463,-0.00004068
 ,0.00007696,0.00003154,0.00000268,-0.00001456,0.00000847,-0.00007483,-
 0.00017528,-0.00006473,0.00000548,0.00002034,-0.00000131,0.00002444,-0
 .00001963,0.00002554,0.00002569,-0.00002721,-0.00001330,0.00003133,0.0
 0004166,-0.00000508,0.00042666,-0.00025233,-0.00077390,-0.00000311,0.0
 0000897,0.00004071,0.00004300,0.00002752,-0.00008036,0.00000636,0.0000
 0343,0.00001057,-0.00000580,-0.00000008,-0.00000480,-0.00003834,0.0001
 7136,0.00015971,-0.00781013,-0.00338793,0.00110607,0.00024948,0.000017
 24,-0.00046960,0.00229129,0.00107545,0.00149400,-0.02099321,0.02473339
 ,-0.02969255,-0.05801428,0.03947166,-0.07086000,0.00105807,-0.00244544
 ,0.00228982,0.07081681,-0.05114212,0.08943365,-0.00002967,-0.00003396,
 -0.00003885,0.00010228,0.00000789,0.00006894,0.00000275,-0.00000434,0.
 00003643,0.00000119,-0.00000155,-0.00000694,-0.00000178,-0.00001598,0.
 00001044,-0.00002978,0.00002650,-0.00003819,0.00000850,-0.00002634,0.0
 0004047,-0.00000655,0.00000353,-0.00000261,0.00003660,0.00001345,-0.00
 000116,-0.00000211,-0.00000115,-0.00000131,-0.00001170,0.00001334,-0.0
 0000145,0.00001775,-0.00004715,0.00003857,-0.00000351,0.00001558,-0.00
 000749,0.00000852,-0.00036861,-0.00003489,-0.00003942,-0.00000899,0.00
 002675,-0.00000545,0.00000183,-0.00000993,-0.00001519,-0.00000971,0.00
 000439,0.00000175,0.00000441,-0.00000823,-0.00003424,0.00006607,-0.000
 04190,0.00279469,0.00209887,0.00217729,-0.00002641,-0.00005856,-0.0000
 5821,-0.00064979,-0.00028540,-0.00161156,-0.00050432,0.00175948,0.0039
 0243,-0.05069002,0.01032965,0.00515942,0.00325694,-0.02386545,-0.01360
 150,-0.00098931,0.02303490,0.01186203,0.04680829,0.00002994,0.00002334
 ,-0.00004401,0.00007456,-0.00002628,0.00006359,-0.00000743,0.00001593,
 0.00004540,0.,-0.00000233,0.00000073,0.00000414,0.00000234,-0.00000798
 ,0.00002969,-0.00003902,0.00001978,-0.00001840,0.00000750,-0.00004432,
 -0.00000117,-0.00001601,-0.00000068,0.00003525,-0.00003889,-0.00005274
 ,-0.00000074,0.00000154,0.00000086,-0.00002154,0.00000298,-0.00000870,
 -0.00003380,-0.00005669,0.00008275,0.00000660,-0.00000716,0.00001050,0
 .00057683,-0.00042302,0.00009525,-0.00000246,-0.00000627,0.00000736,0.
 00002031,0.00001096,0.00000200,-0.00000075,-0.00000269,-0.00000256,0.0
 0000062,0.00000505,-0.00000232,-0.00008374,-0.00001079,-0.00017036,-0.
 00172681,0.00052071,0.00043425,-0.00002435,-0.00001920,0.00011757,-0.0
 0028587,0.00008597,0.00141235,-0.00110045,0.01386493,0.00321179,0.0133
 9042,-0.25246074,-0.11307252,0.00184091,-0.01181038,-0.00590337,-0.000
 05346,-0.01454890,-0.00785044,-0.01264832,0.26492712,-0.00003771,0.000
 07911,0.00003997,0.00015600,-0.00039969,-0.00017696,0.00004703,-0.0000
 4292,-0.00010030,0.00000347,-0.00000764,-0.00000813,-0.00007423,0.0000
 7494,-0.00011434,-0.00005191,0.00000835,-0.00006382,-0.00011925,0.0001
 4384,0.00003689,0.00000049,0.00000203,0.00001468,-0.00020241,-0.000032
 90,0.00002723,0.00000577,0.00002789,-0.00000177,0.00006855,-0.00004470
 ,0.00004804,0.00012570,-0.00001442,-0.00002396,0.00005668,0.00005785,-
 0.00001491,-0.00016955,0.00086399,-0.00051894,-0.00000040,0.00001648,0
 .00003581,-0.00001102,0.00001208,-0.00002131,0.00000484,0.00000574,0.0
 0001523,-0.00002063,-0.00000606,0.00000994,0.00002744,-0.00003751,-0.0
 0005984,-0.00745282,-0.00553536,0.00068572,0.00017574,0.00021473,-0.00
 022732,0.00232537,0.00126969,0.00205554,0.00807167,-0.02219844,-0.0363
 2167,0.00651879,-0.10594876,-0.10729181,-0.00137475,0.00212170,0.00329
 660,-0.00020989,0.00771415,0.00749570,-0.00786294,0.12165582,0.1311837
 2\\0.00009768,-0.00214892,-0.00001377,-0.00009364,0.00023058,0.0000044
 3,-0.00000169,0.00190870,0.00000917,-0.00000002,0.00000196,-0.00000029
 ,-0.00000138,0.00000497,0.00000229,0.00000012,0.00000018,-0.00000002,-
 0.00000836,-0.00000169,0.00000650,-0.00000034,-0.00000352,-0.00000018,
 -0.00000082,-0.00000305,-0.00000420,0.00000008,-0.00000014,0.00000007,
 0.00000622,0.00000453,-0.00000799,-0.00000085,0.00000005,0.00000046,-0
 .00000084,-0.00000020,0.00000100,0.00000298,0.00000216,0.00000761,-0.0
 0000030,0.00000073,0.00000015,-0.00000019,0.00000044,-0.00000020,0.000
 00121,0.00000039,-0.00000102,0.00000035,0.00000004,-0.00000075,-0.0000
 0255,0.00000120,-0.00000794,-0.00000132,0.00000022,0.00000024,0.000002
 28,0.00000253,0.00000466,0.00000066,-0.00000125,-0.00000020,0.00000129
 ,-0.00000010,-0.00000009,-0.00000012,0.00000009,-0.00000022,-0.0000003
 4,0.00000026,0.00000003,-0.00000003,0.00000002,0.00000018,-0.00000008,
 -0.00000018,0.00000008\\\@


 AND THIS OUR LIFE, EXEMPT FROM PUBLIC HAUNT,
 FINDS TONGUES IN TREES, BOOKS IN THE RUNNING BROOKS,
 SERMONS IN STONES, AND GOOD IN EVERYTHING.
 I WOULD NOT CHANGE IT. -- W. SHAKESPEARE
 AS YOU LIKE IT, ACT II, SCENE 1.
 Job cpu time:       0 days  8 hours 35 minutes 42.9 seconds.
 Elapsed time:       0 days  0 hours 42 minutes 59.4 seconds.
 File lengths (MBytes):  RWF=    555 Int=      0 D2E=      0 Chk=     48 Scr=      1
 Normal termination of Gaussian 16 at Fri Jun 10 07:00:25 2022.
