 Entering Gaussian System, Link 0=g16
 Input=int_initalOpt_zmat_sp.gjf
 Output=int_initalOpt_zmat_sp.out
 Initial command:
 /software/gaussian/g16-a03/l1.exe "/local_scratch/11171279/Gau-3463.inp" -scrdir="/local_scratch/11171279/"
 Entering Link 1 = /software/gaussian/g16-a03/l1.exe PID=      3464.
  
 Copyright (c) 1988,1990,1992,1993,1995,1998,2003,2009,2016,
            Gaussian, Inc.  All Rights Reserved.
  
 This is part of the Gaussian(R) 16 program.  It is based on
 the Gaussian(R) 09 system (copyright 2009, Gaussian, Inc.),
 the Gaussian(R) 03 system (copyright 2003, Gaussian, Inc.),
 the Gaussian(R) 98 system (copyright 1998, Gaussian, Inc.),
 the Gaussian(R) 94 system (copyright 1995, Gaussian, Inc.),
 the Gaussian 92(TM) system (copyright 1992, Gaussian, Inc.),
 the Gaussian 90(TM) system (copyright 1990, Gaussian, Inc.),
 the Gaussian 88(TM) system (copyright 1988, Gaussian, Inc.),
 the Gaussian 86(TM) system (copyright 1986, Carnegie Mellon
 University), and the Gaussian 82(TM) system (copyright 1983,
 Carnegie Mellon University). Gaussian is a federally registered
 trademark of Gaussian, Inc.
  
 This software contains proprietary and confidential information,
 including trade secrets, belonging to Gaussian, Inc.
  
 This software is provided under written license and may be
 used, copied, transmitted, or stored only in accord with that
 written license.
  
 The following legend is applicable only to US Government
 contracts under FAR:
  
                    RESTRICTED RIGHTS LEGEND
  
 Use, reproduction and disclosure by the US Government is
 subject to restrictions as set forth in subparagraphs (a)
 and (c) of the Commercial Computer Software - Restricted
 Rights clause in FAR 52.227-19.
  
 Gaussian, Inc.
 340 Quinnipiac St., Bldg. 40, Wallingford CT 06492
  
  
 ---------------------------------------------------------------
 Warning -- This program may not be used in any manner that
 competes with the business of Gaussian, Inc. or will provide
 assistance to any competitor of Gaussian, Inc.  The licensee
 of this program is prohibited from giving any competitor of
 Gaussian, Inc. access to this program.  By using this program,
 the user acknowledges that Gaussian, Inc. is engaged in the
 business of creating and licensing software in the field of
 computational chemistry and represents and warrants to the
 licensee that it is not a competitor of Gaussian, Inc. and that
 it will not use this program in any manner prohibited above.
 ---------------------------------------------------------------
  

 Cite this work as:
 Gaussian 16, Revision A.03,
 M. J. Frisch, G. W. Trucks, H. B. Schlegel, G. E. Scuseria, 
 M. A. Robb, J. R. Cheeseman, G. Scalmani, V. Barone, 
 G. A. Petersson, H. Nakatsuji, X. Li, M. Caricato, A. V. Marenich, 
 J. Bloino, B. G. Janesko, R. Gomperts, B. Mennucci, H. P. Hratchian, 
 J. V. Ortiz, A. F. Izmaylov, J. L. Sonnenberg, D. Williams-Young, 
 F. Ding, F. Lipparini, F. Egidi, J. Goings, B. Peng, A. Petrone, 
 T. Henderson, D. Ranasinghe, V. G. Zakrzewski, J. Gao, N. Rega, 
 G. Zheng, W. Liang, M. Hada, M. Ehara, K. Toyota, R. Fukuda, 
 J. Hasegawa, M. Ishida, T. Nakajima, Y. Honda, O. Kitao, H. Nakai, 
 T. Vreven, K. Throssell, J. A. Montgomery, Jr., J. E. Peralta, 
 F. Ogliaro, M. J. Bearpark, J. J. Heyd, E. N. Brothers, K. N. Kudin, 
 V. N. Staroverov, T. A. Keith, R. Kobayashi, J. Normand, 
 K. Raghavachari, A. P. Rendell, J. C. Burant, S. S. Iyengar, 
 J. Tomasi, M. Cossi, J. M. Millam, M. Klene, C. Adamo, R. Cammi, 
 J. W. Ochterski, R. L. Martin, K. Morokuma, O. Farkas, 
 J. B. Foresman, and D. J. Fox, Gaussian, Inc., Wallingford CT, 2016.
 
 ******************************************
 Gaussian 16:  ES64L-G16RevA.03 25-Dec-2016
                10-Jun-2022 
 ******************************************
 %nprocshared=12
 Will use up to   12 processors via shared memory.
 %chk=checkpoint.chk
 %mem=12GB
 --------------------------
 # sp B3LYP/Def2TZVP NoSymm
 --------------------------
 1/38=1,172=1/1;
 2/12=2,15=1,17=6,18=5,40=1/2;
 3/5=44,7=101,11=2,25=1,30=1,74=-5/1,2,3;
 4//1;
 5/5=2,38=5/2;
 6/7=2,8=2,9=2,10=2,28=1/1;
 99/5=1,9=1/99;
 ----------------------------
 int_initalOpt_zmat_AlignedSp
 ----------------------------
 Symbolic Z-matrix:
 Charge =  0 Multiplicity = 1
 C
 C                    1    R2
 C                    1    R3       2    A3
 H                    1    R4       2    A4       3    D4       0
 H                    1    R5       2    A5       3    D5       0
 H                    3    R6       1    A6       2    D6       0
 H                    3    R7       1    A7       6    D7       0
 C                    2    R8       1    A8       3    D8       0
 H                    2    R9       1    A9       8    D9       0
 C                    8    R10      2    A10      1    D10      0
 H                    8    R11      2    A11      10   D11      0
 H                    10   R12      8    A12      2    D12      0
 H                    10   R13      8    A13      12   D13      0
       Variables:
  R2                    1.51567                  
  R3                    1.50386                  
  R4                    1.0819                   
  R5                    1.082                    
  R6                    1.08125                  
  R7                    1.08179                  
  R8                    1.48256                  
  R9                    1.08551                  
  R10                   1.3285                   
  R11                   1.0878                   
  R12                   1.08331                  
  R13                   1.08241                  
  A3                   59.61706                  
  A4                  117.0694                   
  A5                  118.19649                  
  A6                  117.54238                  
  A7                  118.305                    
  A8                  120.40578                  
  A9                  114.12301                  
  A10                 126.72847                  
  A11                 114.76084                  
  A12                 122.11774                  
  A13                 121.19383                  
  D4                 -107.55222                  
  D5                  108.53517                  
  D6                 -108.68011                  
  D7                 -143.56334                  
  D8                  112.74366                  
  D9                  140.5137                   
  D10                 -87.85231                  
  D11                 179.58989                  
  D12                  -1.46418                  
  D13                -179.80811                  
 
                          Input orientation:                          
 ---------------------------------------------------------------------
 Center     Atomic      Atomic             Coordinates (Angstroms)
 Number     Number       Type             X           Y           Z
 ---------------------------------------------------------------------
      1          6           0        0.000000    0.000000    0.000000
      2          6           0        0.000000    0.000000    1.515672
      3          6           0        1.297329    0.000000    0.760619
      4          1           0       -0.290532    0.918530   -0.492339
      5          1           0       -0.303137   -0.904137   -0.511241
      6          1           0        1.883944    0.908209    0.748606
      7          1           0        1.886745   -0.907076    0.769478
      8          6           0       -0.494338    1.179227    2.266025
      9          1           0       -0.285397   -0.948713    1.959316
     10          6           0        0.214228    2.241132    2.633709
     11          1           0       -1.550962    1.145922    2.522449
     12          1           0        1.273421    2.327697    2.423527
     13          1           0       -0.244992    3.065109    3.164542
 ---------------------------------------------------------------------
                    Distance matrix (angstroms):
                    1          2          3          4          5
     1  C    0.000000
     2  C    1.515672   0.000000
     3  C    1.503863   1.501055   0.000000
     4  H    1.081899   2.227154   2.221465   0.000000
     5  H    1.082000   2.240030   2.235304   1.822809   0.000000
     6  H    2.221374   2.227663   1.081252   2.503677   3.107272
     7  H    2.230401   2.222476   1.081793   3.108948   2.536895
     8  C    2.601887   1.482557   2.620476   2.778142   3.477093
     9  H    2.195547   1.085508   2.200444   3.081758   2.471023
    10  C    3.464822   2.513677   3.115164   3.431652   4.477845
    11  H    3.175117   2.175366   3.539766   3.275567   3.868215
    12  H    3.593502   2.804278   2.860770   3.596383   4.641460
    13  H    4.412396   3.489081   4.189569   4.240596   5.410146
                    6          7          8          9         10
     6  H    0.000000
     7  H    1.815407   0.000000
     8  C    2.834120   3.501695   0.000000
     9  H    3.101616   2.477025   2.160059   0.000000
    10  C    2.849254   4.022920   1.328495   3.298415   0.000000
    11  H    3.873191   4.370988   1.087804   2.511228   2.080327
    12  H    2.278826   3.684536   2.113944   3.657905   1.083309
    13  H    3.875737   5.104791   2.103819   4.191058   1.082407
                   11         12         13
    11  H    0.000000
    12  H    3.063252   0.000000
    13  H    2.408551   1.843490   0.000000
 Symmetry turned off by external request.
 Stoichiometry    C5H8
 Framework group  C1[X(C5H8)]
 Deg. of freedom    33
 Full point group                 C1      NOp   1
 Rotational constants (GHZ):          11.7053032           3.6577464           3.3006290
 Standard basis: def2TZVP (5D, 7F)
   203 basis functions,   319 primitive gaussians,   228 cartesian basis functions
    19 alpha electrons       19 beta electrons
       nuclear repulsion energy       165.0281245366 Hartrees.
 NAtoms=   13 NActive=   13 NUniq=   13 SFac= 1.00D+00 NAtFMM=   60 NAOKFM=F Big=F
 Integral buffers will be    131072 words long.
 Raffenetti 2 integral format.
 Two-electron integral symmetry is turned off.
 One-electron integrals computed using PRISM.
   1 Symmetry operations used in ECPInt.
 ECPInt:  NShTT=    3828 NPrTT=   11160 LenC2=    3810 LenP2D=    9471.
 LDataN:  DoStor=T MaxTD1= 6 Len=  172
 NBasis=   203 RedAO= T EigKep=  1.51D-04  NBF=   203
 NBsUse=   203 1.00D-06 EigRej= -1.00D+00 NBFU=   203
 ExpMin= 9.52D-02 ExpMax= 1.36D+04 ExpMxC= 4.63D+02 IAcc=3 IRadAn=         5 AccDes= 0.00D+00
 Harris functional with IExCor=  402 and IRadAn=       5 diagonalized for initial guess.
 HarFok:  IExCor=  402 AccDes= 0.00D+00 IRadAn=         5 IDoV= 1 UseB2=F ITyADJ=14
 ICtDFT=  3500011 ScaDFX=  1.000000  1.000000  1.000000  1.000000
 FoFCou: FMM=F IPFlag=           0 FMFlag=      100000 FMFlg1=           0
         NFxFlg=           0 DoJE=T BraDBF=F KetDBF=T FulRan=T
         wScrn=  0.000000 ICntrl=       500 IOpCl=  0 I1Cent=   200000004 NGrid=           0
         NMat0=    1 NMatS0=      1 NMatT0=    0 NMatD0=    1 NMtDS0=    0 NMtDT0=    0
 Symmetry not used in FoFCou.
 Requested convergence on RMS density matrix=1.00D-08 within 128 cycles.
 Requested convergence on MAX density matrix=1.00D-06.
 Requested convergence on             energy=1.00D-06.
 No special actions if energy rises.
 Integral accuracy reduced to 1.0D-05 until final iterations.
 Initial convergence to 1.0D-05 achieved.  Increase integral accuracy.
 SCF Done:  E(RB3LYP) =  -195.367315238     A.U. after   13 cycles
            NFock= 13  Conv=0.55D-08     -V/T= 2.0056

 **********************************************************************

            Population analysis using the SCF density.

 **********************************************************************

 Alpha  occ. eigenvalues --  -10.18343 -10.17640 -10.17501 -10.17344 -10.16187
 Alpha  occ. eigenvalues --   -0.86643  -0.76243  -0.63241  -0.60399  -0.54113
 Alpha  occ. eigenvalues --   -0.50618  -0.47318  -0.44430  -0.39079  -0.37052
 Alpha  occ. eigenvalues --   -0.35293  -0.32157  -0.30019  -0.25365
 Alpha virt. eigenvalues --    0.00268   0.04790   0.05826   0.07399   0.07533
 Alpha virt. eigenvalues --    0.10481   0.11526   0.12336   0.12954   0.15722
 Alpha virt. eigenvalues --    0.16347   0.17097   0.18595   0.19913   0.22286
 Alpha virt. eigenvalues --    0.23836   0.25457   0.26699   0.28425   0.29234
 Alpha virt. eigenvalues --    0.32119   0.33790   0.34922   0.35843   0.38004
 Alpha virt. eigenvalues --    0.39425   0.40276   0.41653   0.42127   0.42597
 Alpha virt. eigenvalues --    0.45802   0.46387   0.46734   0.47491   0.47883
 Alpha virt. eigenvalues --    0.50609   0.52969   0.53900   0.58293   0.60417
 Alpha virt. eigenvalues --    0.62719   0.65641   0.67689   0.74389   0.81108
 Alpha virt. eigenvalues --    0.86228   0.87149   0.89702   0.90024   0.95452
 Alpha virt. eigenvalues --    0.95840   0.97699   0.99197   1.00848   1.03095
 Alpha virt. eigenvalues --    1.04106   1.07744   1.11152   1.12895   1.13829
 Alpha virt. eigenvalues --    1.17568   1.18352   1.20997   1.23888   1.26674
 Alpha virt. eigenvalues --    1.33399   1.37381   1.40677   1.47863   1.49831
 Alpha virt. eigenvalues --    1.51478   1.53063   1.56765   1.58746   1.60440
 Alpha virt. eigenvalues --    1.64277   1.65702   1.68688   1.69333   1.70455
 Alpha virt. eigenvalues --    1.75292   1.75920   1.81453   1.83472   1.83970
 Alpha virt. eigenvalues --    1.84663   1.85339   1.91581   1.94660   1.97485
 Alpha virt. eigenvalues --    2.03273   2.05094   2.10723   2.16633   2.25055
 Alpha virt. eigenvalues --    2.27052   2.32279   2.34515   2.35736   2.39019
 Alpha virt. eigenvalues --    2.40859   2.42226   2.44070   2.48023   2.49306
 Alpha virt. eigenvalues --    2.52153   2.54798   2.56139   2.57667   2.60240
 Alpha virt. eigenvalues --    2.61398   2.62319   2.65577   2.68524   2.69542
 Alpha virt. eigenvalues --    2.72546   2.75133   2.78202   2.81401   2.86644
 Alpha virt. eigenvalues --    2.90526   2.93344   2.96540   2.97230   3.00351
 Alpha virt. eigenvalues --    3.02500   3.04600   3.05306   3.08058   3.08929
 Alpha virt. eigenvalues --    3.10850   3.13439   3.14693   3.15845   3.20482
 Alpha virt. eigenvalues --    3.23419   3.24991   3.27840   3.30743   3.33904
 Alpha virt. eigenvalues --    3.37010   3.40728   3.43886   3.45429   3.47644
 Alpha virt. eigenvalues --    3.56997   3.58504   3.59902   3.64480   3.69302
 Alpha virt. eigenvalues --    3.73379   3.76603   3.81175   3.85794   3.91547
 Alpha virt. eigenvalues --    3.95641   3.99788   4.03244   4.06036   4.09333
 Alpha virt. eigenvalues --    4.12295   4.14950   4.16652   4.22274   4.32308
 Alpha virt. eigenvalues --    4.38452   4.41413   4.43865   4.51837   4.54369
 Alpha virt. eigenvalues --    4.57713   4.59160   4.68221   4.71740   4.81250
 Alpha virt. eigenvalues --    4.88251   4.97085   5.06082   5.12308  22.12816
 Alpha virt. eigenvalues --   22.37133  22.42490  22.54786  22.72978
          Condensed to atoms (all electrons):
               1          2          3          4          5          6
     1  C    5.087336   0.229419   0.213357   0.411683   0.408541  -0.030132
     2  C    0.229419   4.965995   0.259006  -0.031453  -0.031365  -0.028488
     3  C    0.213357   0.259006   4.997982  -0.021316  -0.022681   0.421972
     4  H    0.411683  -0.031453  -0.021316   0.556076  -0.026307  -0.006517
     5  H    0.408541  -0.031365  -0.022681  -0.026307   0.576102   0.002400
     6  H   -0.030132  -0.028488   0.421972  -0.006517   0.002400   0.559641
     7  H   -0.024452  -0.036392   0.421817   0.002414  -0.007869  -0.026625
     8  C   -0.023643   0.357683  -0.033362  -0.002604   0.005065  -0.003495
     9  H   -0.052056   0.438229  -0.033625   0.004397  -0.007072   0.004145
    10  C   -0.008169  -0.045319  -0.001107   0.003059  -0.000028   0.000215
    11  H   -0.002501  -0.056662   0.008202   0.001563   0.000126   0.000109
    12  H   -0.001370  -0.010604   0.005108   0.000478  -0.000057   0.003378
    13  H   -0.000455   0.008723   0.000348  -0.000162   0.000034  -0.000228
               7          8          9         10         11         12
     1  C   -0.024452  -0.023643  -0.052056  -0.008169  -0.002501  -0.001370
     2  C   -0.036392   0.357683   0.438229  -0.045319  -0.056662  -0.010604
     3  C    0.421817  -0.033362  -0.033625  -0.001107   0.008202   0.005108
     4  H    0.002414  -0.002604   0.004397   0.003059   0.001563   0.000478
     5  H   -0.007869   0.005065  -0.007072  -0.000028   0.000126  -0.000057
     6  H   -0.026625  -0.003495   0.004145   0.000215   0.000109   0.003378
     7  H    0.568405   0.006238  -0.007411  -0.000570  -0.000193  -0.000054
     8  C    0.006238   4.932714  -0.053091   0.618628   0.407028  -0.043860
     9  H   -0.007411  -0.053091   0.612099   0.003370  -0.002687   0.000106
    10  C   -0.000570   0.618628   0.003370   4.902251  -0.037269   0.409046
    11  H   -0.000193   0.407028  -0.002687  -0.037269   0.585676   0.007622
    12  H   -0.000054  -0.043860   0.000106   0.409046   0.007622   0.563828
    13  H   -0.000013  -0.041233  -0.000459   0.412080  -0.009665  -0.035255
              13
     1  C   -0.000455
     2  C    0.008723
     3  C    0.000348
     4  H   -0.000162
     5  H    0.000034
     6  H   -0.000228
     7  H   -0.000013
     8  C   -0.041233
     9  H   -0.000459
    10  C    0.412080
    11  H   -0.009665
    12  H   -0.035255
    13  H    0.556462
 Mulliken charges:
               1
     1  C   -0.207560
     2  C   -0.018772
     3  C   -0.215701
     4  H    0.108687
     5  H    0.103110
     6  H    0.103626
     7  H    0.104704
     8  C   -0.126069
     9  H    0.094055
    10  C   -0.256188
    11  H    0.098654
    12  H    0.101634
    13  H    0.109821
 Sum of Mulliken charges =  -0.00000
 Mulliken charges with hydrogens summed into heavy atoms:
               1
     1  C    0.004237
     2  C    0.075283
     3  C   -0.007371
     8  C   -0.027415
    10  C   -0.044733
 Electronic spatial extent (au):  <R**2>=            784.6542
 Charge=             -0.0000 electrons
 Dipole moment (field-independent basis, Debye):
    X=             -0.0697    Y=             -0.3742    Z=             -0.2228  Tot=              0.4410
 Quadrupole moment (field-independent basis, Debye-Ang):
   XX=            -31.4741   YY=            -30.9986   ZZ=            -34.4983
   XY=              0.3058   XZ=             -0.6525   YZ=             -0.0123
 Traceless Quadrupole moment (field-independent basis, Debye-Ang):
   XX=              0.8496   YY=              1.3250   ZZ=             -2.1746
   XY=              0.3058   XZ=             -0.6525   YZ=             -0.0123
 Octapole moment (field-independent basis, Debye-Ang**2):
  XXX=            -20.5691  YYY=            -67.2419  ZZZ=           -148.4297  XYY=             -5.5183
  XXY=            -20.7832  XXZ=            -43.0757  XZZ=            -12.2913  YZZ=            -21.8544
  YYZ=            -41.5882  XYZ=             -0.3975
 Hexadecapole moment (field-independent basis, Debye-Ang**3):
 XXXX=           -145.4784 YYYY=           -327.1790 ZZZZ=           -690.3477 XXXY=              0.7129
 XXXZ=            -10.4653 YYYX=              0.7815 YYYZ=           -160.1102 ZZZX=            -24.9308
 ZZZY=           -175.9292 XXYY=            -75.4578 XXZZ=           -127.3517 YYZZ=           -144.7818
 XXYZ=            -53.8307 YYXZ=             -3.3156 ZZXY=             -4.1890
 N-N= 1.650281245366D+02 E-N=-7.821353472140D+02  KE= 1.942737207247D+02
 1\1\GINC-BHC0105\SP\RB3LYP\def2TZVP\C5H8\DHANAWAY\10-Jun-2022\0\\# sp 
 B3LYP/Def2TZVP NoSymm\\int_initalOpt_zmat_AlignedSp\\0,1\C\C,1,1.51567
 194\C,1,1.5038632,2,59.61705649\H,1,1.08189852,2,117.06940358,3,-107.5
 5222436,0\H,1,1.08199984,2,118.19649144,3,108.53516636,0\H,3,1.0812518
 ,1,117.54238164,2,-108.68011275,0\H,3,1.08179327,1,118.30500485,6,-143
 .56333647,0\C,2,1.48255734,1,120.40577961,3,112.74365581,0\H,2,1.08550
 805,1,114.12300877,8,140.51370361,0\C,8,1.3284951,2,126.7284741,1,-87.
 85230896,0\H,8,1.08780376,2,114.76083728,10,179.58988993,0\H,10,1.0833
 0891,8,122.1177442,2,-1.46418387,0\H,10,1.08240687,8,121.19382615,12,-
 179.80810687,0\\Version=ES64L-G16RevA.03\HF=-195.3673152\RMSD=5.466e-0
 9\Dipole=-0.0274313,-0.1472065,-0.0876397\Quadrupole=0.6316516,0.98513
 09,-1.6167825,0.2273265,-0.4851463,-0.0091628\PG=C01 [X(C5H8)]\\@


 PATIENCE IS THE ABILITY TO IDLE YOUR MOTOR WHEN
 YOU FEEL LIKE STRIPPING YOUR GEARS.
 Job cpu time:       0 days  0 hours  3 minutes 39.9 seconds.
 Elapsed time:       0 days  0 hours  0 minutes 18.6 seconds.
 File lengths (MBytes):  RWF=     25 Int=      0 D2E=      0 Chk=     32 Scr=      1
 Normal termination of Gaussian 16 at Fri Jun 10 02:27:42 2022.
