 Entering Gaussian System, Link 0=g16
 Input=ts_zmat_field_N50.gjf
 Output=ts_zmat_field_N50.out
 Initial command:
 /software/gaussian/g16-a03/l1.exe "/local_scratch/11171320/Gau-24056.inp" -scrdir="/local_scratch/11171320/"
 Entering Link 1 = /software/gaussian/g16-a03/l1.exe PID=     24057.
  
 Copyright (c) 1988,1990,1992,1993,1995,1998,2003,2009,2016,
            Gaussian, Inc.  All Rights Reserved.
  
 This is part of the Gaussian(R) 16 program.  It is based on
 the Gaussian(R) 09 system (copyright 2009, Gaussian, Inc.),
 the Gaussian(R) 03 system (copyright 2003, Gaussian, Inc.),
 the Gaussian(R) 98 system (copyright 1998, Gaussian, Inc.),
 the Gaussian(R) 94 system (copyright 1995, Gaussian, Inc.),
 the Gaussian 92(TM) system (copyright 1992, Gaussian, Inc.),
 the Gaussian 90(TM) system (copyright 1990, Gaussian, Inc.),
 the Gaussian 88(TM) system (copyright 1988, Gaussian, Inc.),
 the Gaussian 86(TM) system (copyright 1986, Carnegie Mellon
 University), and the Gaussian 82(TM) system (copyright 1983,
 Carnegie Mellon University). Gaussian is a federally registered
 trademark of Gaussian, Inc.
  
 This software contains proprietary and confidential information,
 including trade secrets, belonging to Gaussian, Inc.
  
 This software is provided under written license and may be
 used, copied, transmitted, or stored only in accord with that
 written license.
  
 The following legend is applicable only to US Government
 contracts under FAR:
  
                    RESTRICTED RIGHTS LEGEND
  
 Use, reproduction and disclosure by the US Government is
 subject to restrictions as set forth in subparagraphs (a)
 and (c) of the Commercial Computer Software - Restricted
 Rights clause in FAR 52.227-19.
  
 Gaussian, Inc.
 340 Quinnipiac St., Bldg. 40, Wallingford CT 06492
  
  
 ---------------------------------------------------------------
 Warning -- This program may not be used in any manner that
 competes with the business of Gaussian, Inc. or will provide
 assistance to any competitor of Gaussian, Inc.  The licensee
 of this program is prohibited from giving any competitor of
 Gaussian, Inc. access to this program.  By using this program,
 the user acknowledges that Gaussian, Inc. is engaged in the
 business of creating and licensing software in the field of
 computational chemistry and represents and warrants to the
 licensee that it is not a competitor of Gaussian, Inc. and that
 it will not use this program in any manner prohibited above.
 ---------------------------------------------------------------
  

 Cite this work as:
 Gaussian 16, Revision A.03,
 M. J. Frisch, G. W. Trucks, H. B. Schlegel, G. E. Scuseria, 
 M. A. Robb, J. R. Cheeseman, G. Scalmani, V. Barone, 
 G. A. Petersson, H. Nakatsuji, X. Li, M. Caricato, A. V. Marenich, 
 J. Bloino, B. G. Janesko, R. Gomperts, B. Mennucci, H. P. Hratchian, 
 J. V. Ortiz, A. F. Izmaylov, J. L. Sonnenberg, D. Williams-Young, 
 F. Ding, F. Lipparini, F. Egidi, J. Goings, B. Peng, A. Petrone, 
 T. Henderson, D. Ranasinghe, V. G. Zakrzewski, J. Gao, N. Rega, 
 G. Zheng, W. Liang, M. Hada, M. Ehara, K. Toyota, R. Fukuda, 
 J. Hasegawa, M. Ishida, T. Nakajima, Y. Honda, O. Kitao, H. Nakai, 
 T. Vreven, K. Throssell, J. A. Montgomery, Jr., J. E. Peralta, 
 F. Ogliaro, M. J. Bearpark, J. J. Heyd, E. N. Brothers, K. N. Kudin, 
 V. N. Staroverov, T. A. Keith, R. Kobayashi, J. Normand, 
 K. Raghavachari, A. P. Rendell, J. C. Burant, S. S. Iyengar, 
 J. Tomasi, M. Cossi, J. M. Millam, M. Klene, C. Adamo, R. Cammi, 
 J. W. Ochterski, R. L. Martin, K. Morokuma, O. Farkas, 
 J. B. Foresman, and D. J. Fox, Gaussian, Inc., Wallingford CT, 2016.
 
 ******************************************
 Gaussian 16:  ES64L-G16RevA.03 25-Dec-2016
                10-Jun-2022 
 ******************************************
 %nprocshared=12
 Will use up to   12 processors via shared memory.
 %chk=checkpoint.chk
 %mem=12GB
 ----------------------------------------------------------------------
 # Opt=(TS, CalcFC, noeigentest, Z-matrix, MaxStep=10) geom=allcheckpoi
 nt guess=read Field=read NoSymm B3LYP/Def2TZVP freq=noraman pop=none
 ----------------------------------------------------------------------
 1/5=1,8=10,10=4,11=1,18=40,26=3,29=7,38=1/1,3;
 2/12=2,15=1,29=3,40=1/2;
 3/5=44,7=101,11=2,14=-6,25=1,30=1,71=2,74=-5,116=-2,140=1/1,2,3;
 4/5=1/1;
 5/5=2,38=6/2;
 8/6=4,10=90,11=11/1;
 11/6=1,8=1,9=11,15=111,16=1,31=1/1,2,10;
 10/6=1,13=1,31=1/2;
 7/10=1,18=20,25=1,30=1/1,2,3,16;
 1/5=1,8=10,10=4,11=1,18=40,26=3/3(2);
 2/15=1,29=3/2;
 99//99;
 2/15=1,29=3/2;
 3/5=44,7=101,11=2,14=-2,25=1,30=1,71=1,74=-5/1,2,3;
 4/5=5,16=3,69=1/1;
 5/5=2,38=5/2;
 7/30=1/1,2,3,16;
 1/5=1,8=10,11=1,18=40,26=3/3(-5);
 2/15=1,29=3/2;
 99/9=1/99;
 Structure from the checkpoint file:  "checkpoint.chk"
 -----------------
 ts_zmat_initalOpt
 -----------------
 Charge =  0 Multiplicity = 1
 Z-Matrix found in chk file.
 C
 C,1,R2
 C,1,R3,2,A3
 H,1,R4,2,A4,3,D4,0
 H,1,R5,2,A5,3,D5,0
 H,3,R6,1,A6,2,D6,0
 H,3,R7,1,A7,6,D7,0
 C,2,R8,1,A8,3,D8,0
 H,2,R9,1,A9,8,D9,0
 C,8,R10,2,A10,1,D10,0
 H,8,R11,2,A11,10,D11,0
 H,10,R12,8,A12,2,D12,0
 H,10,R13,8,A13,12,D13,0
      Variables:
 R2=1.5057467
 R3=1.45841998
 R4=1.09270499
 R5=1.09566121
 R6=1.07888586
 R7=1.08046633
 R8=1.38827563
 R9=1.08652109
 R10=1.37090076
 R11=1.09293699
 R12=1.07689395
 R13=1.08465631
 A3=103.45077303
 A4=112.22712749
 A5=107.88483054
 A6=122.84911294
 A7=119.02634574
 A8=123.47984167
 A9=117.52508845
 A10=127.97676696
 A11=114.62044597
 A12=120.95043345
 A13=121.09900205
 D4=-123.14112217
 D5=118.44502649
 D6=-112.837784
 D7=179.04399178
 D8=49.95234082
 D9=178.07513672
 D10=-30.6122646
 D11=177.65361229
 D12=-34.46160552
 D13=-169.29973088
 Recover connectivity data from disk.

 GradGradGradGradGradGradGradGradGradGradGradGradGradGradGradGradGradGrad
 Berny optimization.
 Initialization pass.
                       ----------------------------
                       !    Initial Parameters    !
                       ! (Angstroms and Degrees)  !
 ----------------------                            ----------------------
 !      Name          Value   Derivative information (Atomic Units)     !
 ------------------------------------------------------------------------
 !       R2          1.5057   calculate D2E/DX2 analytically            !
 !       R3          1.4584   calculate D2E/DX2 analytically            !
 !       R4          1.0927   calculate D2E/DX2 analytically            !
 !       R5          1.0957   calculate D2E/DX2 analytically            !
 !       R6          1.0789   calculate D2E/DX2 analytically            !
 !       R7          1.0805   calculate D2E/DX2 analytically            !
 !       R8          1.3883   calculate D2E/DX2 analytically            !
 !       R9          1.0865   calculate D2E/DX2 analytically            !
 !       R10         1.3709   calculate D2E/DX2 analytically            !
 !       R11         1.0929   calculate D2E/DX2 analytically            !
 !       R12         1.0769   calculate D2E/DX2 analytically            !
 !       R13         1.0847   calculate D2E/DX2 analytically            !
 !       A3        103.4508   calculate D2E/DX2 analytically            !
 !       A4        112.2271   calculate D2E/DX2 analytically            !
 !       A5        107.8848   calculate D2E/DX2 analytically            !
 !       A6        122.8491   calculate D2E/DX2 analytically            !
 !       A7        119.0263   calculate D2E/DX2 analytically            !
 !       A8        123.4798   calculate D2E/DX2 analytically            !
 !       A9        117.5251   calculate D2E/DX2 analytically            !
 !       A10       127.9768   calculate D2E/DX2 analytically            !
 !       A11       114.6204   calculate D2E/DX2 analytically            !
 !       A12       120.9504   calculate D2E/DX2 analytically            !
 !       A13       121.099    calculate D2E/DX2 analytically            !
 !       D4       -123.1411   calculate D2E/DX2 analytically            !
 !       D5        118.445    calculate D2E/DX2 analytically            !
 !       D6       -112.8378   calculate D2E/DX2 analytically            !
 !       D7        179.044    calculate D2E/DX2 analytically            !
 !       D8         49.9523   calculate D2E/DX2 analytically            !
 !       D9        178.0751   calculate D2E/DX2 analytically            !
 !       D10       -30.6123   calculate D2E/DX2 analytically            !
 !       D11       177.6536   calculate D2E/DX2 analytically            !
 !       D12       -34.4616   calculate D2E/DX2 analytically            !
 !       D13      -169.2997   calculate D2E/DX2 analytically            !
 ------------------------------------------------------------------------
 Trust Radius=1.00D-01 FncErr=1.00D-07 GrdErr=1.00D-06 EigMax=2.50D+02 EigMin=1.00D-04
 Number of steps in this run=     43 maximum allowed number of steps=    100.
 Search for a saddle point of order  1.
 GradGradGradGradGradGradGradGradGradGradGradGradGradGradGradGradGradGrad

 ---------------------------------------------------------------------------------------------------
                            Z-MATRIX (ANGSTROMS AND DEGREES)
   CD    Cent   Atom    N1       Length/X        N2       Alpha/Y        N3        Beta/Z          J
 ---------------------------------------------------------------------------------------------------
      1      1  C 
      2      2  C        1   1.505747(     1)
      3      3  C        1   1.458420(     2)      2  103.451(    13)
      4      4  H        1   1.092705(     3)      2  112.227(    14)      3 -123.141(    24)      0
      5      5  H        1   1.095661(     4)      2  107.885(    15)      3  118.445(    25)      0
      6      6  H        3   1.078886(     5)      1  122.849(    16)      2 -112.838(    26)      0
      7      7  H        3   1.080466(     6)      1  119.026(    17)      6  179.044(    27)      0
      8      8  C        2   1.388276(     7)      1  123.480(    18)      3   49.952(    28)      0
      9      9  H        2   1.086521(     8)      1  117.525(    19)      8  178.075(    29)      0
     10     10  C        8   1.370901(     9)      2  127.977(    20)      1  -30.612(    30)      0
     11     11  H        8   1.092937(    10)      2  114.620(    21)     10  177.654(    31)      0
     12     12  H       10   1.076894(    11)      8  120.950(    22)      2  -34.462(    32)      0
     13     13  H       10   1.084656(    12)      8  121.099(    23)     12 -169.300(    33)      0
 ---------------------------------------------------------------------------------------------------
                         Z-Matrix orientation:                         
 ---------------------------------------------------------------------
 Center     Atomic      Atomic             Coordinates (Angstroms)
 Number     Number       Type             X           Y           Z
 ---------------------------------------------------------------------
      1          6           0        0.000000    0.000000    0.000000
      2          6           0        0.000000    0.000000    1.505747
      3          6           0        1.418416    0.000000   -0.339243
      4          1           0       -0.552994    0.846962   -0.413347
      5          1           0       -0.496661   -0.916832   -0.336483
      6          1           0        1.905753    0.835321   -0.817506
      7          1           0        2.016952   -0.864455   -0.090487
      8          6           0        0.745042    0.886409    2.271580
      9          1           0       -0.644388   -0.716356    2.007868
     10          6           0        1.949111    1.463699    1.961218
     11          1           0        0.279708    1.172876    3.218106
     12          1           0        2.689057    0.928669    1.390321
     13          1           0        2.258181    2.396426    2.420538
 ---------------------------------------------------------------------
                    Distance matrix (angstroms):
                    1          2          3          4          5
     1  C    0.000000
     2  C    1.505747   0.000000
     3  C    1.458420   2.327206   0.000000
     4  H    1.092705   2.169348   2.146927   0.000000
     5  H    1.095661   2.116852   2.123230   1.766367   0.000000
     6  H    2.235614   3.118839   1.078886   2.491770   3.012145
     7  H    2.196261   2.713547   1.080466   3.104482   2.526164
     8  C    2.549683   1.388276   2.838230   2.982498   3.405216
     9  H    2.227092   1.086521   3.205816   2.883505   2.357540
    10  C    3.128550   2.479698   2.777800   3.504205   4.114384
    11  H    3.436580   2.094290   3.914974   3.739929   4.195799
    12  H    3.166456   2.847240   2.338450   3.710902   4.066512
    13  H    4.086715   3.417467   3.750260   4.281874   5.115466
                    6          7          8          9         10
     6  H    0.000000
     7  H    1.852070   0.000000
     8  C    3.300350   3.203535   0.000000
     9  H    4.110190   3.392308   2.137502   0.000000
    10  C    2.849218   3.103932   1.370901   3.388370   0.000000
    11  H    4.363958   4.256233   1.092937   2.426484   2.109799
    12  H    2.344521   2.420705   2.134853   3.768200   1.076894
    13  H    3.611950   4.122715   2.142879   4.276051   1.084656
                   11         12         13
    11  H    0.000000
    12  H    3.034040   0.000000
    13  H    2.459176   1.844265   0.000000
 Symmetry turned off by external request.
 Stoichiometry    C5H8
 Framework group  C1[X(C5H8)]
 Deg. of freedom    33
 Full point group                 C1      NOp   1
 Rotational constants (GHZ):           8.5000428           4.4871303           3.1912640
 Standard basis: def2TZVP (5D, 7F)
 The following finite field(s) will be applied:
 An electric field of              0.0039  0.0031  0.0001
   203 basis functions,   319 primitive gaussians,   228 cartesian basis functions
    19 alpha electrons       19 beta electrons
       nuclear repulsion energy       162.0056469603 Hartrees.
 NAtoms=   13 NActive=   13 NUniq=   13 SFac= 1.00D+00 NAtFMM=   60 NAOKFM=F Big=F
 Integral buffers will be    131072 words long.
 Raffenetti 2 integral format.
 Two-electron integral symmetry is turned off.
 One-electron integrals computed using PRISM.
   1 Symmetry operations used in ECPInt.
 ECPInt:  NShTT=    3828 NPrTT=   11160 LenC2=    3812 LenP2D=    9471.
 LDataN:  DoStor=T MaxTD1= 6 Len=  172
 NBasis=   203 RedAO= T EigKep=  1.52D-04  NBF=   203
 NBsUse=   203 1.00D-06 EigRej= -1.00D+00 NBFU=   203
 The nuclear repulsion energy is now       162.3518555279 hartrees.
 Initial guess from the checkpoint file:  "checkpoint.chk"
 B after Tr=     0.000000    0.000000    0.000000
         Rot=    1.000000    0.000000    0.000000    0.000000 Ang=   0.00 deg.
 Requested convergence on RMS density matrix=1.00D-08 within 128 cycles.
 Requested convergence on MAX density matrix=1.00D-06.
 Requested convergence on             energy=1.00D-06.
 No special actions if energy rises.
 SCF Done:  E(RB3LYP) =  -195.278240747     A.U. after   10 cycles
            NFock= 10  Conv=0.87D-08     -V/T= 2.0056
 DoSCS=F DFT=T ScalE2(SS,OS)=  1.000000  1.000000
 Range of M.O.s used for correlation:     1   203
 NBasis=   203 NAE=    19 NBE=    19 NFC=     0 NFV=     0
 NROrb=    203 NOA=    19 NOB=    19 NVA=   184 NVB=   184

 **** Warning!!: The largest alpha MO coefficient is  0.20603694D+02

   1 Symmetry operations used in ECPInt.
 ECPInt:  NShTT=    3828 NPrTT=   11160 LenC2=    3812 LenP2D=    9471.
 LDataN:  DoStor=T MaxTD1= 7 Len=  274
 Symmetrizing basis deriv contribution to polar:
 IMax=3 JMax=2 DiffMx= 0.00D+00
 G2DrvN: will do    14 centers at a time, making    1 passes.
 Calling FoFCou, ICntrl=  3107 FMM=F I1Cent=   0 AccDes= 0.00D+00.
 End of G2Drv F.D. properties file   721 does not exist.
 End of G2Drv F.D. properties file   722 does not exist.
 End of G2Drv F.D. properties file   788 does not exist.
          IDoAtm=1111111111111
          Differentiating once with respect to nuclear coordinates.
 Keep R1 ints in memory in canonical form, NReq=227048987.
          There are    42 degrees of freedom in the 1st order CPHF.  IDoFFX=6 NUNeed=     0.
     36 vectors produced by pass  0 Test12= 8.32D-15 2.38D-09 XBig12= 1.22D-01 1.41D-01.
 AX will form    36 AO Fock derivatives at one time.
     36 vectors produced by pass  1 Test12= 8.32D-15 2.38D-09 XBig12= 3.26D-02 6.80D-02.
     36 vectors produced by pass  2 Test12= 8.32D-15 2.38D-09 XBig12= 2.63D-04 2.63D-03.
     36 vectors produced by pass  3 Test12= 8.32D-15 2.38D-09 XBig12= 7.50D-07 1.71D-04.
     36 vectors produced by pass  4 Test12= 8.32D-15 2.38D-09 XBig12= 1.10D-09 4.87D-06.
     32 vectors produced by pass  5 Test12= 8.32D-15 2.38D-09 XBig12= 1.46D-12 1.53D-07.
      6 vectors produced by pass  6 Test12= 8.32D-15 2.38D-09 XBig12= 1.84D-15 6.10D-09.
 InvSVY:  IOpt=1 It=  1 EMax= 2.33D-15
 Solved reduced A of dimension   218 with    36 vectors.
 End of Minotr F.D. properties file   721 does not exist.
 End of Minotr F.D. properties file   722 does not exist.
 End of Minotr F.D. properties file   788 does not exist.
   1 Symmetry operations used in ECPInt.
 ECPInt:  NShTT=    3828 NPrTT=   11160 LenC2=    3812 LenP2D=    9471.
 LDataN:  DoStor=T MaxTD1= 8 Len=  415
 Calling FoFJK, ICntrl=    100147 FMM=F ISym2X=0 I1Cent= 0 IOpClX= 0 NMat=1 NMatS=1 NMatT=0.
 -------------------------------------------------------------------
 Center     Atomic                   Forces (Hartrees/Bohr)
 Number     Number              X              Y              Z
 -------------------------------------------------------------------
      1        6           0.000160325    0.000023458   -0.000480752
      2        6           0.000283179    0.000045911    0.000598709
      3        6          -0.000434747   -0.000199517    0.000347345
      4        1          -0.000103431   -0.000205902    0.000090602
      5        1           0.000000664    0.000183027    0.000104939
      6        1          -0.000004621    0.000078754   -0.000160042
      7        1          -0.000017301   -0.000072986   -0.000023273
      8        6          -0.000690483   -0.000345628   -0.000116580
      9        1           0.000085693    0.000157467   -0.000212226
     10        6           0.000815455    0.000158946   -0.000443045
     11        1          -0.000143544   -0.000133573   -0.000093644
     12        1           0.000026593    0.000045953    0.000082958
     13        1           0.000022218    0.000264091    0.000305009
 -------------------------------------------------------------------
 Cartesian Forces:  Max     0.000815455 RMS     0.000276661
 -----------------------------------------------------------------------------------------------
                       Internal Coordinate Forces (Hartree/Bohr or radian)
  Cent   Atom   N1       Length/X         N2         Alpha/Y        N3         Beta/Z          J
 -----------------------------------------------------------------------------------------------
      1  C 
      2  C        1   0.000121(     1)
      3  C        1  -0.000482(     2)      2   0.000023(    13)
      4  H        1  -0.000142(     3)      2  -0.000083(    14)      3  -0.000381(    24)     0
      5  H        1  -0.000186(     4)      2  -0.000104(    15)      3   0.000171(    25)     0
      6  H        3   0.000130(     5)      1  -0.000091(    16)      2  -0.000099(    26)     0
      7  H        3   0.000043(     6)      1  -0.000076(    17)      6   0.000096(    27)     0
      8  C        2  -0.000137(     7)      1   0.000580(    18)      3   0.000385(    28)     0
      9  H        2  -0.000253(     8)      1  -0.000221(    19)      8  -0.000076(    29)     0
     10  C        8   0.000969(     9)      2   0.000901(    20)      1  -0.000001(    30)     0
     11  H        8  -0.000055(    10)      2  -0.000434(    21)     10  -0.000008(    31)     0
     12  H       10  -0.000049(    11)      8   0.000116(    22)      2   0.000066(    32)     0
     13  H       10   0.000363(    12)      8  -0.000301(    23)     12   0.000178(    33)     0
 -----------------------------------------------------------------------------------------------
 Internal  Forces:  Max     0.000969050 RMS     0.000320211

 GradGradGradGradGradGradGradGradGradGradGradGradGradGradGradGradGradGrad
 Berny optimization.
 Search for a saddle point.
 Step number   1 out of a maximum of   43
 All quantities printed in internal units (Hartrees-Bohrs-Radians)
 Swapping is turned off.
 Second derivative matrix not updated -- analytic derivatives used.
 ITU=  0
     Eigenvalues ---   -0.15267   0.01509   0.01576   0.02487   0.04131
     Eigenvalues ---    0.05737   0.07697   0.10551   0.11665   0.11788
     Eigenvalues ---    0.13574   0.15417   0.16614   0.19490   0.23157
     Eigenvalues ---    0.24312   0.28214   0.29181   0.30868   0.32461
     Eigenvalues ---    0.32729   0.33580   0.33707   0.35309   0.35895
     Eigenvalues ---    0.36567   0.37115   0.37543   0.39777   0.40691
     Eigenvalues ---    0.47185   0.55556   0.89485
 Eigenvectors required to have negative eigenvalues:
                          D8        D12       A3        A8        D6
   1                    0.67324   0.36261  -0.34369   0.25296   0.25102
                          D9        A10       R8        D11       R10
   1                    0.21567   0.19740   0.15644  -0.12394  -0.11691
 RFO step:  Lambda0=1.527207604D-06 Lambda=-1.24369000D-05.
 Linear search not attempted -- option 19 set.
 Variable       Old X    -DE/DX   Delta X   Delta X   Delta X     New X
                                 (Linear)    (Quad)   (Total)
    R2        2.84545   0.00012   0.00000   0.00085   0.00085   2.84630
    R3        2.75601  -0.00048   0.00000  -0.00182  -0.00182   2.75419
    R4        2.06491  -0.00014   0.00000  -0.00044  -0.00044   2.06447
    R5        2.07050  -0.00019   0.00000  -0.00032  -0.00032   2.07018
    R6        2.03880   0.00013   0.00000   0.00038   0.00038   2.03918
    R7        2.04179   0.00004   0.00000   0.00006   0.00006   2.04184
    R8        2.62346  -0.00014   0.00000  -0.00143  -0.00143   2.62203
    R9        2.05323  -0.00025   0.00000  -0.00077  -0.00077   2.05246
   R10        2.59063   0.00097   0.00000   0.00216   0.00216   2.59279
   R11        2.06535  -0.00005   0.00000  -0.00007  -0.00007   2.06528
   R12        2.03503  -0.00005   0.00000  -0.00011  -0.00011   2.03492
   R13        2.04970   0.00036   0.00000   0.00097   0.00097   2.05067
    A3        1.80556   0.00002   0.00000   0.00029   0.00029   1.80584
    A4        1.95873  -0.00008   0.00000  -0.00033  -0.00033   1.95840
    A5        1.88295  -0.00010   0.00000  -0.00179  -0.00179   1.88116
    A6        2.14412  -0.00009   0.00000   0.00004   0.00004   2.14416
    A7        2.07740  -0.00008   0.00000  -0.00024  -0.00024   2.07716
    A8        2.15513   0.00058   0.00000   0.00018   0.00018   2.15531
    A9        2.05120  -0.00022   0.00000  -0.00109  -0.00109   2.05011
   A10        2.23362   0.00090   0.00000   0.00185   0.00185   2.23546
   A11        2.00050  -0.00043   0.00000  -0.00237  -0.00237   1.99813
   A12        2.11098   0.00012   0.00000   0.00084   0.00084   2.11183
   A13        2.11358  -0.00030   0.00000  -0.00224  -0.00224   2.11134
    D4       -2.14922  -0.00038   0.00000  -0.00339  -0.00339  -2.15261
    D5        2.06726   0.00017   0.00000  -0.00040  -0.00040   2.06685
    D6       -1.96939  -0.00010   0.00000  -0.00525  -0.00525  -1.97464
    D7        3.12491   0.00010   0.00000   0.00631   0.00631   3.13121
    D8        0.87183   0.00038   0.00000  -0.00052  -0.00052   0.87131
    D9        3.10800  -0.00008   0.00000  -0.00186  -0.00186   3.10614
   D10       -0.53428  -0.00000   0.00000   0.00222   0.00222  -0.53206
   D11        3.10064  -0.00001   0.00000  -0.00010  -0.00010   3.10054
   D12       -0.60147   0.00007   0.00000  -0.00356  -0.00356  -0.60503
   D13       -2.95484   0.00018   0.00000   0.00454   0.00454  -2.95029
         Item               Value     Threshold  Converged?
 Maximum Force            0.000969     0.000450     NO 
 RMS     Force            0.000320     0.000300     NO 
 Maximum Displacement     0.006306     0.001800     NO 
 RMS     Displacement     0.002155     0.001200     NO 
 Predicted change in Energy=-5.454838D-06
 GradGradGradGradGradGradGradGradGradGradGradGradGradGradGradGradGradGrad

 ---------------------------------------------------------------------------------------------------
                            Z-MATRIX (ANGSTROMS AND DEGREES)
   CD    Cent   Atom    N1       Length/X        N2       Alpha/Y        N3        Beta/Z          J
 ---------------------------------------------------------------------------------------------------
      1      1  C 
      2      2  C        1   1.506197(     1)
      3      3  C        1   1.457457(     2)      2  103.467(    13)
      4      4  H        1   1.092472(     3)      2  112.208(    14)      3 -123.336(    24)      0
      5      5  H        1   1.095491(     4)      2  107.782(    15)      3  118.422(    25)      0
      6      6  H        3   1.079086(     5)      1  122.851(    16)      2 -113.139(    26)      0
      7      7  H        3   1.080497(     6)      1  119.012(    17)      6  179.405(    27)      0
      8      8  C        2   1.387520(     7)      1  123.490(    18)      3   49.923(    28)      0
      9      9  H        2   1.086115(     8)      1  117.463(    19)      8  177.969(    29)      0
     10     10  C        8   1.372045(     9)      2  128.083(    20)      1  -30.485(    30)      0
     11     11  H        8   1.092900(    10)      2  114.484(    21)     10  177.648(    31)      0
     12     12  H       10   1.076833(    11)      8  120.999(    22)      2  -34.665(    32)      0
     13     13  H       10   1.085170(    12)      8  120.971(    23)     12 -169.039(    33)      0
 ---------------------------------------------------------------------------------------------------
                         Z-Matrix orientation:                         
 ---------------------------------------------------------------------
 Center     Atomic      Atomic             Coordinates (Angstroms)
 Number     Number       Type             X           Y           Z
 ---------------------------------------------------------------------
      1          6           0        0.000000    0.000000    0.000000
      2          6           0        0.000000    0.000000    1.506197
      3          6           0        1.417381    0.000000   -0.339427
      4          1           0       -0.555822    0.845015   -0.412922
      5          1           0       -0.496500   -0.917419   -0.334563
      6          1           0        1.903688    0.833595   -0.822181
      7          1           0        2.015581   -0.864998   -0.091618
      8          6           0        0.745011    0.885436    2.271816
      9          1           0       -0.646216   -0.714960    2.007079
     10          6           0        1.949257    1.465689    1.962613
     11          1           0        0.278645    1.168874    3.218704
     12          1           0        2.691862    0.932587    1.393483
     13          1           0        2.255353    2.397887    2.426192
 ---------------------------------------------------------------------
                    Distance matrix (angstroms):
                    1          2          3          4          5
     1  C    0.000000
     2  C    1.506197   0.000000
     3  C    1.457457   2.327079   0.000000
     4  H    1.092472   2.169334   2.147786   0.000000
     5  H    1.095491   2.115790   2.122409   1.765172   0.000000
     6  H    2.234925   3.120938   1.079086   2.493354   3.010767
     7  H    2.195264   2.713633   1.080497   3.104754   2.524346
     8  C    2.549546   1.387520   2.838075   2.983559   3.403652
     9  H    2.226461   1.086115   3.205572   2.880642   2.355142
    10  C    3.130447   2.481161   2.780382   3.507681   4.115573
    11  H    3.435689   2.092030   3.914496   3.740311   4.192752
    12  H    3.171377   2.851060   2.344567   3.717286   4.071156
    13  H    4.089363   3.418021   3.755091   4.286571   5.117198
                    6          7          8          9         10
     6  H    0.000000
     7  H    1.852421   0.000000
     8  C    3.304245   3.203777   0.000000
     9  H    4.111538   3.392964   2.137023   0.000000
    10  C    2.855993   3.107470   1.372045   3.390234   0.000000
    11  H    4.368286   4.255797   1.092900   2.423269   2.111114
    12  H    2.353759   2.427795   2.136333   3.772754   1.076833
    13  H    3.622513   4.128350   2.143006   4.276047   1.085170
                   11         12         13
    11  H    0.000000
    12  H    3.034942   0.000000
    13  H    2.458846   1.845029   0.000000
 Symmetry turned off by external request.
 Stoichiometry    C5H8
 Framework group  C1[X(C5H8)]
 Deg. of freedom    33
 Full point group                 C1      NOp   1
 Rotational constants (GHZ):           8.5012665           4.4823107           3.1888098
 Standard basis: def2TZVP (5D, 7F)
 The following finite field(s) will be applied:
 An electric field of              0.0039  0.0031  0.0001
   203 basis functions,   319 primitive gaussians,   228 cartesian basis functions
    19 alpha electrons       19 beta electrons
       nuclear repulsion energy       161.9781685879 Hartrees.
 NAtoms=   13 NActive=   13 NUniq=   13 SFac= 1.00D+00 NAtFMM=   60 NAOKFM=F Big=F
 Integral buffers will be    131072 words long.
 Raffenetti 2 integral format.
 Two-electron integral symmetry is turned off.
 One-electron integrals computed using PRISM.
   1 Symmetry operations used in ECPInt.
 ECPInt:  NShTT=    3828 NPrTT=   11160 LenC2=    3812 LenP2D=    9468.
 LDataN:  DoStor=T MaxTD1= 6 Len=  172
 NBasis=   203 RedAO= T EigKep=  1.52D-04  NBF=   203
 NBsUse=   203 1.00D-06 EigRej= -1.00D+00 NBFU=   203
 The nuclear repulsion energy is now       162.3242955716 hartrees.
 Initial guess from the checkpoint file:  "checkpoint.chk"
 B after Tr=    -0.000590   -0.000175    0.000885
         Rot=    1.000000   -0.000117   -0.000084   -0.000263 Ang=  -0.03 deg.
 Requested convergence on RMS density matrix=1.00D-08 within 128 cycles.
 Requested convergence on MAX density matrix=1.00D-06.
 Requested convergence on             energy=1.00D-06.
 No special actions if energy rises.
 SCF Done:  E(RB3LYP) =  -195.278246208     A.U. after    9 cycles
            NFock=  9  Conv=0.84D-08     -V/T= 2.0056
   1 Symmetry operations used in ECPInt.
 ECPInt:  NShTT=    3828 NPrTT=   11160 LenC2=    3812 LenP2D=    9468.
 LDataN:  DoStor=T MaxTD1= 7 Len=  274
 Calling FoFJK, ICntrl=      2127 FMM=F ISym2X=0 I1Cent= 0 IOpClX= 0 NMat=1 NMatS=1 NMatT=0.
 -------------------------------------------------------------------
 Center     Atomic                   Forces (Hartrees/Bohr)
 Number     Number              X              Y              Z
 -------------------------------------------------------------------
      1        6          -0.000231472   -0.000187673    0.000000572
      2        6           0.000228721    0.000171384   -0.000000489
      3        6           0.000002006    0.000014915   -0.000001610
      4        1          -0.000000118    0.000000144   -0.000000092
      5        1           0.000000164   -0.000000337    0.000000068
      6        1          -0.000000398    0.000000256   -0.000000838
      7        1          -0.000000167   -0.000000570    0.000000331
      8        6          -0.000002044    0.000000052    0.000001084
      9        1          -0.000000092   -0.000000314   -0.000000049
     10        6           0.000003333    0.000001340   -0.000000770
     11        1           0.000000057    0.000000312    0.000000042
     12        1           0.000000045   -0.000000059    0.000001051
     13        1          -0.000000034    0.000000550    0.000000698
 -------------------------------------------------------------------
 Cartesian Forces:  Max     0.000231472 RMS     0.000066166
 -----------------------------------------------------------------------------------------------
                       Internal Coordinate Forces (Hartree/Bohr or radian)
  Cent   Atom   N1       Length/X         N2         Alpha/Y        N3         Beta/Z          J
 -----------------------------------------------------------------------------------------------
      1  C 
      2  C        1   0.000002(     1)
      3  C        1   0.000002(     2)      2   0.000005(    13)
      4  H        1   0.000000(     3)      2   0.000000(    14)      3  -0.000000(    24)     0
      5  H        1   0.000000(     4)      2  -0.000000(    15)      3  -0.000001(    25)     0
      6  H        3   0.000000(     5)      1  -0.000001(    16)      2  -0.000001(    26)     0
      7  H        3   0.000000(     6)      1  -0.000001(    17)      6  -0.000000(    27)     0
      8  C        2   0.000003(     7)      1   0.000006(    18)      3   0.000002(    28)     0
      9  H        2   0.000000(     8)      1  -0.000000(    19)      8   0.000000(    29)     0
     10  C        8   0.000003(     9)      2   0.000006(    20)      1  -0.000003(    30)     0
     11  H        8   0.000000(    10)      2   0.000000(    21)     10  -0.000000(    31)     0
     12  H       10  -0.000000(    11)      8   0.000000(    22)      2  -0.000001(    32)     0
     13  H       10   0.000001(    12)      8  -0.000001(    23)     12   0.000000(    33)     0
 -----------------------------------------------------------------------------------------------
 Internal  Forces:  Max     0.000005925 RMS     0.000002101

 GradGradGradGradGradGradGradGradGradGradGradGradGradGradGradGradGradGrad
 Berny optimization.
 Search for a saddle point.
 Step number   2 out of a maximum of   43
 All quantities printed in internal units (Hartrees-Bohrs-Radians)
 Swapping is turned off.
 Update second derivatives using D2CorN and points    1    2
 ITU=  0  0
     Eigenvalues ---   -0.15264   0.01509   0.01575   0.02488   0.04131
     Eigenvalues ---    0.05737   0.07695   0.10550   0.11665   0.11788
     Eigenvalues ---    0.13575   0.15418   0.16614   0.19490   0.23156
     Eigenvalues ---    0.24311   0.28215   0.29180   0.30868   0.32461
     Eigenvalues ---    0.32729   0.33581   0.33707   0.35309   0.35895
     Eigenvalues ---    0.36567   0.37115   0.37543   0.39777   0.40690
     Eigenvalues ---    0.47185   0.55553   0.89479
 Eigenvectors required to have negative eigenvalues:
                          D8        D12       A3        A8        D6
   1                    0.67325   0.36255  -0.34379   0.25292   0.25098
                          D9        A10       R8        D11       R10
   1                    0.21567   0.19736   0.15640  -0.12395  -0.11695
 RFO step:  Lambda0=8.523085016D-12 Lambda= 0.00000000D+00.
 Linear search not attempted -- option 19 set.
 Variable       Old X    -DE/DX   Delta X   Delta X   Delta X     New X
                                 (Linear)    (Quad)   (Total)
    R2        2.84630   0.00000   0.00000  -0.00000  -0.00000   2.84630
    R3        2.75419   0.00000   0.00000   0.00001   0.00001   2.75420
    R4        2.06447   0.00000   0.00000   0.00000   0.00000   2.06447
    R5        2.07018   0.00000   0.00000   0.00000   0.00000   2.07018
    R6        2.03918   0.00000   0.00000   0.00000   0.00000   2.03918
    R7        2.04184   0.00000   0.00000   0.00000   0.00000   2.04184
    R8        2.62203   0.00000   0.00000   0.00000   0.00000   2.62204
    R9        2.05246   0.00000   0.00000   0.00000   0.00000   2.05246
   R10        2.59279   0.00000   0.00000   0.00001   0.00001   2.59280
   R11        2.06528   0.00000   0.00000   0.00000   0.00000   2.06528
   R12        2.03492  -0.00000   0.00000  -0.00000  -0.00000   2.03492
   R13        2.05067   0.00000   0.00000   0.00000   0.00000   2.05068
    A3        1.80584   0.00001   0.00000   0.00001   0.00001   1.80585
    A4        1.95840   0.00000   0.00000  -0.00000  -0.00000   1.95840
    A5        1.88116  -0.00000   0.00000  -0.00000  -0.00000   1.88115
    A6        2.14416  -0.00000   0.00000  -0.00000  -0.00000   2.14416
    A7        2.07716  -0.00000   0.00000  -0.00000  -0.00000   2.07715
    A8        2.15531   0.00001   0.00000   0.00000   0.00000   2.15531
    A9        2.05011  -0.00000   0.00000  -0.00000  -0.00000   2.05011
   A10        2.23546   0.00001   0.00000   0.00000   0.00000   2.23547
   A11        1.99813   0.00000   0.00000  -0.00000  -0.00000   1.99813
   A12        2.11183   0.00000   0.00000  -0.00000  -0.00000   2.11183
   A13        2.11134  -0.00000   0.00000  -0.00001  -0.00001   2.11133
    D4       -2.15261  -0.00000   0.00000  -0.00001  -0.00001  -2.15262
    D5        2.06685  -0.00000   0.00000  -0.00000  -0.00000   2.06685
    D6       -1.97464  -0.00000   0.00000  -0.00002  -0.00002  -1.97466
    D7        3.13121  -0.00000   0.00000   0.00001   0.00001   3.13122
    D8        0.87131   0.00000   0.00000   0.00001   0.00001   0.87132
    D9        3.10614   0.00000   0.00000  -0.00001  -0.00001   3.10613
   D10       -0.53206  -0.00000   0.00000  -0.00001  -0.00001  -0.53208
   D11        3.10054  -0.00000   0.00000   0.00000   0.00000   3.10054
   D12       -0.60503  -0.00000   0.00000  -0.00001  -0.00001  -0.60503
   D13       -2.95029   0.00000   0.00000   0.00002   0.00002  -2.95027
         Item               Value     Threshold  Converged?
 Maximum Force            0.000006     0.000450     YES
 RMS     Force            0.000002     0.000300     YES
 Maximum Displacement     0.000021     0.001800     YES
 RMS     Displacement     0.000007     0.001200     YES
 Predicted change in Energy=-1.231054D-10
 Optimization completed.
    -- Stationary point found.
                       ----------------------------
                       !   Optimized Parameters   !
                       ! (Angstroms and Degrees)  !
 ----------------------                            ----------------------
 !      Name          Value   Derivative information (Atomic Units)     !
 ------------------------------------------------------------------------
 !       R2          1.5062   -DE/DX =    0.0                           !
 !       R3          1.4575   -DE/DX =    0.0                           !
 !       R4          1.0925   -DE/DX =    0.0                           !
 !       R5          1.0955   -DE/DX =    0.0                           !
 !       R6          1.0791   -DE/DX =    0.0                           !
 !       R7          1.0805   -DE/DX =    0.0                           !
 !       R8          1.3875   -DE/DX =    0.0                           !
 !       R9          1.0861   -DE/DX =    0.0                           !
 !       R10         1.372    -DE/DX =    0.0                           !
 !       R11         1.0929   -DE/DX =    0.0                           !
 !       R12         1.0768   -DE/DX =    0.0                           !
 !       R13         1.0852   -DE/DX =    0.0                           !
 !       A3        103.4673   -DE/DX =    0.0                           !
 !       A4        112.2081   -DE/DX =    0.0                           !
 !       A5        107.7822   -DE/DX =    0.0                           !
 !       A6        122.8514   -DE/DX =    0.0                           !
 !       A7        119.0124   -DE/DX =    0.0                           !
 !       A8        123.4899   -DE/DX =    0.0                           !
 !       A9        117.4625   -DE/DX =    0.0                           !
 !       A10       128.0826   -DE/DX =    0.0                           !
 !       A11       114.4844   -DE/DX =    0.0                           !
 !       A12       120.9987   -DE/DX =    0.0                           !
 !       A13       120.9706   -DE/DX =    0.0                           !
 !       D4       -123.3356   -DE/DX =    0.0                           !
 !       D5        118.4219   -DE/DX =    0.0                           !
 !       D6       -113.1387   -DE/DX =    0.0                           !
 !       D7        179.4053   -DE/DX =    0.0                           !
 !       D8         49.9225   -DE/DX =    0.0                           !
 !       D9        177.9686   -DE/DX =    0.0                           !
 !       D10       -30.4849   -DE/DX =    0.0                           !
 !       D11       177.6478   -DE/DX =    0.0                           !
 !       D12       -34.6655   -DE/DX =    0.0                           !
 !       D13      -169.0393   -DE/DX =    0.0                           !
 ------------------------------------------------------------------------
 GradGradGradGradGradGradGradGradGradGradGradGradGradGradGradGradGradGrad

 ---------------------------------------------------------------------------------------------------
                            Z-MATRIX (ANGSTROMS AND DEGREES)
   CD    Cent   Atom    N1       Length/X        N2       Alpha/Y        N3        Beta/Z          J
 ---------------------------------------------------------------------------------------------------
      1      1  C 
      2      2  C        1   1.506197(     1)
      3      3  C        1   1.457457(     2)      2  103.467(    13)
      4      4  H        1   1.092472(     3)      2  112.208(    14)      3 -123.336(    24)      0
      5      5  H        1   1.095491(     4)      2  107.782(    15)      3  118.422(    25)      0
      6      6  H        3   1.079086(     5)      1  122.851(    16)      2 -113.139(    26)      0
      7      7  H        3   1.080497(     6)      1  119.012(    17)      6  179.405(    27)      0
      8      8  C        2   1.387520(     7)      1  123.490(    18)      3   49.923(    28)      0
      9      9  H        2   1.086115(     8)      1  117.463(    19)      8  177.969(    29)      0
     10     10  C        8   1.372045(     9)      2  128.083(    20)      1  -30.485(    30)      0
     11     11  H        8   1.092900(    10)      2  114.484(    21)     10  177.648(    31)      0
     12     12  H       10   1.076833(    11)      8  120.999(    22)      2  -34.665(    32)      0
     13     13  H       10   1.085170(    12)      8  120.971(    23)     12 -169.039(    33)      0
 ---------------------------------------------------------------------------------------------------
                         Z-Matrix orientation:                         
 ---------------------------------------------------------------------
 Center     Atomic      Atomic             Coordinates (Angstroms)
 Number     Number       Type             X           Y           Z
 ---------------------------------------------------------------------
      1          6           0        0.000000    0.000000    0.000000
      2          6           0        0.000000    0.000000    1.506197
      3          6           0        1.417381    0.000000   -0.339427
      4          1           0       -0.555822    0.845015   -0.412922
      5          1           0       -0.496500   -0.917419   -0.334563
      6          1           0        1.903688    0.833595   -0.822181
      7          1           0        2.015581   -0.864998   -0.091618
      8          6           0        0.745011    0.885436    2.271816
      9          1           0       -0.646216   -0.714960    2.007079
     10          6           0        1.949257    1.465689    1.962613
     11          1           0        0.278645    1.168874    3.218704
     12          1           0        2.691862    0.932587    1.393483
     13          1           0        2.255353    2.397887    2.426192
 ---------------------------------------------------------------------
                    Distance matrix (angstroms):
                    1          2          3          4          5
     1  C    0.000000
     2  C    1.506197   0.000000
     3  C    1.457457   2.327079   0.000000
     4  H    1.092472   2.169334   2.147786   0.000000
     5  H    1.095491   2.115790   2.122409   1.765172   0.000000
     6  H    2.234925   3.120938   1.079086   2.493354   3.010767
     7  H    2.195264   2.713633   1.080497   3.104754   2.524346
     8  C    2.549546   1.387520   2.838075   2.983559   3.403652
     9  H    2.226461   1.086115   3.205572   2.880642   2.355142
    10  C    3.130447   2.481161   2.780382   3.507681   4.115573
    11  H    3.435689   2.092030   3.914496   3.740311   4.192752
    12  H    3.171377   2.851060   2.344567   3.717286   4.071156
    13  H    4.089363   3.418021   3.755091   4.286571   5.117198
                    6          7          8          9         10
     6  H    0.000000
     7  H    1.852421   0.000000
     8  C    3.304245   3.203777   0.000000
     9  H    4.111538   3.392964   2.137023   0.000000
    10  C    2.855993   3.107470   1.372045   3.390234   0.000000
    11  H    4.368286   4.255797   1.092900   2.423269   2.111114
    12  H    2.353759   2.427795   2.136333   3.772754   1.076833
    13  H    3.622513   4.128350   2.143006   4.276047   1.085170
                   11         12         13
    11  H    0.000000
    12  H    3.034942   0.000000
    13  H    2.458846   1.845029   0.000000
 Symmetry turned off by external request.
 Stoichiometry    C5H8
 Framework group  C1[X(C5H8)]
 Deg. of freedom    33
 Full point group                 C1      NOp   1
 Rotational constants (GHZ):           8.5012665           4.4823107           3.1888098
 1\1\GINC-BHC0034\FTS\RB3LYP\def2TZVP\C5H8\DHANAWAY\10-Jun-2022\1\\# Op
 t=(TS, CalcFC, noeigentest, Z-matrix, MaxStep=10) geom=allcheckpoint g
 uess=read Field=read NoSymm B3LYP/Def2TZVP freq=noraman pop=none\\ts_z
 mat_initalOpt\\0,1\C\C,1,R2\C,1,R3,2,A3\H,1,R4,2,A4,3,D4,0\H,1,R5,2,A5
 ,3,D5,0\H,3,R6,1,A6,2,D6,0\H,3,R7,1,A7,6,D7,0\C,2,R8,1,A8,3,D8,0\H,2,R
 9,1,A9,8,D9,0\C,8,R10,2,A10,1,D10,0\H,8,R11,2,A11,10,D11,0\H,10,R12,8,
 A12,2,D12,0\H,10,R13,8,A13,12,D13,0\\R2=1.50619701\R3=1.45745662\R4=1.
 09247151\R5=1.09549137\R6=1.07908616\R7=1.08049735\R8=1.38751964\R9=1.
 08611519\R10=1.37204494\R11=1.09289957\R12=1.07683329\R13=1.08516986\A
 3=103.46726035\A4=112.20805486\A5=107.78224946\A6=122.85141196\A7=119.
 01236401\A8=123.4898861\A9=117.46251644\A10=128.08263009\A11=114.48441
 59\A12=120.99871806\A13=120.97060073\D4=-123.33556105\D5=118.42189639\
 D6=-113.13870109\D7=179.40529519\D8=49.92254746\D9=177.96863823\D10=-3
 0.48485346\D11=177.6477549\D12=-34.66548858\D13=-169.03932481\\Version
 =ES64L-G16RevA.03\HF=-195.2782462\RMSD=8.360e-09\RMSF=6.617e-05\Dipole
 =-0.4888536,-0.3794787,-0.1558204\PG=C01 [X(C5H8)]\\@


 Discoveries are often made by not following instructions,
 by going off the main road, by trying the untried.
 -- Frank Tyger
 Job cpu time:       0 days  0 hours 31 minutes 15.9 seconds.
 Elapsed time:       0 days  0 hours  2 minutes 37.1 seconds.
 File lengths (MBytes):  RWF=     46 Int=      0 D2E=      0 Chk=     32 Scr=      1
 Normal termination of Gaussian 16 at Fri Jun 10 02:52:56 2022.
 Link1:  Proceeding to internal job step number  2.
 --------------------------------------------------------------------
 #N Geom=AllCheck Guess=TCheck SCRF=Check GenChk RB3LYP/def2TZVP Freq
 --------------------------------------------------------------------
 1/5=1,8=10,10=4,11=1,29=7,30=1,38=1,40=1/1,3;
 2/12=2,15=1,40=1/2;
 3/5=44,7=101,11=2,14=-4,25=1,30=1,70=2,71=2,74=-5,116=1,140=1/1,2,3;
 4/5=101/1;
 5/5=2,38=6,98=1/2;
 8/6=4,10=90,11=11/1;
 11/6=1,8=1,9=11,15=111,16=1,31=1/1,2,10;
 10/6=1,31=1/2;
 7/8=1,10=1,25=1,30=1/1,2,3,16;
 1/5=1,8=10,10=4,11=1,30=1/3;
 99//99;
 Structure from the checkpoint file:  "checkpoint.chk"
 -----------------
 ts_zmat_initalOpt
 -----------------
 Charge =  0 Multiplicity = 1
 Z-Matrix found in chk file.
 C
 C,1,R2
 C,1,R3,2,A3
 H,1,R4,2,A4,3,D4,0
 H,1,R5,2,A5,3,D5,0
 H,3,R6,1,A6,2,D6,0
 H,3,R7,1,A7,6,D7,0
 C,2,R8,1,A8,3,D8,0
 H,2,R9,1,A9,8,D9,0
 C,8,R10,2,A10,1,D10,0
 H,8,R11,2,A11,10,D11,0
 H,10,R12,8,A12,2,D12,0
 H,10,R13,8,A13,12,D13,0
      Variables:
 R2=1.50619701
 R3=1.45745662
 R4=1.09247151
 R5=1.09549137
 R6=1.07908616
 R7=1.08049735
 R8=1.38751964
 R9=1.08611519
 R10=1.37204494
 R11=1.09289957
 R12=1.07683329
 R13=1.08516986
 A3=103.46726035
 A4=112.20805486
 A5=107.78224946
 A6=122.85141196
 A7=119.01236401
 A8=123.4898861
 A9=117.46251644
 A10=128.08263009
 A11=114.4844159
 A12=120.99871806
 A13=120.97060073
 D4=-123.33556105
 D5=118.42189639
 D6=-113.13870109
 D7=179.40529519
 D8=49.92254746
 D9=177.96863823
 D10=-30.48485346
 D11=177.6477549
 D12=-34.66548858
 D13=-169.03932481
 Recover connectivity data from disk.

 GradGradGradGradGradGradGradGradGradGradGradGradGradGradGradGradGradGrad
 Berny optimization.
 Initialization pass.
                       ----------------------------
                       !    Initial Parameters    !
                       ! (Angstroms and Degrees)  !
 ----------------------                            ----------------------
 !      Name          Value   Derivative information (Atomic Units)     !
 ------------------------------------------------------------------------
 !       R2          1.5062   calculate D2E/DX2 analytically            !
 !       R3          1.4575   calculate D2E/DX2 analytically            !
 !       R4          1.0925   calculate D2E/DX2 analytically            !
 !       R5          1.0955   calculate D2E/DX2 analytically            !
 !       R6          1.0791   calculate D2E/DX2 analytically            !
 !       R7          1.0805   calculate D2E/DX2 analytically            !
 !       R8          1.3875   calculate D2E/DX2 analytically            !
 !       R9          1.0861   calculate D2E/DX2 analytically            !
 !       R10         1.372    calculate D2E/DX2 analytically            !
 !       R11         1.0929   calculate D2E/DX2 analytically            !
 !       R12         1.0768   calculate D2E/DX2 analytically            !
 !       R13         1.0852   calculate D2E/DX2 analytically            !
 !       A3        103.4673   calculate D2E/DX2 analytically            !
 !       A4        112.2081   calculate D2E/DX2 analytically            !
 !       A5        107.7822   calculate D2E/DX2 analytically            !
 !       A6        122.8514   calculate D2E/DX2 analytically            !
 !       A7        119.0124   calculate D2E/DX2 analytically            !
 !       A8        123.4899   calculate D2E/DX2 analytically            !
 !       A9        117.4625   calculate D2E/DX2 analytically            !
 !       A10       128.0826   calculate D2E/DX2 analytically            !
 !       A11       114.4844   calculate D2E/DX2 analytically            !
 !       A12       120.9987   calculate D2E/DX2 analytically            !
 !       A13       120.9706   calculate D2E/DX2 analytically            !
 !       D4       -123.3356   calculate D2E/DX2 analytically            !
 !       D5        118.4219   calculate D2E/DX2 analytically            !
 !       D6       -113.1387   calculate D2E/DX2 analytically            !
 !       D7        179.4053   calculate D2E/DX2 analytically            !
 !       D8         49.9225   calculate D2E/DX2 analytically            !
 !       D9        177.9686   calculate D2E/DX2 analytically            !
 !       D10       -30.4849   calculate D2E/DX2 analytically            !
 !       D11       177.6478   calculate D2E/DX2 analytically            !
 !       D12       -34.6655   calculate D2E/DX2 analytically            !
 !       D13      -169.0393   calculate D2E/DX2 analytically            !
 ------------------------------------------------------------------------
 Trust Radius=1.00D-01 FncErr=1.00D-07 GrdErr=1.00D-07 EigMax=2.50D+02 EigMin=1.00D-04
 Number of steps in this run=      2 maximum allowed number of steps=      2.
 Search for a saddle point of order  1.
 GradGradGradGradGradGradGradGradGradGradGradGradGradGradGradGradGradGrad

                          Input orientation:                          
 ---------------------------------------------------------------------
 Center     Atomic      Atomic             Coordinates (Angstroms)
 Number     Number       Type             X           Y           Z
 ---------------------------------------------------------------------
      1          6           0        0.000000    0.000000    0.000000
      2          6           0        0.000000    0.000000    1.506197
      3          6           0        1.417381    0.000000   -0.339427
      4          1           0       -0.555822    0.845015   -0.412922
      5          1           0       -0.496500   -0.917419   -0.334563
      6          1           0        1.903688    0.833595   -0.822181
      7          1           0        2.015581   -0.864998   -0.091618
      8          6           0        0.745011    0.885436    2.271816
      9          1           0       -0.646216   -0.714960    2.007079
     10          6           0        1.949257    1.465689    1.962613
     11          1           0        0.278645    1.168874    3.218704
     12          1           0        2.691862    0.932587    1.393483
     13          1           0        2.255353    2.397887    2.426192
 ---------------------------------------------------------------------
                    Distance matrix (angstroms):
                    1          2          3          4          5
     1  C    0.000000
     2  C    1.506197   0.000000
     3  C    1.457457   2.327079   0.000000
     4  H    1.092472   2.169334   2.147786   0.000000
     5  H    1.095491   2.115790   2.122409   1.765172   0.000000
     6  H    2.234925   3.120938   1.079086   2.493354   3.010767
     7  H    2.195264   2.713633   1.080497   3.104754   2.524346
     8  C    2.549546   1.387520   2.838075   2.983559   3.403652
     9  H    2.226461   1.086115   3.205572   2.880642   2.355142
    10  C    3.130447   2.481161   2.780382   3.507681   4.115573
    11  H    3.435689   2.092030   3.914496   3.740311   4.192752
    12  H    3.171377   2.851060   2.344567   3.717286   4.071156
    13  H    4.089363   3.418021   3.755091   4.286571   5.117198
                    6          7          8          9         10
     6  H    0.000000
     7  H    1.852421   0.000000
     8  C    3.304245   3.203777   0.000000
     9  H    4.111538   3.392964   2.137023   0.000000
    10  C    2.855993   3.107470   1.372045   3.390234   0.000000
    11  H    4.368286   4.255797   1.092900   2.423269   2.111114
    12  H    2.353759   2.427795   2.136333   3.772754   1.076833
    13  H    3.622513   4.128350   2.143006   4.276047   1.085170
                   11         12         13
    11  H    0.000000
    12  H    3.034942   0.000000
    13  H    2.458846   1.845029   0.000000
 Symmetry turned off by external request.
 Stoichiometry    C5H8
 Framework group  C1[X(C5H8)]
 Deg. of freedom    33
 Full point group                 C1      NOp   1
 Rotational constants (GHZ):           8.5012665           4.4823107           3.1888098
 Standard basis: def2TZVP (5D, 7F)
 The following finite field(s) will be applied:
 An electric field of              0.0039  0.0031  0.0001
   203 basis functions,   319 primitive gaussians,   228 cartesian basis functions
    19 alpha electrons       19 beta electrons
       nuclear repulsion energy       161.9781685879 Hartrees.
 NAtoms=   13 NActive=   13 NUniq=   13 SFac= 1.00D+00 NAtFMM=   60 NAOKFM=F Big=F
 Integral buffers will be    131072 words long.
 Raffenetti 2 integral format.
 Two-electron integral symmetry is turned off.
 One-electron integrals computed using PRISM.
   1 Symmetry operations used in ECPInt.
 ECPInt:  NShTT=    3828 NPrTT=   11160 LenC2=    3812 LenP2D=    9468.
 LDataN:  DoStor=T MaxTD1= 6 Len=  172
 NBasis=   203 RedAO= T EigKep=  1.52D-04  NBF=   203
 NBsUse=   203 1.00D-06 EigRej= -1.00D+00 NBFU=   203
 The nuclear repulsion energy is now       162.3242955716 hartrees.
 Initial guess from the checkpoint file:  "checkpoint.chk"
 B after Tr=     0.000000    0.000000    0.000000
         Rot=    1.000000    0.000000    0.000000    0.000000 Ang=   0.00 deg.
 Requested convergence on RMS density matrix=1.00D-08 within 128 cycles.
 Requested convergence on MAX density matrix=1.00D-06.
 Requested convergence on             energy=1.00D-06.
 No special actions if energy rises.
 SCF Done:  E(RB3LYP) =  -195.278246208     A.U. after    1 cycles
            NFock=  1  Conv=0.32D-08     -V/T= 2.0056
 DoSCS=F DFT=T ScalE2(SS,OS)=  1.000000  1.000000
 Range of M.O.s used for correlation:     1   203
 NBasis=   203 NAE=    19 NBE=    19 NFC=     0 NFV=     0
 NROrb=    203 NOA=    19 NOB=    19 NVA=   184 NVB=   184

 **** Warning!!: The largest alpha MO coefficient is  0.20628247D+02

   1 Symmetry operations used in ECPInt.
 ECPInt:  NShTT=    3828 NPrTT=   11160 LenC2=    3812 LenP2D=    9468.
 LDataN:  DoStor=T MaxTD1= 7 Len=  274
 Symmetrizing basis deriv contribution to polar:
 IMax=3 JMax=2 DiffMx= 0.00D+00
 G2DrvN: will do    14 centers at a time, making    1 passes.
 Calling FoFCou, ICntrl=  3107 FMM=F I1Cent=   0 AccDes= 0.00D+00.
 End of G2Drv F.D. properties file   721 does not exist.
 End of G2Drv F.D. properties file   722 does not exist.
 End of G2Drv F.D. properties file   788 does not exist.
          IDoAtm=1111111111111
          Differentiating once with respect to electric field.
                with respect to dipole field.
          Differentiating once with respect to nuclear coordinates.
 Keep R1 ints in memory in canonical form, NReq=227048987.
          There are    42 degrees of freedom in the 1st order CPHF.  IDoFFX=6 NUNeed=     3.
     39 vectors produced by pass  0 Test12= 8.32D-15 2.38D-09 XBig12= 1.42D+02 7.38D+00.
 AX will form    39 AO Fock derivatives at one time.
     39 vectors produced by pass  1 Test12= 8.32D-15 2.38D-09 XBig12= 1.92D+01 1.06D+00.
     39 vectors produced by pass  2 Test12= 8.32D-15 2.38D-09 XBig12= 2.67D-01 7.26D-02.
     39 vectors produced by pass  3 Test12= 8.32D-15 2.38D-09 XBig12= 8.25D-04 4.00D-03.
     39 vectors produced by pass  4 Test12= 8.32D-15 2.38D-09 XBig12= 1.28D-06 1.53D-04.
     29 vectors produced by pass  5 Test12= 8.32D-15 2.38D-09 XBig12= 1.21D-09 4.05D-06.
      4 vectors produced by pass  6 Test12= 8.32D-15 2.38D-09 XBig12= 1.24D-12 1.14D-07.
      3 vectors produced by pass  7 Test12= 8.32D-15 2.38D-09 XBig12= 1.22D-15 4.56D-09.
 InvSVY:  IOpt=1 It=  1 EMax= 2.84D-14
 Solved reduced A of dimension   231 with    42 vectors.
 Isotropic polarizability for W=    0.000000       74.74 Bohr**3.
 End of Minotr F.D. properties file   721 does not exist.
 End of Minotr F.D. properties file   722 does not exist.
 End of Minotr F.D. properties file   788 does not exist.
   1 Symmetry operations used in ECPInt.
 ECPInt:  NShTT=    3828 NPrTT=   11160 LenC2=    3812 LenP2D=    9468.
 LDataN:  DoStor=T MaxTD1= 8 Len=  415
 Calling FoFJK, ICntrl=    100127 FMM=F ISym2X=0 I1Cent= 0 IOpClX= 0 NMat=1 NMatS=1 NMatT=0.
 Full mass-weighted force constant matrix:
 Low frequencies --- -419.5850   -0.0004    0.0001    0.0006    1.8990    8.4531
 Low frequencies ---   14.3183  220.2636  260.3529
 ******    1 imaginary frequencies (negative Signs) ****** 
 Diagonal vibrational polarizability:
        2.7299339       4.2091644       5.4299976
 Harmonic frequencies (cm**-1), IR intensities (KM/Mole), Raman scattering
 activities (A**4/AMU), depolarization ratios for plane and unpolarized
 incident light, reduced masses (AMU), force constants (mDyne/A),
 and normal coordinates:
                      1                      2                      3
                      A                      A                      A
 Frequencies --   -419.5849               220.2635               260.3495
 Red. masses --      1.9547                 2.2180                 2.2912
 Frc consts  --      0.2028                 0.0634                 0.0915
 IR Inten    --      0.1387                 0.5213                 1.2542
  Atom  AN      X      Y      Z        X      Y      Z        X      Y      Z
     1   6     0.09  -0.03   0.07    -0.02  -0.16  -0.03    -0.07  -0.04  -0.03
     2   6    -0.12   0.04   0.07    -0.03   0.10  -0.02     0.05  -0.07  -0.02
     3   6     0.07   0.13  -0.01    -0.04   0.05  -0.13    -0.02   0.15   0.20
     4   1    -0.03  -0.12   0.03    -0.27  -0.42  -0.21    -0.16  -0.11  -0.03
     5   1     0.20  -0.09   0.05     0.20  -0.37   0.21     0.10  -0.12  -0.04
     6   1    -0.10  -0.01  -0.42    -0.21   0.13  -0.16    -0.01   0.31   0.49
     7   1     0.18   0.24   0.12     0.14   0.19  -0.08    -0.02   0.08  -0.05
     8   6    -0.03  -0.07   0.01     0.00   0.08  -0.01    -0.04   0.10  -0.09
     9   1    -0.42   0.30   0.05    -0.03   0.15   0.05     0.21  -0.19   0.02
    10   6    -0.00  -0.08  -0.13     0.09  -0.04   0.18     0.06  -0.12  -0.07
    11   1     0.08  -0.06   0.06    -0.05   0.10  -0.04    -0.12   0.29  -0.19
    12   1     0.12  -0.27   0.22     0.01   0.02   0.02     0.08  -0.37   0.21
    13   1    -0.06   0.06  -0.36     0.18  -0.16   0.37     0.16  -0.09  -0.19
                      4                      5                      6
                      A                      A                      A
 Frequencies --    372.1444               543.8362               583.8619
 Red. masses --      2.2480                 1.2733                 1.3135
 Frc consts  --      0.1834                 0.2219                 0.2638
 IR Inten    --      6.8642                 7.3975                 3.9218
  Atom  AN      X      Y      Z        X      Y      Z        X      Y      Z
     1   6    -0.06  -0.04  -0.09    -0.03  -0.00  -0.01    -0.02  -0.01   0.04
     2   6    -0.09   0.10  -0.08     0.01  -0.03  -0.01     0.00  -0.08  -0.02
     3   6    -0.02   0.03   0.19    -0.04  -0.01   0.01    -0.02   0.01   0.02
     4   1    -0.11  -0.17  -0.29    -0.07  -0.00   0.04     0.15   0.17   0.18
     5   1     0.09  -0.17   0.05    -0.02  -0.01  -0.01    -0.22   0.16  -0.15
     6   1     0.03   0.01   0.22    -0.00  -0.02   0.03    -0.15  -0.13  -0.36
     7   1    -0.02   0.10   0.43    -0.14  -0.17  -0.28     0.16   0.31   0.63
     8   6     0.12  -0.14  -0.02     0.04  -0.06  -0.06    -0.00   0.02  -0.12
     9   1    -0.04   0.06  -0.05    -0.23   0.20  -0.00     0.02  -0.04   0.05
    10   6     0.03   0.07  -0.04     0.05   0.08   0.06     0.05   0.00   0.04
    11   1     0.29  -0.40   0.14    -0.08   0.02  -0.14    -0.04   0.08  -0.16
    12   1     0.08   0.34  -0.23     0.43   0.01   0.60     0.13   0.10   0.05
    13   1    -0.06  -0.00   0.16    -0.31   0.25  -0.05    -0.03  -0.05   0.20
                      7                      8                      9
                      A                      A                      A
 Frequencies --    647.7250               700.4970               753.9259
 Red. masses --      1.4427                 1.3977                 1.2404
 Frc consts  --      0.3566                 0.4041                 0.4154
 IR Inten    --     20.5492                37.5332                58.3355
  Atom  AN      X      Y      Z        X      Y      Z        X      Y      Z
     1   6     0.03  -0.02   0.07    -0.03  -0.04  -0.05     0.02  -0.02   0.01
     2   6    -0.11  -0.03   0.05     0.03   0.06  -0.00    -0.05   0.01   0.03
     3   6     0.04  -0.02  -0.08    -0.02  -0.05  -0.10     0.02   0.01   0.04
     4   1     0.14   0.09   0.14     0.13   0.06  -0.05     0.08   0.05   0.06
     5   1    -0.07   0.09  -0.07    -0.22   0.05   0.03    -0.01   0.04  -0.07
     6   1     0.06   0.40   0.67    -0.01   0.20   0.32    -0.07  -0.07  -0.18
     7   1     0.18   0.08  -0.07     0.19   0.23   0.39    -0.03  -0.14  -0.36
     8   6     0.02  -0.02  -0.08    -0.01  -0.01   0.09    -0.03   0.02  -0.06
     9   1    -0.24   0.12   0.10     0.18  -0.09  -0.02     0.15  -0.12   0.11
    10   6     0.02   0.00  -0.02    -0.03   0.03  -0.06    -0.03   0.06  -0.07
    11   1     0.04   0.14  -0.12     0.03  -0.14   0.15     0.21  -0.23   0.13
    12   1     0.04   0.22  -0.20     0.17  -0.30   0.53     0.11  -0.10   0.26
    13   1    -0.05  -0.07   0.17     0.09  -0.03  -0.01     0.25  -0.35   0.57
                     10                     11                     12
                      A                      A                      A
 Frequencies --    771.8634               831.9249               897.7441
 Red. masses --      1.3908                 1.5274                 1.4789
 Frc consts  --      0.4882                 0.6228                 0.7022
 IR Inten    --     10.5968                 9.0307                 4.3569
  Atom  AN      X      Y      Z        X      Y      Z        X      Y      Z
     1   6     0.01   0.10   0.08    -0.02  -0.06   0.04     0.00  -0.01  -0.05
     2   6     0.08  -0.04  -0.02     0.16   0.02  -0.09    -0.02   0.00   0.01
     3   6    -0.02  -0.00  -0.06    -0.01  -0.01   0.07    -0.01   0.01   0.03
     4   1    -0.36  -0.20  -0.03     0.14   0.09   0.12     0.06   0.02  -0.09
     5   1     0.34  -0.15   0.24    -0.22   0.06   0.02    -0.02   0.00  -0.05
     6   1     0.35  -0.10   0.14    -0.27   0.13   0.04    -0.13  -0.02  -0.14
     7   1    -0.26  -0.05   0.38     0.17   0.05  -0.18     0.05   0.03  -0.05
     8   6    -0.01  -0.01  -0.03    -0.02  -0.00   0.01     0.10  -0.07   0.12
     9   1    -0.19   0.16  -0.09    -0.47   0.57  -0.13    -0.06  -0.02  -0.07
    10   6    -0.05   0.01  -0.05    -0.04   0.01  -0.02    -0.05   0.02  -0.07
    11   1    -0.05   0.01  -0.06    -0.07  -0.20   0.04    -0.34   0.72  -0.33
    12   1     0.03  -0.04   0.10    -0.16  -0.05  -0.11     0.04   0.05   0.03
    13   1     0.09  -0.22   0.31     0.16  -0.13   0.10     0.06  -0.21   0.32
                     13                     14                     15
                      A                      A                      A
 Frequencies --    931.3650              1031.0461              1062.8608
 Red. masses --      1.8517                 1.5590                 1.6728
 Frc consts  --      0.9464                 0.9764                 1.1134
 IR Inten    --      3.2340                 0.1923                15.3442
  Atom  AN      X      Y      Z        X      Y      Z        X      Y      Z
     1   6     0.05   0.06   0.15     0.04   0.04   0.07    -0.05  -0.12   0.07
     2   6     0.02   0.13  -0.09    -0.08  -0.03  -0.05    -0.00   0.12  -0.07
     3   6    -0.02  -0.05   0.02    -0.03  -0.03   0.01     0.07   0.08  -0.03
     4   1     0.07  -0.04  -0.08     0.03  -0.03  -0.07    -0.15   0.04   0.51
     5   1    -0.05  -0.02   0.52     0.11  -0.01   0.11    -0.20   0.07  -0.19
     6   1    -0.30   0.10  -0.01    -0.16   0.06   0.03     0.45  -0.13  -0.00
     7   1     0.21   0.07  -0.16     0.08   0.04  -0.02    -0.25  -0.14   0.04
     8   6     0.00  -0.05  -0.07     0.04  -0.07  -0.04     0.04  -0.07  -0.01
     9   1     0.41  -0.22  -0.11     0.02  -0.15  -0.09     0.28   0.07   0.24
    10   6    -0.06  -0.09  -0.02     0.03   0.13   0.05    -0.04   0.00   0.01
    11   1    -0.09   0.02  -0.14    -0.33  -0.14  -0.20    -0.25  -0.03  -0.17
    12   1     0.13   0.10   0.06    -0.33  -0.38   0.04    -0.14  -0.10  -0.02
    13   1    -0.40  -0.01   0.04     0.60   0.09  -0.25     0.04  -0.00  -0.04
                     16                     17                     18
                      A                      A                      A
 Frequencies --   1129.6300              1153.9572              1221.3839
 Red. masses --      2.2099                 1.9479                 1.2358
 Frc consts  --      1.6615                 1.5282                 1.0862
 IR Inten    --     17.9435                 0.1443                 5.7354
  Atom  AN      X      Y      Z        X      Y      Z        X      Y      Z
     1   6    -0.20   0.09  -0.05     0.10   0.02  -0.11     0.06  -0.05  -0.07
     2   6     0.01  -0.04   0.07     0.07   0.04   0.14    -0.01  -0.02   0.04
     3   6     0.21  -0.02  -0.00    -0.11   0.01   0.00    -0.01   0.07  -0.00
     4   1    -0.27  -0.07  -0.28     0.27   0.07  -0.20     0.17   0.09   0.08
     5   1    -0.33  -0.01   0.41     0.13  -0.03  -0.04    -0.48  -0.03   0.71
     6   1     0.10  -0.02  -0.14    -0.09   0.03   0.06     0.19  -0.05   0.00
     7   1     0.46   0.10  -0.13    -0.17   0.01   0.11    -0.25  -0.08   0.04
     8   6     0.03  -0.03  -0.06     0.05  -0.04  -0.11    -0.02  -0.00  -0.02
     9   1     0.01   0.14   0.34     0.15   0.32   0.63    -0.14  -0.11  -0.23
    10   6    -0.04   0.01   0.03    -0.09  -0.03   0.04     0.02   0.01   0.00
    11   1     0.01   0.00  -0.07    -0.16  -0.16  -0.18    -0.03  -0.00  -0.03
    12   1    -0.16  -0.14   0.02    -0.25  -0.19  -0.01    -0.01   0.02  -0.05
    13   1     0.02  -0.01   0.00    -0.12  -0.03   0.01     0.06  -0.01   0.01
                     19                     20                     21
                      A                      A                      A
 Frequencies --   1266.4631              1306.0296              1400.0678
 Red. masses --      1.2595                 1.3047                 1.3515
 Frc consts  --      1.1902                 1.3112                 1.5608
 IR Inten    --     18.5383                 6.3828                 2.7021
  Atom  AN      X      Y      Z        X      Y      Z        X      Y      Z
     1   6     0.01  -0.02   0.02     0.07   0.04  -0.12     0.05   0.02   0.01
     2   6     0.00   0.00  -0.03    -0.01   0.02   0.01    -0.03  -0.06  -0.13
     3   6    -0.01   0.01  -0.00    -0.00  -0.07   0.03     0.00   0.01  -0.00
     4   1     0.06  -0.00  -0.01    -0.57   0.02   0.72     0.01  -0.05  -0.07
     5   1    -0.02   0.01  -0.04     0.03  -0.02   0.11    -0.12   0.04   0.19
     6   1     0.03  -0.01   0.00    -0.28   0.09   0.03    -0.12   0.08   0.00
     7   1    -0.05  -0.01   0.02     0.15   0.04   0.04    -0.16  -0.08   0.05
     8   6     0.07  -0.01  -0.05     0.00  -0.00  -0.01    -0.07  -0.03   0.05
     9   1    -0.07  -0.02  -0.17     0.01  -0.00   0.01     0.18   0.26   0.62
    10   6    -0.09   0.01   0.07    -0.01  -0.00   0.01    -0.00   0.01   0.01
    11   1     0.72   0.43   0.13     0.07   0.04   0.01     0.24   0.25   0.11
    12   1    -0.30  -0.32   0.11    -0.03  -0.02  -0.00     0.22   0.24   0.05
    13   1    -0.07   0.04  -0.04     0.01  -0.00  -0.01     0.32   0.00  -0.16
                     22                     23                     24
                      A                      A                      A
 Frequencies --   1422.6202              1480.8711              1496.8785
 Red. masses --      1.1100                 1.2587                 1.4577
 Frc consts  --      1.3235                 1.6263                 1.9244
 IR Inten    --     12.3377                 6.8396                 2.1159
  Atom  AN      X      Y      Z        X      Y      Z        X      Y      Z
     1   6    -0.09  -0.00  -0.03     0.03  -0.00  -0.01    -0.05  -0.01   0.00
     2   6     0.00   0.01  -0.02     0.03   0.04   0.04     0.05   0.07   0.10
     3   6    -0.00  -0.00  -0.01    -0.10  -0.00   0.02     0.09  -0.00  -0.02
     4   1     0.39   0.45   0.30    -0.10  -0.11  -0.04     0.02   0.01  -0.04
     5   1     0.50  -0.40   0.24    -0.09   0.10  -0.10     0.06  -0.02  -0.13
     6   1     0.11  -0.07  -0.02     0.45  -0.29   0.04    -0.38   0.25  -0.05
     7   1     0.13   0.07  -0.05     0.42   0.28  -0.22    -0.34  -0.24   0.18
     8   6    -0.02  -0.02   0.00    -0.03  -0.04  -0.04    -0.02  -0.05  -0.06
     9   1     0.02   0.03   0.04     0.00  -0.01  -0.09    -0.04  -0.11  -0.28
    10   6    -0.00   0.00   0.01    -0.05  -0.02   0.03    -0.07  -0.02   0.03
    11   1     0.05   0.07   0.01     0.08   0.08  -0.03     0.04   0.05  -0.07
    12   1     0.05   0.07   0.00     0.20   0.30   0.05     0.23   0.34   0.06
    13   1     0.09  -0.00  -0.04     0.38  -0.04  -0.20     0.44  -0.06  -0.23
                     25                     26                     27
                      A                      A                      A
 Frequencies --   1590.2404              3014.8923              3060.2764
 Red. masses --      4.0769                 1.0585                 1.0955
 Frc consts  --      6.0745                 5.6688                 6.0449
 IR Inten    --     20.3706                12.2814                12.1524
  Atom  AN      X      Y      Z        X      Y      Z        X      Y      Z
     1   6     0.01  -0.01   0.01    -0.05  -0.02  -0.04     0.01  -0.08   0.01
     2   6    -0.12  -0.11  -0.09     0.00   0.00  -0.00     0.00   0.00  -0.00
     3   6     0.00   0.01  -0.00     0.00   0.00  -0.00    -0.00   0.00  -0.00
     4   1     0.04   0.06   0.10     0.27  -0.44   0.20    -0.35   0.54  -0.26
     5   1    -0.01  -0.04   0.12     0.37   0.70   0.25     0.22   0.38   0.14
     6   1     0.02  -0.02  -0.04    -0.00  -0.01  -0.00    -0.01  -0.02   0.01
     7   1    -0.02   0.00  -0.01    -0.00   0.01   0.00     0.01  -0.02   0.01
     8   6     0.32   0.26   0.04     0.00  -0.00  -0.00    -0.02   0.01   0.04
     9   1    -0.16  -0.02   0.02    -0.04  -0.03   0.02    -0.06  -0.07   0.05
    10   6    -0.23  -0.13   0.03    -0.00  -0.00   0.00    -0.00  -0.00  -0.00
    11   1    -0.20  -0.51   0.01    -0.01   0.00   0.01     0.22  -0.14  -0.46
    12   1     0.24   0.30   0.29    -0.00   0.00   0.00     0.00  -0.00  -0.00
    13   1     0.19  -0.12  -0.29    -0.00  -0.00  -0.00     0.01   0.05   0.02
                     28                     29                     30
                      A                      A                      A
 Frequencies --   3062.7242              3132.1295              3143.9537
 Red. masses --      1.0887                 1.0648                 1.0883
 Frc consts  --      6.0168                 6.1543                 6.3379
 IR Inten    --     14.2330                20.5281                 6.5407
  Atom  AN      X      Y      Z        X      Y      Z        X      Y      Z
     1   6     0.01  -0.05   0.01    -0.00  -0.00  -0.00    -0.00  -0.01  -0.00
     2   6    -0.00  -0.00   0.00    -0.01  -0.01   0.01    -0.05  -0.06   0.04
     3   6    -0.00   0.00  -0.00    -0.00   0.00  -0.00    -0.00   0.00   0.00
     4   1    -0.23   0.35  -0.17     0.00  -0.00   0.00    -0.01   0.02  -0.01
     5   1     0.13   0.23   0.09     0.00   0.01   0.00     0.03   0.06   0.03
     6   1    -0.01  -0.02   0.01    -0.00  -0.00   0.00     0.01   0.02  -0.01
     7   1     0.01  -0.01   0.01     0.00  -0.00   0.00     0.02  -0.03   0.01
     8   6     0.03  -0.02  -0.06     0.01   0.00  -0.01    -0.00   0.00   0.01
     9   1     0.02   0.03  -0.02     0.08   0.09  -0.06     0.59   0.65  -0.44
    10   6     0.00   0.00   0.00    -0.05  -0.05  -0.02     0.01   0.01   0.00
    11   1    -0.35   0.22   0.73    -0.03   0.01   0.06     0.04  -0.03  -0.08
    12   1    -0.00   0.00  -0.00     0.24  -0.20  -0.20    -0.02   0.02   0.02
    13   1    -0.02  -0.07  -0.03     0.25   0.78   0.39    -0.04  -0.11  -0.06
                     31                     32                     33
                      A                      A                      A
 Frequencies --   3163.8663              3254.5728              3266.1035
 Red. masses --      1.0513                 1.1038                 1.1185
 Frc consts  --      6.2004                 6.8886                 7.0299
 IR Inten    --      5.0434                10.5507                 3.7266
  Atom  AN      X      Y      Z        X      Y      Z        X      Y      Z
     1   6    -0.00   0.00   0.00    -0.00   0.00  -0.00     0.00  -0.01   0.00
     2   6    -0.00  -0.00   0.00     0.00   0.00  -0.00    -0.00   0.00   0.00
     3   6     0.06  -0.01  -0.01    -0.00   0.01  -0.00     0.00  -0.09   0.04
     4   1    -0.00   0.01  -0.00     0.00  -0.01   0.00    -0.02   0.03  -0.01
     5   1     0.00  -0.00  -0.00    -0.00  -0.00  -0.00     0.01   0.02   0.01
     6   1    -0.29  -0.52   0.30    -0.03  -0.06   0.03     0.34   0.57  -0.33
     7   1    -0.40   0.60  -0.17     0.05  -0.06   0.02    -0.37   0.52  -0.15
     8   6     0.00   0.00   0.00     0.00   0.00   0.00    -0.00  -0.00   0.00
     9   1     0.02   0.02  -0.02    -0.01  -0.02   0.01     0.00   0.00  -0.00
    10   6    -0.00   0.00   0.00    -0.05   0.06   0.05    -0.01   0.01   0.01
    11   1     0.00  -0.00  -0.00     0.01  -0.01  -0.03     0.00  -0.00  -0.00
    12   1     0.01  -0.00  -0.01     0.64  -0.46  -0.49     0.07  -0.05  -0.05
    13   1    -0.00  -0.01  -0.00    -0.11  -0.30  -0.14    -0.01  -0.03  -0.01

 -------------------
 - Thermochemistry -
 -------------------
 Temperature   298.150 Kelvin.  Pressure   1.00000 Atm.
 Atom     1 has atomic number  6 and mass  12.00000
 Atom     2 has atomic number  6 and mass  12.00000
 Atom     3 has atomic number  6 and mass  12.00000
 Atom     4 has atomic number  1 and mass   1.00783
 Atom     5 has atomic number  1 and mass   1.00783
 Atom     6 has atomic number  1 and mass   1.00783
 Atom     7 has atomic number  1 and mass   1.00783
 Atom     8 has atomic number  6 and mass  12.00000
 Atom     9 has atomic number  1 and mass   1.00783
 Atom    10 has atomic number  6 and mass  12.00000
 Atom    11 has atomic number  1 and mass   1.00783
 Atom    12 has atomic number  1 and mass   1.00783
 Atom    13 has atomic number  1 and mass   1.00783
 Molecular mass:    68.06260 amu.
 Principal axes and moments of inertia in atomic units:
                           1         2         3
     Eigenvalues --   212.29086 402.63635 565.96076
           X            0.31808   0.85260  -0.41460
           Y            0.47585   0.23466   0.84764
           Z            0.81999  -0.46691  -0.33107
 This molecule is an asymmetric top.
 Rotational symmetry number  1.
 Rotational temperatures (Kelvin)      0.40800     0.21512     0.15304
 Rotational constants (GHZ):           8.50127     4.48231     3.18881
    1 imaginary frequencies ignored.
 Zero-point vibrational energy     288156.9 (Joules/Mol)
                                   68.87115 (Kcal/Mol)
 Warning -- explicit consideration of   5 degrees of freedom as
           vibrations may cause significant error
 Vibrational temperatures:    316.91   374.58   535.43   782.46   840.05
          (Kelvin)            931.93  1007.86  1084.73  1110.54  1196.95
                             1291.65  1340.03  1483.45  1529.22  1625.29
                             1660.29  1757.30  1822.16  1879.09  2014.39
                             2046.83  2130.64  2153.67  2288.00  4337.76
                             4403.06  4406.58  4506.44  4523.45  4552.10
                             4682.60  4699.19
 
 Zero-point correction=                           0.109753 (Hartree/Particle)
 Thermal correction to Energy=                    0.115058
 Thermal correction to Enthalpy=                  0.116002
 Thermal correction to Gibbs Free Energy=         0.081932
 Sum of electronic and zero-point Energies=           -195.168493
 Sum of electronic and thermal Energies=              -195.163188
 Sum of electronic and thermal Enthalpies=            -195.162244
 Sum of electronic and thermal Free Energies=         -195.196314
 
                     E (Thermal)             CV                S
                      KCal/Mol        Cal/Mol-Kelvin    Cal/Mol-Kelvin
 Total                   72.200             20.083             71.708
 Electronic               0.000              0.000              0.000
 Translational            0.889              2.981             38.571
 Rotational               0.889              2.981             25.384
 Vibrational             70.423             14.121              7.752
 Vibration     1          0.647              1.810              1.957
[...]
   A13        2.11134  -0.00000   0.00000  -0.00001  -0.00001   2.11133
    D4       -2.15261  -0.00000   0.00000  -0.00001  -0.00001  -2.15262
    D5        2.06685  -0.00000   0.00000  -0.00000  -0.00000   2.06685
    D6       -1.97464  -0.00000   0.00000  -0.00002  -0.00002  -1.97466
    D7        3.13121  -0.00000   0.00000   0.00001   0.00001   3.13122
    D8        0.87131   0.00000   0.00000   0.00001   0.00001   0.87132
    D9        3.10614   0.00000   0.00000  -0.00001  -0.00001   3.10613
   D10       -0.53206  -0.00000   0.00000  -0.00001  -0.00001  -0.53208
   D11        3.10054  -0.00000   0.00000   0.00000   0.00000   3.10054
   D12       -0.60503  -0.00000   0.00000  -0.00001  -0.00001  -0.60503
   D13       -2.95029   0.00000   0.00000   0.00002   0.00002  -2.95027
         Item               Value     Threshold  Converged?
 Maximum Force            0.000006     0.000450     YES
 RMS     Force            0.000002     0.000300     YES
 Maximum Displacement     0.000022     0.001800     YES
 RMS     Displacement     0.000007     0.001200     YES
 Predicted change in Energy=-1.237939D-10
 Optimization completed.
    -- Stationary point found.
                       ----------------------------
                       !   Optimized Parameters   !
                       ! (Angstroms and Degrees)  !
 ----------------------                            ----------------------
 !      Name          Value   Derivative information (Atomic Units)     !
 ------------------------------------------------------------------------
 !       R2          1.5062   -DE/DX =    0.0                           !
 !       R3          1.4575   -DE/DX =    0.0                           !
 !       R4          1.0925   -DE/DX =    0.0                           !
 !       R5          1.0955   -DE/DX =    0.0                           !
 !       R6          1.0791   -DE/DX =    0.0                           !
 !       R7          1.0805   -DE/DX =    0.0                           !
 !       R8          1.3875   -DE/DX =    0.0                           !
 !       R9          1.0861   -DE/DX =    0.0                           !
 !       R10         1.372    -DE/DX =    0.0                           !
 !       R11         1.0929   -DE/DX =    0.0                           !
 !       R12         1.0768   -DE/DX =    0.0                           !
 !       R13         1.0852   -DE/DX =    0.0                           !
 !       A3        103.4673   -DE/DX =    0.0                           !
 !       A4        112.2081   -DE/DX =    0.0                           !
 !       A5        107.7822   -DE/DX =    0.0                           !
 !       A6        122.8514   -DE/DX =    0.0                           !
 !       A7        119.0124   -DE/DX =    0.0                           !
 !       A8        123.4899   -DE/DX =    0.0                           !
 !       A9        117.4625   -DE/DX =    0.0                           !
 !       A10       128.0826   -DE/DX =    0.0                           !
 !       A11       114.4844   -DE/DX =    0.0                           !
 !       A12       120.9987   -DE/DX =    0.0                           !
 !       A13       120.9706   -DE/DX =    0.0                           !
 !       D4       -123.3356   -DE/DX =    0.0                           !
 !       D5        118.4219   -DE/DX =    0.0                           !
 !       D6       -113.1387   -DE/DX =    0.0                           !
 !       D7        179.4053   -DE/DX =    0.0                           !
 !       D8         49.9225   -DE/DX =    0.0                           !
 !       D9        177.9686   -DE/DX =    0.0                           !
 !       D10       -30.4849   -DE/DX =    0.0                           !
 !       D11       177.6478   -DE/DX =    0.0                           !
 !       D12       -34.6655   -DE/DX =    0.0                           !
 !       D13      -169.0393   -DE/DX =    0.0                           !
 ------------------------------------------------------------------------
 GradGradGradGradGradGradGradGradGradGradGradGradGradGradGradGradGradGrad


 ----------------------------------------------------------------------

 Electric dipole moment (input orientation):
 (Debye = 10**-18 statcoulomb cm , SI units = C m)
                  (au)            (Debye)         (10**-30 SI)
   Tot        0.638172D+00      0.162207D+01      0.541064D+01
   x         -0.488855D+00     -0.124254D+01     -0.414468D+01
   y         -0.379479D+00     -0.964538D+00     -0.321735D+01
   z         -0.155821D+00     -0.396058D+00     -0.132111D+01

 Dipole polarizability, Alpha (input orientation).
 (esu units = cm**3 , SI units = C**2 m**2 J**-1)
 Alpha(0;0):
               (au)            (10**-24 esu)      (10**-40 SI)
   iso        0.747383D+02      0.110751D+02      0.123227D+02
   aniso      0.491772D+02      0.728732D+01      0.810823D+01
   xx         0.687784D+02      0.101919D+02      0.113400D+02
   yx         0.120180D+02      0.178088D+01      0.198150D+01
   yy         0.629650D+02      0.933045D+01      0.103815D+02
   zx        -0.326960D+01     -0.484504D+00     -0.539083D+00
   zy         0.201671D+02      0.298846D+01      0.332511D+01
   zz         0.924714D+02      0.137029D+02      0.152465D+02

 ----------------------------------------------------------------------

 Dipole orientation:
     6          0.00000000          0.00000000         -0.00000000
     6         -2.18033311          1.69250666         -0.69497595
     6          1.90655330          0.59920246         -1.89515030
     1         -0.54185714         -1.99157164          0.04558178
     1          0.62328305          0.52151468          1.90399065
     1          2.51421500         -0.73439461         -3.31307490
     1          2.74356325          2.46158610         -1.90343693
     6         -3.15734416          1.87056184         -3.12166054
     1         -3.05597724          2.77536674          0.81275562
     6         -1.90879841          1.57137796         -5.37425419
     1         -5.18978135          2.22852213         -3.20196342
     1          0.02535388          2.16673091         -5.58758300
     1         -2.91917709          1.04311550         -7.07875906

 Electric dipole moment (dipole orientation):
 (Debye = 10**-18 statcoulomb cm , SI units = C m)
                  (au)            (Debye)         (10**-30 SI)
   Tot        0.638172D+00      0.162207D+01      0.541064D+01
   x          0.000000D+00      0.000000D+00      0.000000D+00
   y          0.000000D+00      0.000000D+00      0.000000D+00
   z          0.638172D+00      0.162207D+01      0.541064D+01

 Dipole polarizability, Alpha (dipole orientation).
 (esu units = cm**3 , SI units = C**2 m**2 J**-1)
 Alpha(0;0):
               (au)            (10**-24 esu)      (10**-40 SI)
   iso        0.747383D+02      0.110751D+02      0.123227D+02
   aniso      0.491772D+02      0.728732D+01      0.810823D+01
   xx         0.912109D+02      0.135161D+02      0.150387D+02
   yx        -0.119145D+02     -0.176555D+01     -0.196444D+01
   yy         0.492869D+02      0.730357D+01      0.812632D+01
   zx         0.122528D+02      0.181567D+01      0.202021D+01
   zy        -0.376559D+01     -0.558003D+00     -0.620862D+00
   zz         0.837169D+02      0.124056D+02      0.138031D+02

 ----------------------------------------------------------------------
 1\1\GINC-BHC0034\Freq\RB3LYP\def2TZVP\C5H8\DHANAWAY\10-Jun-2022\1\\#N 
 Geom=AllCheck Guess=TCheck SCRF=Check GenChk RB3LYP/def2TZVP Freq\\ts_
 zmat_initalOpt\\0,1\C\C,1,R2\C,1,R3,2,A3\H,1,R4,2,A4,3,D4,0\H,1,R5,2,A
 5,3,D5,0\H,3,R6,1,A6,2,D6,0\H,3,R7,1,A7,6,D7,0\C,2,R8,1,A8,3,D8,0\H,2,
 R9,1,A9,8,D9,0\C,8,R10,2,A10,1,D10,0\H,8,R11,2,A11,10,D11,0\H,10,R12,8
 ,A12,2,D12,0\H,10,R13,8,A13,12,D13,0\\R2=1.50619701\R3=1.45745662\R4=1
 .09247151\R5=1.09549137\R6=1.07908616\R7=1.08049735\R8=1.38751964\R9=1
 .08611519\R10=1.37204494\R11=1.09289957\R12=1.07683329\R13=1.08516986\
 A3=103.46726035\A4=112.20805486\A5=107.78224946\A6=122.85141196\A7=119
 .01236401\A8=123.4898861\A9=117.46251644\A10=128.08263009\A11=114.4844
 159\A12=120.99871806\A13=120.97060073\D4=-123.33556105\D5=118.42189639
 \D6=-113.13870109\D7=179.40529519\D8=49.92254746\D9=177.96863823\D10=-
 30.48485346\D11=177.6477549\D12=-34.66548858\D13=-169.03932481\\Versio
 n=ES64L-G16RevA.03\HF=-195.2782462\RMSD=3.196e-09\RMSF=6.617e-05\ZeroP
 oint=0.1097532\Thermal=0.1150583\Dipole=-0.4888546,-0.3794786,-0.15582
 12\DipoleDeriv=-0.0123328,-0.1719664,-0.0601718,-0.0957847,0.0396084,-
 0.0752671,0.0988022,0.1798744,0.2328688,-0.1621194,0.0955261,-0.119931
 6,0.0790525,-0.0878253,0.0215921,-0.1216452,-0.2297296,-0.038675,0.063
 5199,0.203944,0.3182618,0.0304868,0.1006993,-0.1075407,-0.011387,-0.20
 42267,-0.4382447,0.0206034,0.0443613,-0.0603034,0.1204226,-0.0201256,0
 .0766796,-0.0650414,0.024087,0.0456086,0.0726069,-0.0776028,-0.0874837
 ,-0.0791124,0.0002258,-0.0155174,-0.02584,-0.0314098,0.082744,0.004101
 7,-0.0070351,0.0493391,-0.0339423,-0.0144695,0.0665389,0.0492918,0.044
 2286,0.0821116,-0.0150694,0.0285985,0.0168874,0.0451773,-0.0093979,0.0
 417755,-0.0210943,0.0394468,0.0568336,0.1579992,0.2570686,0.0821318,0.
 1679381,0.0175018,0.1772191,-0.0206251,0.0985735,-0.051609,0.0479689,-
 0.1027299,0.0533341,-0.094683,0.0325792,-0.0069135,0.0583034,0.0550262
 ,0.0578182,-0.3197615,-0.132394,-0.2424511,-0.0269186,-0.0786097,0.056
 0158,-0.0291838,0.3309256,-0.1256565,0.0761837,-0.0052555,0.0835971,-0
 .0090672,0.0998361,-0.0615901,0.1009576,-0.0660792,-0.080591,0.0173193
 ,-0.0479194,-0.0196406,-0.0018763,-0.024239,-0.0752906,0.0339614,-0.09
 64016,0.1001003,0.04898,-0.0845955,-0.013569,-0.1016926,-0.0557837,-0.
 0977017,-0.0464997,-0.144315,0.0766911\Polar=68.7783661,12.0180075,62.
 9650025,-3.2695955,20.1671424,92.471425\PG=C01 [X(C5H8)]\NImag=1\\0.52
 447623,-0.00592748,0.56544632,0.04716284,-0.02343681,0.39191675,-0.037
 20354,-0.00463158,-0.00538217,0.36513562,-0.01534422,-0.05874257,0.029
 80352,0.27121665,0.42965739,-0.03246466,0.00973736,-0.18227968,0.02109
 636,0.00975609,0.50941189,-0.26706163,0.01930179,0.02955277,-0.0189545
 0,0.00048064,0.02370553,0.56253742,-0.00856450,-0.08181543,0.01491202,
 0.00183197,-0.01458953,-0.01418353,-0.04176134,0.54388945,0.04568093,0
 .00851444,-0.03465853,0.00887778,-0.00111767,-0.01782284,-0.08319083,-
 0.19626796,0.18745627,-0.10674738,0.09925458,-0.03982117,0.00080406,-0
 .00414123,-0.00452392,-0.01762617,0.02824221,-0.00917958,0.11943871,0.
 10237031,-0.20347496,0.07353758,-0.00298831,0.00208406,0.00162624,-0.0
 0105728,0.00056101,-0.00076188,-0.11197478,0.21726386,-0.05096202,0.07
 910793,-0.07991923,-0.01342263,0.02028289,-0.02142167,0.00408338,-0.01
 286308,0.00643894,0.04901297,-0.08281507,0.09021042,-0.09561298,-0.098
 50091,-0.03869557,0.00122578,0.00255257,-0.00125019,-0.01649124,-0.026
 30679,-0.00505294,0.00761161,0.01333640,0.00624426,0.10538430,-0.08943
 951,-0.22245017,-0.06752463,-0.00205348,-0.00470883,0.00328009,-0.0056
 3060,0.00096952,0.00182564,-0.01013118,-0.01924812,-0.00778957,0.10728
 889,0.24156277,-0.03350348,-0.06401046,-0.05435458,-0.01481165,-0.0285
 1839,-0.01868985,0.00806399,0.01055624,0.00005240,0.00506980,0.0089310
 3,0.00406529,0.03575039,0.07185019,0.07314190,-0.00520891,-0.02343092,
 0.00922589,-0.00297993,0.00032475,0.00072444,-0.11149399,-0.09450505,0
 .06713173,0.00198806,-0.00000820,-0.00034240,-0.00420180,-0.00023299,0
 .00232165,0.11317677,0.00805710,0.00103203,-0.00189034,-0.00154973,0.0
 0311368,0.00169128,-0.09767075,-0.22537512,0.11990488,-0.00057564,0.00
 072224,0.00048350,-0.00015093,0.00037391,0.00006666,0.10572422,0.23431
 735,0.01273526,0.00003646,0.00661956,-0.00450850,0.00457821,0.00360599
 ,0.06274630,0.12057156,-0.08617944,-0.00058586,-0.00087713,0.00067809,
 -0.00022501,-0.00178102,-0.00105364,-0.06916448,-0.12317714,0.08267387
 ,-0.01414994,0.02563670,-0.00917512,0.00233377,-0.00158030,-0.00234593
 ,-0.13941396,0.12882996,-0.02646464,-0.00531800,-0.00058449,0.00244125
 ,0.00118281,-0.00014783,-0.00067475,0.00892445,-0.01202225,0.00290176,
 0.14563973,-0.00366491,0.00673399,-0.00373106,0.00289006,-0.00114464,0
 .00143837,0.12921667,-0.24256794,0.06821705,-0.00177907,0.00162379,0.0
 0049246,0.00124928,0.00078836,-0.00045890,0.01237053,-0.01174644,0.004
 61654,-0.14049960,0.24688002,0.00092111,0.00006109,-0.00718944,0.00794
 792,-0.00458702,0.00265248,-0.03387515,0.06743232,-0.03642679,-0.00104
 216,0.00052258,0.00076862,0.00108581,0.00070469,0.00003028,-0.00850023
 ,0.00757822,0.00026750,0.03226426,-0.07063237,0.03821376,0.00024853,-0
 .02197037,0.00034199,-0.14896687,-0.08869438,-0.05949024,0.01176459,0.
 02139746,0.00341940,0.00166281,-0.00049890,0.00569017,0.00070672,0.000
 76993,-0.00341025,-0.00060487,-0.00227646,-0.00386057,0.00091699,0.000
 79343,0.00186715,0.56671067,0.01839938,-0.00642309,-0.00720163,-0.1233
 6035,-0.17117614,-0.07596603,0.00410723,0.01654358,-0.00771357,0.00079
 250,0.00087142,0.00475945,0.00073307,-0.00028892,0.00119773,-0.0012610
 8,-0.00291422,-0.00493633,0.00064953,0.00048083,0.00110302,0.21582525,
 0.37460721,-0.00593612,-0.01894560,-0.02797212,-0.07316583,-0.09698217
 ,-0.16426431,-0.00402182,-0.00111012,-0.00890800,-0.00000685,-0.001482
 05,0.00051127,0.00093366,-0.00024844,-0.00351515,0.00013345,-0.0007262
 7,-0.00057708,0.00023415,-0.00032643,-0.00083129,-0.10859825,0.1570127
 7,0.51999019,0.00700870,0.00334782,0.00709423,-0.14001401,-0.11501533,
 0.07862086,0.00439443,0.00062629,-0.00316753,-0.00112595,0.00054104,-0
 .00000242,0.00098445,-0.00064113,-0.00041209,-0.00031902,-0.00093172,-
 0.00217785,0.00001129,0.00027251,0.00045287,-0.01728990,-0.01916706,0.
 00657498,0.14023749,-0.00349883,-0.00107519,-0.01473229,-0.11723307,-0
 .16884204,0.07844891,-0.00548129,-0.00036388,0.00417914,0.00075256,0.0
 0014622,-0.00012390,0.00009209,0.00237264,0.00060390,0.00049716,0.0011
 8118,0.00255595,-0.00011833,-0.00037625,-0.00044526,-0.00324921,-0.000
 58586,0.01288007,0.13493560,0.16723123,0.01330406,0.01815207,-0.014622
 32,0.08230079,0.07824738,-0.10991547,-0.00260603,0.00022178,-0.0021933
 5,0.00081774,0.00064456,-0.00299253,0.00068197,0.00016367,0.00189399,0
 .00085989,0.00006546,0.00048619,0.00017371,-0.00014304,0.00009571,-0.0
 1352077,-0.01059318,0.00995173,-0.08006032,-0.08521806,0.11791008,-0.0
 0518844,0.00838263,0.00173809,-0.02447181,-0.03863558,-0.00971321,-0.0
 0633223,-0.00627802,0.00274988,-0.00051126,0.00095917,-0.00270997,-0.0
 0025379,0.00019454,0.00168103,0.00020094,0.00061964,0.00161930,-0.0001
 5019,-0.00023809,-0.00047994,-0.31783707,-0.11526348,0.08347982,0.0069
 5471,-0.00552801,-0.00129802,0.62703005,-0.00348948,0.00008760,0.00526
 605,-0.03329013,-0.02474780,-0.01202393,0.00220708,-0.00113288,0.00618
 300,-0.00092593,-0.00016951,-0.00083449,-0.00067669,0.00081938,-0.0003
 4082,0.00069894,0.00039070,-0.00041883,-0.00035917,-0.00000810,-0.0013
 2000,-0.11325440,-0.12722254,0.01830162,-0.00471326,-0.00044449,-0.001
 70442,0.11905876,0.51226287,0.00081680,-0.00827162,0.00122439,-0.00992
 047,0.00472328,0.01830701,-0.00053065,0.01730914,-0.00298253,0.0006876
 4,0.00034037,0.00195118,0.00024074,-0.00019833,-0.00110813,-0.00187509
 ,-0.00325962,-0.00529653,0.00085720,0.00084528,0.00343566,0.05611965,-
 0.01067163,-0.08995346,-0.00520340,0.00132567,-0.00065108,-0.16533452,
 0.19523307,0.26426374,0.00132143,-0.00158729,-0.00294950,0.00393859,-0
 .00773153,-0.01671293,-0.00224493,-0.00258461,-0.00013786,-0.00017157,
 0.00010291,0.00016607,-0.00007448,-0.00011256,-0.00003625,0.00017510,0
 .00047268,0.00084957,-0.00014533,-0.00016676,-0.00031119,-0.07994408,0
 .02679790,0.10006326,-0.00043554,0.00034635,0.00003335,-0.01816063,0.0
 0481419,0.02583732,0.09845171,0.00059393,0.00016478,-0.00381020,0.0099
 2323,0.00630370,-0.01034804,-0.00203445,0.00387684,-0.00084988,0.00032
 625,-0.00032323,-0.00026045,0.00002965,-0.00022822,-0.00000172,-0.0003
 3041,-0.00049440,-0.00112440,0.00035815,0.00013431,0.00067920,0.007730
 09,-0.08045962,-0.06359240,0.00076514,0.00015652,0.00078209,0.00198761
 ,0.01283158,0.00372854,-0.01834371,0.05706147,0.00235684,-0.00317380,-
 0.00014342,0.00358247,-0.01019147,-0.02045365,-0.00127827,-0.00284044,
 -0.00099078,-0.00025659,0.00028222,0.00035537,0.00004807,-0.00009046,-
 0.00050103,0.00024246,0.00036809,0.00075237,-0.00015478,-0.00009571,-0
 .00037322,0.10650843,-0.05418076,-0.23526330,-0.00180193,0.00076068,0.
 00033277,-0.00047494,-0.00536328,-0.00159941,-0.10849541,0.07378542,0.
 25763393,-0.00275970,0.00056821,0.00035757,0.00062670,-0.00061920,-0.0
 0356478,-0.00063600,-0.00227285,-0.00179921,0.00000873,-0.00006776,-0.
 00037617,-0.00035020,0.00006791,-0.00005450,0.00034575,0.00054996,0.00
 022910,0.00013256,-0.00021949,-0.00002169,-0.00883142,0.01769679,0.016
 61760,0.00161769,-0.00130817,-0.00002846,-0.19249089,0.09825348,0.1196
 9601,-0.00224068,-0.00274169,0.00026838,0.19692453,0.00125149,-0.00001
 673,-0.00030928,0.00115780,0.00272400,0.00867684,0.00186099,0.00330688
 ,0.00153480,0.00020992,-0.00009220,-0.00006679,0.00032986,0.00005869,0
 .00014875,-0.00007384,-0.00111996,-0.00134880,-0.00019258,-0.00107803,
 -0.00172899,-0.02075586,0.00061788,0.00114376,-0.00057724,0.00077633,0
 .00007175,0.10740565,-0.12374886,-0.09200277,-0.00294053,0.00144999,0.
 00026015,-0.10397681,0.12470055,-0.00316921,0.00252596,0.00100430,-0.0
 0523858,-0.00571328,-0.00898214,-0.00541960,-0.00730384,-0.00676836,-0
 .00023276,0.00011684,-0.00106753,0.00000306,-0.00010614,-0.00009988,-0
 .00060362,-0.00020176,-0.00045936,-0.00013915,-0.00025389,-0.00012410,
 0.02102421,0.00828510,-0.00293691,0.00236270,-0.00149135,-0.00035910,0
 .10840310,-0.09000760,-0.09079723,0.00406980,-0.00041028,0.00018045,-0
 .12708897,0.09748906,0.11464074,0.00087764,-0.00044318,0.00055013,-0.0
 0147385,-0.00281284,0.00591866,0.00155821,0.00134525,0.00113286,-0.000
 01365,-0.00013011,0.00017750,-0.00011118,0.00006802,0.00001611,-0.0000
 0255,-0.00024612,-0.00055902,0.00003582,-0.00022456,-0.00030876,-0.008
 53610,-0.02594966,-0.01630805,-0.00202435,-0.00020686,-0.00065789,-0.0
 6878938,-0.06832341,-0.02139122,-0.00046959,0.00173620,-0.00054474,0.0
 0765294,0.01630116,0.00602902,0.07129605,-0.00074329,0.00053342,-0.000
 88293,-0.00191305,0.00006873,-0.00213366,-0.00353870,-0.00330250,-0.00
 364800,-0.00005020,0.00003542,-0.00037288,0.00002351,-0.00002100,-0.00
 002420,0.00022689,0.00051905,0.00130494,0.00003021,0.00028009,0.000632
 51,0.00418341,-0.00405053,-0.00592475,0.00055733,-0.00017641,-0.000690
 06,-0.07266482,-0.24891794,-0.10910139,0.00093298,-0.00047371,0.000479
 38,-0.00593037,-0.00757855,-0.00292880,0.07888609,0.26308395,0.0030576
 5,-0.00029700,0.00037433,0.00264451,-0.00028137,0.00985224,0.00277037,
 0.00356592,0.00298302,0.00006074,-0.00006530,0.00042179,0.00023575,-0.
 00008569,0.00013839,-0.00015369,-0.00090296,-0.00151752,0.00008203,0.0
 0003170,-0.00051917,-0.00609093,-0.00109495,0.00376844,-0.00228010,0.0
 0125653,0.00006339,-0.01966061,-0.11297036,-0.09679362,-0.00237623,0.0
 0142212,0.00006992,-0.00423489,-0.01386851,-0.00423090,0.02594541,0.12
 328986,0.08538971\\0.00023148,0.00018763,-0.00000058,-0.00022877,-0.00
 017143,0.00000046,-0.00000200,-0.00001495,0.00000164,0.00000008,-0.000
 00010,0.00000007,-0.00000016,0.00000034,-0.00000007,0.00000042,-0.0000
 0021,0.00000081,0.00000017,0.00000056,-0.00000033,0.00000213,0.,-0.000
 00106,0.00000007,0.00000029,0.00000006,-0.00000333,-0.00000132,0.00000
 078,-0.00000007,-0.00000031,-0.00000003,-0.00000005,0.00000006,-0.0000
 0106,0.00000003,-0.00000056,-0.00000069\\\@


 NOTHING RESEMBLES A NEW PHENOMENON AS MUCH AS A MISTAKE.

                               -- ENRICO FERMI (?)
 Job cpu time:       0 days  0 hours 27 minutes  5.0 seconds.
 Elapsed time:       0 days  0 hours  2 minutes 15.9 seconds.
 File lengths (MBytes):  RWF=     52 Int=      0 D2E=      0 Chk=     32 Scr=      1
 Normal termination of Gaussian 16 at Fri Jun 10 02:55:12 2022.
