 Entering Gaussian System, Link 0=g16
 Input=int_zmat_field_N100.gjf
 Output=int_zmat_field_N100.out
 Initial command:
 /software/gaussian/g16-a03/l1.exe "/local_scratch/11174797/Gau-19937.inp" -scrdir="/local_scratch/11174797/"
 Entering Link 1 = /software/gaussian/g16-a03/l1.exe PID=     19939.
  
 Copyright (c) 1988,1990,1992,1993,1995,1998,2003,2009,2016,
            Gaussian, Inc.  All Rights Reserved.
  
 This is part of the Gaussian(R) 16 program.  It is based on
 the Gaussian(R) 09 system (copyright 2009, Gaussian, Inc.),
 the Gaussian(R) 03 system (copyright 2003, Gaussian, Inc.),
 the Gaussian(R) 98 system (copyright 1998, Gaussian, Inc.),
 the Gaussian(R) 94 system (copyright 1995, Gaussian, Inc.),
 the Gaussian 92(TM) system (copyright 1992, Gaussian, Inc.),
 the Gaussian 90(TM) system (copyright 1990, Gaussian, Inc.),
 the Gaussian 88(TM) system (copyright 1988, Gaussian, Inc.),
 the Gaussian 86(TM) system (copyright 1986, Carnegie Mellon
 University), and the Gaussian 82(TM) system (copyright 1983,
 Carnegie Mellon University). Gaussian is a federally registered
 trademark of Gaussian, Inc.
  
 This software contains proprietary and confidential information,
 including trade secrets, belonging to Gaussian, Inc.
  
 This software is provided under written license and may be
 used, copied, transmitted, or stored only in accord with that
 written license.
  
 The following legend is applicable only to US Government
 contracts under FAR:
  
                    RESTRICTED RIGHTS LEGEND
  
 Use, reproduction and disclosure by the US Government is
 subject to restrictions as set forth in subparagraphs (a)
 and (c) of the Commercial Computer Software - Restricted
 Rights clause in FAR 52.227-19.
  
 Gaussian, Inc.
 340 Quinnipiac St., Bldg. 40, Wallingford CT 06492
  
  
 ---------------------------------------------------------------
 Warning -- This program may not be used in any manner that
 competes with the business of Gaussian, Inc. or will provide
 assistance to any competitor of Gaussian, Inc.  The licensee
 of this program is prohibited from giving any competitor of
 Gaussian, Inc. access to this program.  By using this program,
 the user acknowledges that Gaussian, Inc. is engaged in the
 business of creating and licensing software in the field of
 computational chemistry and represents and warrants to the
 licensee that it is not a competitor of Gaussian, Inc. and that
 it will not use this program in any manner prohibited above.
 ---------------------------------------------------------------
  

 Cite this work as:
 Gaussian 16, Revision A.03,
 M. J. Frisch, G. W. Trucks, H. B. Schlegel, G. E. Scuseria, 
 M. A. Robb, J. R. Cheeseman, G. Scalmani, V. Barone, 
 G. A. Petersson, H. Nakatsuji, X. Li, M. Caricato, A. V. Marenich, 
 J. Bloino, B. G. Janesko, R. Gomperts, B. Mennucci, H. P. Hratchian, 
 J. V. Ortiz, A. F. Izmaylov, J. L. Sonnenberg, D. Williams-Young, 
 F. Ding, F. Lipparini, F. Egidi, J. Goings, B. Peng, A. Petrone, 
 T. Henderson, D. Ranasinghe, V. G. Zakrzewski, J. Gao, N. Rega, 
 G. Zheng, W. Liang, M. Hada, M. Ehara, K. Toyota, R. Fukuda, 
 J. Hasegawa, M. Ishida, T. Nakajima, Y. Honda, O. Kitao, H. Nakai, 
 T. Vreven, K. Throssell, J. A. Montgomery, Jr., J. E. Peralta, 
 F. Ogliaro, M. J. Bearpark, J. J. Heyd, E. N. Brothers, K. N. Kudin, 
 V. N. Staroverov, T. A. Keith, R. Kobayashi, J. Normand, 
 K. Raghavachari, A. P. Rendell, J. C. Burant, S. S. Iyengar, 
 J. Tomasi, M. Cossi, J. M. Millam, M. Klene, C. Adamo, R. Cammi, 
 J. W. Ochterski, R. L. Martin, K. Morokuma, O. Farkas, 
 J. B. Foresman, and D. J. Fox, Gaussian, Inc., Wallingford CT, 2016.
 
 ******************************************
 Gaussian 16:  ES64L-G16RevA.03 25-Dec-2016
                11-Jun-2022 
 ******************************************
 %nprocshared=12
 Will use up to   12 processors via shared memory.
 %chk=checkpoint.chk
 %mem=12GB
 ----------------------------------------------------------------------
 # Opt=(Z-matrix, MaxStep=10) B3LYP/Def2TZVP geom=allcheckpoint guess=r
 ead Field=read NoSymm freq=noraman pop=none
 ----------------------------------------------------------------------
 1/8=10,10=7,18=40,26=3,29=7,38=1/1,3;
 2/12=2,15=1,29=3,40=1/2;
 3/5=44,7=101,11=2,14=-6,25=1,30=1,71=1,74=-5,116=-2/1,2,3;
 4/5=1/1;
 5/5=2,38=6/2;
 7/29=1,30=1/1,2,3,16;
 1/8=10,10=7,18=40,26=3/3(2);
 2/15=1,29=3/2;
 99//99;
 2/15=1,29=3/2;
 3/5=44,7=101,11=2,14=-2,25=1,30=1,71=1,74=-5/1,2,3;
 4/5=5,16=3,69=1/1;
 5/5=2,38=5/2;
 7/30=1/1,2,3,16;
 1/8=10,18=40,26=3/3(-5);
 2/15=1,29=3/2;
 99/9=1/99;
 Structure from the checkpoint file:  "checkpoint.chk"
 ------------------
 int_zmat_initalOpt
 ------------------
 Charge =  0 Multiplicity = 1
 Z-Matrix found in chk file.
 H
 C,1,R2
 C,2,R3,1,A3
 C,2,R4,1,A4,3,D4,0
 H,2,R5,1,A5,3,D5,0
 H,4,R6,2,A6,1,D6,0
 C,3,R7,2,A7,1,D7,0
 C,4,R8,2,A8,6,D8,0
 H,3,R9,2,A9,7,D9,0
 H,3,R10,2,A10,7,D10,0
 H,7,R11,3,A11,2,D11,0
 H,8,R12,4,A12,2,D12,0
 C,7,R13,3,A13,11,D13,0
 C,8,R14,4,A14,12,D14,0
 H,14,R15,8,A15,4,D15,0
 H,14,R16,8,A16,15,D16,0
 C,13,R17,7,A17,3,D17,0
 H,13,R18,7,A18,17,D18,0
 H,17,R19,13,A19,7,D19,0
 H,17,R20,13,A20,19,D20,0
      Variables:
 R2=1.08957536
 R3=1.54764849
 R4=1.55091126
 R5=1.09214771
 R6=1.09577856
 R7=1.54502251
 R8=1.49668876
 R9=1.08932392
 R10=1.08938973
 R11=1.09588825
 R12=1.08712707
 R13=1.49270381
 R14=1.32812672
 R15=1.08322891
 R16=1.08254047
 R17=1.32714739
 R18=1.08827502
 R19=1.08194137
 R20=1.08311104
 A3=116.71832938
 A4=117.61929108
 A5=108.47850361
 A6=114.97932049
 A7=89.14752772
 A8=117.61648558
 A9=111.23597341
 A10=117.94707639
 A11=109.14537075
 A12=114.36238883
 A13=121.65577783
 A14=127.7057186
 A15=122.56061496
 A16=120.96541866
 A17=126.14411541
 A18=115.31743203
 A19=121.43758918
 A20=122.32115805
 D4=104.66412611
 D5=-127.87481075
 D6=108.43327934
 D7=138.91028185
 D8=-129.17823131
 D9=-113.0004361
 D10=120.59255387
 D11=89.69874506
 D12=-164.52235681
 D13=127.39053732
 D14=-180.68389074
 D15=-1.08896497
 D16=182.20705219
 D17=-6.33166013
 D18=-178.14930901
 D19=-178.23659426
 D20=179.13245966
 Recover connectivity data from disk.

 GradGradGradGradGradGradGradGradGradGradGradGradGradGradGradGradGradGrad
 Berny optimization.
 Initialization pass.
                       ----------------------------
                       !    Initial Parameters    !
                       ! (Angstroms and Degrees)  !
 ----------------------                            ----------------------
 !      Name          Value   Derivative information (Atomic Units)     !
 ------------------------------------------------------------------------
 !       R2          1.0896   estimate D2E/DX2                          !
 !       R3          1.5476   estimate D2E/DX2                          !
 !       R4          1.5509   estimate D2E/DX2                          !
 !       R5          1.0921   estimate D2E/DX2                          !
 !       R6          1.0958   estimate D2E/DX2                          !
 !       R7          1.545    estimate D2E/DX2                          !
 !       R8          1.4967   estimate D2E/DX2                          !
 !       R9          1.0893   estimate D2E/DX2                          !
 !       R10         1.0894   estimate D2E/DX2                          !
 !       R11         1.0959   estimate D2E/DX2                          !
 !       R12         1.0871   estimate D2E/DX2                          !
 !       R13         1.4927   estimate D2E/DX2                          !
 !       R14         1.3281   estimate D2E/DX2                          !
 !       R15         1.0832   estimate D2E/DX2                          !
 !       R16         1.0825   estimate D2E/DX2                          !
 !       R17         1.3271   estimate D2E/DX2                          !
 !       R18         1.0883   estimate D2E/DX2                          !
 !       R19         1.0819   estimate D2E/DX2                          !
 !       R20         1.0831   estimate D2E/DX2                          !
 !       A3        116.7183   estimate D2E/DX2                          !
 !       A4        117.6193   estimate D2E/DX2                          !
 !       A5        108.4785   estimate D2E/DX2                          !
 !       A6        114.9793   estimate D2E/DX2                          !
 !       A7         89.1475   estimate D2E/DX2                          !
 !       A8        117.6165   estimate D2E/DX2                          !
 !       A9        111.236    estimate D2E/DX2                          !
 !       A10       117.9471   estimate D2E/DX2                          !
 !       A11       109.1454   estimate D2E/DX2                          !
 !       A12       114.3624   estimate D2E/DX2                          !
 !       A13       121.6558   estimate D2E/DX2                          !
 !       A14       127.7057   estimate D2E/DX2                          !
 !       A15       122.5606   estimate D2E/DX2                          !
 !       A16       120.9654   estimate D2E/DX2                          !
 !       A17       126.1441   estimate D2E/DX2                          !
 !       A18       115.3174   estimate D2E/DX2                          !
 !       A19       121.4376   estimate D2E/DX2                          !
 !       A20       122.3212   estimate D2E/DX2                          !
 !       D4        104.6641   estimate D2E/DX2                          !
 !       D5       -127.8748   estimate D2E/DX2                          !
 !       D6        108.4333   estimate D2E/DX2                          !
 !       D7        138.9103   estimate D2E/DX2                          !
 !       D8       -129.1782   estimate D2E/DX2                          !
 !       D9       -113.0004   estimate D2E/DX2                          !
 !       D10       120.5926   estimate D2E/DX2                          !
 !       D11        89.6987   estimate D2E/DX2                          !
 !       D12      -164.5224   estimate D2E/DX2                          !
 !       D13       127.3905   estimate D2E/DX2                          !
 !       D14      -180.6839   estimate D2E/DX2                          !
 !       D15        -1.089    estimate D2E/DX2                          !
 !       D16       182.2071   estimate D2E/DX2                          !
 !       D17        -6.3317   estimate D2E/DX2                          !
 !       D18      -178.1493   estimate D2E/DX2                          !
 !       D19      -178.2366   estimate D2E/DX2                          !
 !       D20       179.1325   estimate D2E/DX2                          !
 ------------------------------------------------------------------------
 Trust Radius=1.00D-01 FncErr=1.00D-07 GrdErr=1.00D-06 EigMax=2.50D+02 EigMin=1.00D-04
 Number of steps in this run=     64 maximum allowed number of steps=    108.
 GradGradGradGradGradGradGradGradGradGradGradGradGradGradGradGradGradGrad

 ---------------------------------------------------------------------------------------------------
                            Z-MATRIX (ANGSTROMS AND DEGREES)
   CD    Cent   Atom    N1       Length/X        N2       Alpha/Y        N3        Beta/Z          J
 ---------------------------------------------------------------------------------------------------
      1      1  H 
      2      2  C        1   1.089575(     1)
      3      3  C        2   1.547648(     2)      1  116.718(    20)
      4      4  C        2   1.550911(     3)      1  117.619(    21)      3  104.664(    38)      0
      5      5  H        2   1.092148(     4)      1  108.479(    22)      3 -127.875(    39)      0
      6      6  H        4   1.095779(     5)      2  114.979(    23)      1  108.433(    40)      0
      7      7  C        3   1.545023(     6)      2   89.148(    24)      1  138.910(    41)      0
      8      8  C        4   1.496689(     7)      2  117.616(    25)      6 -129.178(    42)      0
      9      9  H        3   1.089324(     8)      2  111.236(    26)      7 -113.000(    43)      0
     10     10  H        3   1.089390(     9)      2  117.947(    27)      7  120.593(    44)      0
     11     11  H        7   1.095888(    10)      3  109.145(    28)      2   89.699(    45)      0
     12     12  H        8   1.087127(    11)      4  114.362(    29)      2 -164.522(    46)      0
     13     13  C        7   1.492704(    12)      3  121.656(    30)     11  127.391(    47)      0
     14     14  C        8   1.328127(    13)      4  127.706(    31)     12 -180.684(    48)      0
     15     15  H       14   1.083229(    14)      8  122.561(    32)      4   -1.089(    49)      0
     16     16  H       14   1.082540(    15)      8  120.965(    33)     15  182.207(    50)      0
     17     17  C       13   1.327147(    16)      7  126.144(    34)      3   -6.332(    51)      0
     18     18  H       13   1.088275(    17)      7  115.317(    35)     17 -178.149(    52)      0
     19     19  H       17   1.081941(    18)     13  121.438(    36)      7 -178.237(    53)      0
     20     20  H       17   1.083111(    19)     13  122.321(    37)     19  179.132(    54)      0
 ---------------------------------------------------------------------------------------------------
                         Z-Matrix orientation:                         
 ---------------------------------------------------------------------
 Center     Atomic      Atomic             Coordinates (Angstroms)
 Number     Number       Type             X           Y           Z
 ---------------------------------------------------------------------
      1          1           0        0.000000    0.000000    0.000000
      2          6           0        0.000000    0.000000    1.089575
      3          6           0        1.382402    0.000000    1.785406
      4          6           0       -0.347877    1.329419    1.808569
      5          1           0       -0.635941   -0.817644    1.435730
      6          1           0       -1.326434    1.346661    2.301377
      7          6           0        0.838384    1.015338    2.815078
      8          6           0       -0.194607    2.599261    1.031339
      9          1           0        2.145459    0.443666    1.147024
     10          1           0        1.759611   -0.946240    2.171557
     11          1           0        0.401078    0.471224    3.659871
     12          1           0       -0.191338    3.499992    1.640041
     13          6           0        1.689103    2.117582    3.353131
     14          6           0       -0.053704    2.735659   -0.282230
     15          1           0       -0.017910    1.888106   -0.955844
     16          1           0        0.067392    3.713384   -0.730878
     17          6           0        2.985566    2.287828    3.126150
     18          1           0        1.180983    2.817646    4.013484
     19          1           0        3.535740    3.101666    3.579553
     20          1           0        3.555318    1.618974    2.492789
 ---------------------------------------------------------------------
                    Distance matrix (angstroms):
                    1          2          3          4          5
     1  H    0.000000
     2  C    1.089575   0.000000
     3  C    2.258032   1.547648   0.000000
     4  C    2.271408   1.550911   2.182145   0.000000
     5  H    1.770391   1.092148   2.205567   2.198152   0.000000
     6  H    2.978130   2.245303   3.068797   1.095779   2.431119
     7  C    3.107807   2.170521   1.545023   1.587111   2.726914
     8  C    2.803157   2.607186   3.132368   1.496689   3.468941
     9  H    2.472953   2.191606   1.089324   2.727440   3.067645
    10  H    2.950807   2.272066   1.089390   3.122802   2.509313
    11  H    3.711816   2.643736   2.167642   2.173650   2.771894
    12  H    3.869921   3.548178   3.840278   2.182726   4.345273
    13  C    4.310534   3.530001   2.652542   2.675100   4.206876
    14  C    2.750703   3.060811   3.717707   2.536827   3.989530
    15  H    2.116342   2.783703   3.611131   2.839541   3.663697
    16  H    3.785227   4.136159   4.674415   3.507781   5.071398
    17  C    4.890867   4.277312   3.098691   3.710311   5.061304
    18  H    5.043997   4.228840   3.597781   3.068205   4.812625
    19  H    5.910583   5.321821   4.180450   4.621658   6.112274
    20  H    4.634151   4.150948   2.800541   3.973277   4.961969
                    6          7          8          9         10
     6  H    0.000000
     7  C    2.249466   0.000000
     8  C    2.112590   2.599540   0.000000
     9  H    3.768551   2.194918   3.183690   0.000000
    10  H    3.846807   2.260657   4.205906   1.769290   0.000000
    11  H    2.365628   1.095888   3.434030   3.059089   2.463716
    12  H    2.522428   2.935054   1.087127   3.878765   4.884434
    13  C    3.285418   1.492704   3.028382   2.806628   3.284523
    14  C    3.197528   3.653579   1.328127   3.483147   4.781795
    15  H    3.551745   3.964192   2.117985   3.344940   4.579709
    16  H    4.091295   4.521911   2.101266   4.305337   5.744548
    17  C    4.489921   2.515232   3.820827   2.832606   3.587954
    18  H    3.373759   2.191315   3.291372   3.844813   4.230170
    19  H    5.324896   3.494698   4.545469   3.862000   4.639249
    20  H    4.893086   2.801781   4.142310   2.275991   3.147709
                   11         12         13         14         15
    11  H    0.000000
    12  H    3.688375   0.000000
    13  C    2.112721   2.895133   0.000000
    14  C    4.568879   2.073227   4.078632   0.000000
    15  H    4.846435   3.060535   4.640454   1.083229   0.000000
    16  H    5.468238   2.394521   4.675003   1.082540   1.841066
    17  C    3.203824   3.710873   1.327147   4.588547   5.083633
    18  H    2.497797   2.825260   1.088275   4.470383   5.195730
    19  H    4.092894   4.220365   2.104699   5.285020   5.888207
    20  H    3.553679   4.278182   2.114605   4.687510   4.973274
                   16         17         18         19         20
    16  H    0.000000
    17  C    5.042282   0.000000
    18  H    4.954937   2.079564   0.000000
    19  H    5.566278   1.081941   2.411191   0.000000
    20  H    5.190781   1.083111   3.063787   1.838427   0.000000
 Symmetry turned off by external request.
 Stoichiometry    C8H12
 Framework group  C1[X(C8H12)]
 Deg. of freedom    54
 Full point group                 C1      NOp   1
 Rotational constants (GHZ):           2.7932030           1.6940097           1.3127924
 Standard basis: def2TZVP (5D, 7F)
 The following finite field(s) will be applied:
 An electric field of             -0.0092 -0.0031 -0.0023
   320 basis functions,   504 primitive gaussians,   360 cartesian basis functions
    30 alpha electrons       30 beta electrons
       nuclear repulsion energy       360.2110367587 Hartrees.
 NAtoms=   20 NActive=   20 NUniq=   20 SFac= 1.00D+00 NAtFMM=   60 NAOKFM=F Big=F
 Integral buffers will be    131072 words long.
 Raffenetti 2 integral format.
 Two-electron integral symmetry is turned off.
 One-electron integrals computed using PRISM.
   1 Symmetry operations used in ECPInt.
 ECPInt:  NShTT=    9316 NPrTT=   27240 LenC2=    9174 LenP2D=   21651.
 LDataN:  DoStor=T MaxTD1= 6 Len=  172
 NBasis=   320 RedAO= T EigKep=  3.34D-05  NBF=   320
 NBsUse=   320 1.00D-06 EigRej= -1.00D+00 NBFU=   320
 The nuclear repulsion energy is now       358.3704345282 hartrees.
 Initial guess from the checkpoint file:  "checkpoint.chk"
 B after Tr=     0.000000   -0.000000   -0.000000
         Rot=    1.000000    0.000000    0.000000    0.000000 Ang=   0.00 deg.
 Requested convergence on RMS density matrix=1.00D-08 within 128 cycles.
 Requested convergence on MAX density matrix=1.00D-06.
 Requested convergence on             energy=1.00D-06.
 No special actions if energy rises.
 SCF Done:  E(RB3LYP) =  -312.120544537     A.U. after   10 cycles
            NFock= 10  Conv=0.46D-08     -V/T= 2.0056
   1 Symmetry operations used in ECPInt.
 ECPInt:  NShTT=    9316 NPrTT=   27240 LenC2=    9174 LenP2D=   21651.
 LDataN:  DoStor=T MaxTD1= 7 Len=  274
 Calling FoFJK, ICntrl=      2127 FMM=F ISym2X=0 I1Cent= 0 IOpClX= 0 NMat=1 NMatS=1 NMatT=0.
 -------------------------------------------------------------------
 Center     Atomic                   Forces (Hartrees/Bohr)
 Number     Number              X              Y              Z
 -------------------------------------------------------------------
      1        1          -0.000636493   -0.000150293   -0.000306814
      2        6           0.000719264    0.000151533   -0.000085456
      3        6           0.000058975    0.000186985   -0.000044267
      4        6           0.000518810   -0.000090624   -0.000166624
      5        1          -0.000257667   -0.000384028    0.000180907
      6        1          -0.000405824    0.000074003    0.000175877
      7        6           0.000193778    0.000127794    0.000252826
      8        6          -0.000516727   -0.000007265    0.000161126
      9        1          -0.000040320   -0.000078126    0.000124066
     10        1           0.000047915    0.000131095   -0.000053053
     11        1          -0.000135837   -0.000241796    0.000055359
     12        1           0.000273993   -0.000075973   -0.000002889
     13        6           0.000139784    0.000454898   -0.000101212
     14        6          -0.000611784    0.000216876   -0.000255023
     15        1           0.000257658   -0.000119347   -0.000015278
     16        1           0.000315218   -0.000014751    0.000035868
     17        6          -0.000225127   -0.000053433   -0.000104718
     18        1           0.000000601   -0.000072484    0.000101880
     19        1           0.000113945   -0.000126227   -0.000052296
     20        1           0.000189840    0.000071163    0.000099723
 -------------------------------------------------------------------
 Cartesian Forces:  Max     0.000719264 RMS     0.000243153
 -----------------------------------------------------------------------------------------------
                       Internal Coordinate Forces (Hartree/Bohr or radian)
  Cent   Atom   N1       Length/X         N2         Alpha/Y        N3         Beta/Z          J
 -----------------------------------------------------------------------------------------------
      1  H 
      2  C        1   0.000307(     1)
      3  C        2   0.000432(     2)      1  -0.000630(    20)
      4  C        2  -0.000008(     3)      1  -0.000235(    21)      3   0.000371(    38)     0
      5  H        2   0.000495(     4)      1   0.000052(    22)      3   0.000063(    39)     0
      6  H        4   0.000443(     5)      2   0.000112(    23)      1   0.000210(    40)     0
      7  C        3   0.000175(     6)      2   0.001307(    24)      1  -0.000111(    41)     0
      8  C        4   0.000010(     7)      2   0.000015(    25)      6   0.000298(    42)     0
      9  H        3  -0.000133(     8)      2   0.000150(    26)      7  -0.000027(    43)     0
     10  H        3  -0.000116(     9)      2   0.000171(    27)      7   0.000080(    44)     0
     11  H        7   0.000217(    10)      3  -0.000319(    28)      2  -0.000031(    45)     0
     12  H        8  -0.000064(    11)      4  -0.000019(    29)      2   0.000227(    46)     0
     13  C        7   0.000307(    12)      3  -0.000445(    30)     11   0.000157(    47)     0
     14  C        8   0.000236(    13)      4   0.000082(    31)     12  -0.000291(    48)     0
     15  H       14   0.000111(    14)      8  -0.000072(    32)      4   0.000110(    49)     0
     16  H       14   0.000007(    15)      8  -0.000017(    33)     15   0.000557(    50)     0
     17  C       13   0.000073(    16)      7  -0.000200(    34)      3   0.000024(    51)     0
     18  H       13   0.000015(    17)      7  -0.000052(    35)     17   0.000226(    52)     0
     19  H       17  -0.000059(    18)     13   0.000323(    36)      7  -0.000038(    53)     0
     20  H       17  -0.000002(    19)     13   0.000433(    37)     19  -0.000137(    54)     0
 -----------------------------------------------------------------------------------------------
 Internal  Forces:  Max     0.001307028 RMS     0.000295960

 GradGradGradGradGradGradGradGradGradGradGradGradGradGradGradGradGradGrad
 Berny optimization.
 Search for a local minimum.
 Step number   1 out of a maximum of   64
 All quantities printed in internal units (Hartrees-Bohrs-Radians)
 Second derivative matrix not updated -- first step.
 ITU=  0
     Eigenvalues ---    0.03734   0.04232   0.05050   0.05408   0.06690
     Eigenvalues ---    0.07095   0.08090   0.08901   0.13116   0.15592
     Eigenvalues ---    0.16604   0.17129   0.18595   0.18976   0.20236
     Eigenvalues ---    0.20740   0.21111   0.21775   0.23284   0.24119
     Eigenvalues ---    0.26716   0.27164   0.27961   0.30044   0.32689
     Eigenvalues ---    0.32735   0.33155   0.34138   0.34153   0.34244
     Eigenvalues ---    0.34566   0.34862   0.34884   0.34893   0.35011
     Eigenvalues ---    0.35147   0.35607   0.35621   0.35690   0.35761
     Eigenvalues ---    0.38520   0.43760   0.45614   0.48721   0.50500
     Eigenvalues ---    0.53012   0.55642   0.59951   0.60184   0.70922
     Eigenvalues ---    0.80545   0.98278   1.96047   5.62402
 RFO step:  Lambda=-1.44467341D-05 EMin= 3.73376409D-02
 Linear search not attempted -- first point.
 Variable       Old X    -DE/DX   Delta X   Delta X   Delta X     New X
                                 (Linear)    (Quad)   (Total)
    R2        2.05900   0.00031   0.00000   0.00088   0.00088   2.05988
    R3        2.92463   0.00043   0.00000   0.00063   0.00063   2.92527
    R4        2.93080  -0.00001   0.00000   0.00024   0.00024   2.93103
    R5        2.06386   0.00049   0.00000   0.00143   0.00143   2.06529
    R6        2.07072   0.00044   0.00000   0.00130   0.00130   2.07202
    R7        2.91967   0.00018   0.00000   0.00032   0.00032   2.91999
    R8        2.82833   0.00001   0.00000   0.00004   0.00004   2.82837
    R9        2.05852  -0.00013   0.00000  -0.00038  -0.00038   2.05814
   R10        2.05865  -0.00012   0.00000  -0.00033  -0.00033   2.05832
   R11        2.07093   0.00022   0.00000   0.00065   0.00065   2.07158
   R12        2.05437  -0.00006   0.00000  -0.00018  -0.00018   2.05419
   R13        2.82080   0.00031   0.00000   0.00092   0.00092   2.82172
   R14        2.50980   0.00024   0.00000   0.00039   0.00039   2.51019
   R15        2.04701   0.00011   0.00000   0.00031   0.00031   2.04732
   R16        2.04571   0.00001   0.00000   0.00002   0.00002   2.04573
   R17        2.50795   0.00007   0.00000   0.00012   0.00012   2.50806
   R18        2.05654   0.00001   0.00000   0.00005   0.00005   2.05659
   R19        2.04457  -0.00006   0.00000  -0.00016  -0.00016   2.04441
   R20        2.04678  -0.00000   0.00000  -0.00001  -0.00001   2.04677
    A3        2.03712  -0.00063   0.00000  -0.00126  -0.00126   2.03586
    A4        2.05284  -0.00023   0.00000   0.00098   0.00098   2.05382
    A5        1.89331   0.00005   0.00000   0.00035   0.00035   1.89366
    A6        2.00677   0.00011   0.00000   0.00035   0.00035   2.00711
    A7        1.55592   0.00131   0.00000   0.00085   0.00085   1.55677
    A8        2.05279   0.00001   0.00000  -0.00026  -0.00026   2.05254
    A9        1.94143   0.00015   0.00000   0.00029   0.00029   1.94173
   A10        2.05856   0.00017   0.00000   0.00052   0.00052   2.05909
   A11        1.90495  -0.00032   0.00000  -0.00113  -0.00113   1.90381
   A12        1.99600  -0.00002   0.00000  -0.00023  -0.00023   1.99577
   A13        2.12329  -0.00045   0.00000  -0.00001  -0.00001   2.12328
   A14        2.22889   0.00008   0.00000   0.00028   0.00028   2.22917
   A15        2.13909  -0.00007   0.00000  -0.00032  -0.00032   2.13876
   A16        2.11124  -0.00002   0.00000  -0.00002  -0.00002   2.11122
   A17        2.20163  -0.00020   0.00000   0.00022   0.00022   2.20185
   A18        2.01267  -0.00005   0.00000  -0.00045  -0.00045   2.01222
   A19        2.11949   0.00032   0.00000  -0.00004  -0.00004   2.11944
   A20        2.13491   0.00043   0.00000   0.00143   0.00143   2.13633
    D4        1.82673   0.00037   0.00000  -0.00013  -0.00013   1.82660
    D5       -2.23184   0.00006   0.00000   0.00120   0.00120  -2.23063
    D6        1.89252   0.00021   0.00000   0.00329   0.00329   1.89581
    D7        2.42444  -0.00011   0.00000  -0.00159  -0.00159   2.42285
    D8       -2.25459   0.00030   0.00000   0.00116   0.00116  -2.25343
    D9       -1.97223  -0.00003   0.00000   0.00035   0.00035  -1.97188
   D10        2.10474   0.00008   0.00000   0.00072   0.00072   2.10546
   D11        1.56554  -0.00003   0.00000   0.00155   0.00155   1.56709
   D12       -2.87146   0.00023   0.00000   0.00443   0.00443  -2.86703
   D13        2.22338   0.00016   0.00000   0.00066   0.00066   2.22404
   D14       -3.15353  -0.00029   0.00000  -0.00542  -0.00542  -3.15895
   D15       -0.01901   0.00011   0.00000  -0.00053  -0.00053  -0.01954
   D16        3.18011   0.00056   0.00000   0.00785   0.00785   3.18796
   D17       -0.11051   0.00002   0.00000  -0.00191  -0.00191  -0.11242
   D18       -3.10929   0.00023   0.00000   0.00297   0.00297  -3.10632
   D19       -3.11082  -0.00004   0.00000   0.00267   0.00267  -3.10814
   D20        3.12645  -0.00014   0.00000  -0.00192  -0.00192   3.12453
         Item               Value     Threshold  Converged?
 Maximum Force            0.001307     0.000450     NO 
 RMS     Force            0.000296     0.000300     YES
 Maximum Displacement     0.007847     0.001800     NO 
 RMS     Displacement     0.001767     0.001200     NO 
 Predicted change in Energy=-7.223367D-06
 GradGradGradGradGradGradGradGradGradGradGradGradGradGradGradGradGradGrad

 ---------------------------------------------------------------------------------------------------
                            Z-MATRIX (ANGSTROMS AND DEGREES)
   CD    Cent   Atom    N1       Length/X        N2       Alpha/Y        N3        Beta/Z          J
 ---------------------------------------------------------------------------------------------------
      1      1  H 
      2      2  C        1   1.090041(     1)
      3      3  C        2   1.547984(     2)      1  116.646(    20)
      4      4  C        2   1.551036(     3)      1  117.675(    21)      3  104.657(    38)      0
      5      5  H        2   1.092906(     4)      1  108.499(    22)      3 -127.806(    39)      0
      6      6  H        4   1.096466(     5)      2  114.999(    23)      1  108.622(    40)      0
      7      7  C        3   1.545191(     6)      2   89.196(    24)      1  138.819(    41)      0
      8      8  C        4   1.496708(     7)      2  117.602(    25)      6 -129.112(    42)      0
      9      9  H        3   1.089121(     8)      2  111.253(    26)      7 -112.980(    43)      0
     10     10  H        3   1.089215(     9)      2  117.977(    27)      7  120.634(    44)      0
     11     11  H        7   1.096231(    10)      3  109.080(    28)      2   89.788(    45)      0
     12     12  H        8   1.087032(    11)      4  114.349(    29)      2 -164.268(    46)      0
     13     13  C        7   1.493191(    12)      3  121.655(    30)     11  127.428(    47)      0
     14     14  C        8   1.328336(    13)      4  127.722(    31)     12 -180.994(    48)      0
     15     15  H       14   1.083394(    14)      8  122.542(    32)      4   -1.120(    49)      0
     16     16  H       14   1.082553(    15)      8  120.964(    33)     15  182.657(    50)      0
     17     17  C       13   1.327211(    16)      7  126.156(    34)      3   -6.441(    51)      0
     18     18  H       13   1.088303(    17)      7  115.292(    35)     17 -177.979(    52)      0
     19     19  H       17   1.081855(    18)     13  121.435(    36)      7 -178.084(    53)      0
     20     20  H       17   1.083107(    19)     13  122.403(    37)     19  179.022(    54)      0
 ---------------------------------------------------------------------------------------------------
                         Z-Matrix orientation:                         
 ---------------------------------------------------------------------
 Center     Atomic      Atomic             Coordinates (Angstroms)
 Number     Number       Type             X           Y           Z
 ---------------------------------------------------------------------
      1          1           0        0.000000    0.000000    0.000000
      2          6           0        0.000000    0.000000    1.090041
      3          6           0        1.383576    0.000000    1.784284
      4          6           0       -0.347551    1.328892    1.810435
      5          1           0       -0.635324   -0.818880    1.436803
      6          1           0       -1.325166    1.345034    2.306669
      7          6           0        0.842689    1.017309    2.813914
      8          6           0       -0.199772    2.598800    1.032214
      9          1           0        2.146153    0.442406    1.144801
     10          1           0        1.761312   -0.945672    2.170817
     11          1           0        0.407912    0.473474    3.660634
     12          1           0       -0.191377    3.499218    1.641161
     13          6           0        1.695211    2.121168    3.347133
     14          6           0       -0.063356    2.735405   -0.282018
     15          1           0       -0.027223    1.887495   -0.955432
     16          1           0        0.060707    3.712849   -0.730496
     17          6           0        2.991363    2.290400    3.117264
     18          1           0        1.188963    2.821568    4.008614
     19          1           0        3.543024    3.103962    3.569147
     20          1           0        3.560905    1.620734    2.484580
 ---------------------------------------------------------------------
                    Distance matrix (angstroms):
                    1          2          3          4          5
     1  H    0.000000
     2  C    1.090041   0.000000
     3  C    2.257864   1.547984   0.000000
     4  C    2.272536   1.551036   2.182530   0.000000
     5  H    1.771610   1.092906   2.206187   2.198939   0.000000
     6  H    2.980923   2.246188   3.069085   1.096466   2.432091
     7  C    3.108562   2.171815   1.545191   1.587679   2.729935
     8  C    2.803415   2.607109   3.134703   1.496708   3.468996
     9  H    2.472300   2.191961   1.089121   2.729008   3.068015
    10  H    2.951095   2.272574   1.089215   3.122630   2.509724
    11  H    3.713598   2.645471   2.167207   2.173868   2.775597
    12  H    3.869697   3.547518   3.839985   2.182512   4.345666
    13  C    4.310034   3.530943   2.653105   2.676195   4.210063
    14  C    2.750634   3.060882   3.720975   2.537204   3.989289
    15  H    2.115710   2.783404   3.613729   2.839836   3.662928
    16  H    3.784516   4.135612   4.675398   3.508028   5.071312
    17  C    4.889940   4.278296   3.099637   3.712229   5.064032
    18  H    5.044191   4.230005   3.598161   3.069356   4.816128
    19  H    5.909857   5.322928   4.181331   4.623907   6.115076
    20  H    4.634648   4.153500   2.803204   3.976892   4.965670
                    6          7          8          9         10
     6  H    0.000000
     7  C    2.250399   0.000000
     8  C    2.112505   2.600441   0.000000
     9  H    3.770242   2.194418   3.188428   0.000000
    10  H    3.846054   2.260694   4.207796   1.768495   0.000000
    11  H    2.365670   1.096231   3.434368   3.058082   2.462767
    12  H    2.523665   2.933344   1.087032   3.880015   4.883705
    13  C    3.287495   1.493191   3.029512   2.805683   3.285361
    14  C    3.197904   3.654800   1.328336   3.489353   4.784991
    15  H    3.552495   3.965090   2.118128   3.350048   4.582481
    16  H    4.092867   4.521092   2.101452   4.308320   5.745563
    17  C    4.492571   2.515865   3.824380   2.831973   3.589004
    18  H    3.376035   2.191474   3.291985   3.844222   4.230505
    19  H    5.327940   3.495183   4.549696   3.861681   4.639974
    20  H    4.897075   2.803797   4.148333   2.277057   3.150146
                   11         12         13         14         15
    11  H    0.000000
    12  H    3.686807   0.000000
    13  C    2.114313   2.892849   0.000000
    14  C    4.569784   2.073262   4.079287   0.000000
    15  H    4.847357   3.060538   4.640415   1.083394   0.000000
    16  H    5.467735   2.394565   4.672484   1.082553   1.841262
    17  C    3.204792   3.710788   1.327211   4.591781   5.085376
    18  H    2.498935   2.823009   1.088303   4.470486   5.195512
    19  H    4.093503   4.221268   2.104658   5.288977   5.890524
    20  H    3.555372   4.280148   2.115477   4.693806   4.977902
                   16         17         18         19         20
    16  H    0.000000
    17  C    5.041563   0.000000
    18  H    4.952424   2.079733   0.000000
    19  H    5.566345   1.081855   2.411323   0.000000
    20  H    5.192787   1.083107   3.064439   1.837545   0.000000
 Symmetry turned off by external request.
 Stoichiometry    C8H12
 Framework group  C1[X(C8H12)]
 Deg. of freedom    54
 Full point group                 C1      NOp   1
 Rotational constants (GHZ):           2.7926525           1.6925257           1.3116388
 Standard basis: def2TZVP (5D, 7F)
 The following finite field(s) will be applied:
 An electric field of             -0.0092 -0.0031 -0.0023
   320 basis functions,   504 primitive gaussians,   360 cartesian basis functions
    30 alpha electrons       30 beta electrons
       nuclear repulsion energy       360.1218539249 Hartrees.
 NAtoms=   20 NActive=   20 NUniq=   20 SFac= 1.00D+00 NAtFMM=   60 NAOKFM=F Big=F
 Integral buffers will be    131072 words long.
 Raffenetti 2 integral format.
 Two-electron integral symmetry is turned off.
 One-electron integrals computed using PRISM.
   1 Symmetry operations used in ECPInt.
 ECPInt:  NShTT=    9316 NPrTT=   27240 LenC2=    9174 LenP2D=   21649.
 LDataN:  DoStor=T MaxTD1= 6 Len=  172
 NBasis=   320 RedAO= T EigKep=  3.33D-05  NBF=   320
 NBsUse=   320 1.00D-06 EigRej= -1.00D+00 NBFU=   320
 The nuclear repulsion energy is now       358.2808316165 hartrees.
 Initial guess from the checkpoint file:  "checkpoint.chk"
 B after Tr=    -0.008468   -0.001633    0.003618
         Rot=    0.999998    0.000291   -0.001679   -0.000356 Ang=   0.20 deg.
 Requested convergence on RMS density matrix=1.00D-08 within 128 cycles.
 Requested convergence on MAX density matrix=1.00D-06.
 Requested convergence on             energy=1.00D-06.
 No special actions if energy rises.
 SCF Done:  E(RB3LYP) =  -312.120553501     A.U. after    8 cycles
            NFock=  8  Conv=0.35D-08     -V/T= 2.0056
   1 Symmetry operations used in ECPInt.
 ECPInt:  NShTT=    9316 NPrTT=   27240 LenC2=    9174 LenP2D=   21649.
 LDataN:  DoStor=T MaxTD1= 7 Len=  274
 Calling FoFJK, ICntrl=      2127 FMM=F ISym2X=0 I1Cent= 0 IOpClX= 0 NMat=1 NMatS=1 NMatT=0.
 -------------------------------------------------------------------
 Center     Atomic                   Forces (Hartrees/Bohr)
 Number     Number              X              Y              Z
 -------------------------------------------------------------------
      1        1          -0.000747732   -0.000088289    0.000030521
      2        6           0.000680523   -0.000307056    0.000133930
      3        6           0.000028879    0.000456932   -0.000095550
      4        6           0.000143943    0.000040428   -0.000146843
      5        1          -0.000007081   -0.000033326   -0.000030545
      6        1          -0.000026928   -0.000045643    0.000022167
      7        6          -0.000042353   -0.000031012    0.000149381
      8        6          -0.000073730   -0.000012774    0.000034590
      9        1           0.000026659   -0.000034793   -0.000035014
     10        1           0.000005033    0.000012105    0.000011648
     11        1           0.000001970    0.000032261   -0.000001560
     12        1           0.000102133    0.000005869    0.000005414
     13        6           0.000010604    0.000094054   -0.000041972
     14        6          -0.000250797    0.000048506   -0.000063358
     15        1           0.000091319   -0.000015153    0.000019942
     16        1           0.000095389   -0.000006467    0.000020903
     17        6          -0.000204083   -0.000086372   -0.000032065
     18        1           0.000033261   -0.000032238    0.000026501
     19        1           0.000077423   -0.000004868   -0.000034515
     20        1           0.000055569    0.000007836    0.000026425
 -------------------------------------------------------------------
 Cartesian Forces:  Max     0.000747732 RMS     0.000164350
 -----------------------------------------------------------------------------------------------
                       Internal Coordinate Forces (Hartree/Bohr or radian)
  Cent   Atom   N1       Length/X         N2         Alpha/Y        N3         Beta/Z          J
 -----------------------------------------------------------------------------------------------
      1  H 
      2  C        1  -0.000031(     1)
      3  C        2  -0.000018(     2)      1  -0.000304(    20)
      4  C        2  -0.000055(     3)      1  -0.000079(    21)      3  -0.000220(    38)     0
      5  H        2   0.000019(     4)      1  -0.000080(    22)      3   0.000029(    39)     0
      6  H        4   0.000033(     5)      2  -0.000084(    23)      1   0.000083(    40)     0
      7  C        3   0.000072(     6)      2   0.000235(    24)      1  -0.000133(    41)     0
      8  C        4   0.000004(     7)      2   0.000092(    25)      6   0.000040(    42)     0
      9  H        3   0.000025(     8)      2  -0.000002(    26)      7  -0.000096(    43)     0
     10  H        3  -0.000005(     9)      2   0.000028(    27)      7  -0.000019(    44)     0
     11  H        7  -0.000018(    10)      3   0.000056(    28)      2   0.000081(    45)     0
     12  H        8   0.000009(    11)      4   0.000020(    29)      2   0.000167(    46)     0
     13  C        7  -0.000051(    12)      3  -0.000363(    30)     11   0.000079(    47)     0
     14  C        8   0.000018(    13)      4   0.000044(    31)     12  -0.000024(    48)     0
     15  H       14   0.000003(    14)      8  -0.000032(    32)      4   0.000009(    49)     0
     16  H       14  -0.000004(    15)      8  -0.000023(    33)     15   0.000170(    50)     0
     17  C       13  -0.000073(    16)      7  -0.000284(    34)      3   0.000038(    51)     0
     18  H       13  -0.000020(    17)      7   0.000030(    35)     17   0.000088(    52)     0
     19  H       17   0.000021(    18)     13   0.000167(    36)      7  -0.000062(    53)     0
     20  H       17   0.000009(    19)     13   0.000111(    37)     19  -0.000049(    54)     0
 -----------------------------------------------------------------------------------------------
 Internal  Forces:  Max     0.000362915 RMS     0.000107988

 GradGradGradGradGradGradGradGradGradGradGradGradGradGradGradGradGradGrad
 Berny optimization.
 Search for a local minimum.
 Step number   2 out of a maximum of   64
 All quantities printed in internal units (Hartrees-Bohrs-Radians)
 Update second derivatives using D2CorN and points    1    2
 DE= -8.96D-06 DEPred=-7.22D-06 R= 1.24D+00
 TightC=F SS=  1.41D+00  RLast= 1.30D-02 DXNew= 1.6818D-01 3.8943D-02
 Trust test= 1.24D+00 RLast= 1.30D-02 DXMaxT set to 1.00D-01
 ITU=  1  0
     Eigenvalues ---    0.03314   0.03745   0.04567   0.05365   0.06690
     Eigenvalues ---    0.07086   0.08055   0.08641   0.13133   0.15537
     Eigenvalues ---    0.16601   0.17112   0.18566   0.18968   0.20255
     Eigenvalues ---    0.20731   0.21129   0.21775   0.23316   0.24082
     Eigenvalues ---    0.26691   0.27180   0.27955   0.30054   0.32687
     Eigenvalues ---    0.32735   0.33182   0.34127   0.34143   0.34249
     Eigenvalues ---    0.34550   0.34873   0.34883   0.34903   0.35013
     Eigenvalues ---    0.35148   0.35607   0.35621   0.35690   0.35763
     Eigenvalues ---    0.38583   0.43740   0.45616   0.48717   0.50469
     Eigenvalues ---    0.52913   0.55640   0.59946   0.60190   0.70901
     Eigenvalues ---    0.80465   0.98256   1.96019   5.62374
 RFO step:  Lambda=-2.41968021D-06 EMin= 3.31419682D-02
 Quartic linear search produced a step of  0.31798.
 Variable       Old X    -DE/DX   Delta X   Delta X   Delta X     New X
                                 (Linear)    (Quad)   (Total)
    R2        2.05988  -0.00003   0.00028  -0.00039  -0.00011   2.05977
    R3        2.92527  -0.00002   0.00020  -0.00024  -0.00004   2.92522
    R4        2.93103  -0.00006   0.00007  -0.00018  -0.00010   2.93093
    R5        2.06529   0.00002   0.00046  -0.00035   0.00011   2.06540
    R6        2.07202   0.00003   0.00041  -0.00025   0.00017   2.07219
    R7        2.91999   0.00007   0.00010   0.00005   0.00015   2.92014
    R8        2.82837   0.00000   0.00001   0.00001   0.00002   2.82839
    R9        2.05814   0.00003  -0.00012   0.00021   0.00009   2.05823
   R10        2.05832  -0.00000  -0.00011   0.00008  -0.00002   2.05829
   R11        2.07158  -0.00002   0.00021  -0.00026  -0.00005   2.07152
   R12        2.05419   0.00001  -0.00006   0.00009   0.00003   2.05423
   R13        2.82172  -0.00005   0.00029  -0.00050  -0.00020   2.82152
   R14        2.51019   0.00002   0.00013  -0.00008   0.00005   2.51024
   R15        2.04732   0.00000   0.00010  -0.00009   0.00001   2.04733
   R16        2.04573  -0.00000   0.00001  -0.00002  -0.00001   2.04572
   R17        2.50806  -0.00007   0.00004  -0.00021  -0.00017   2.50789
   R18        2.05659  -0.00002   0.00002  -0.00009  -0.00007   2.05653
   R19        2.04441   0.00002  -0.00005   0.00014   0.00008   2.04449
   R20        2.04677   0.00001  -0.00000   0.00003   0.00003   2.04680
    A3        2.03586  -0.00030  -0.00040  -0.00116  -0.00156   2.03430
    A4        2.05382  -0.00008   0.00031  -0.00060  -0.00029   2.05354
    A5        1.89366  -0.00008   0.00011   0.00027   0.00038   1.89404
    A6        2.00711  -0.00008   0.00011  -0.00052  -0.00041   2.00670
    A7        1.55677   0.00023   0.00027  -0.00018   0.00009   1.55687
    A8        2.05254   0.00009  -0.00008   0.00064   0.00056   2.05310
    A9        1.94173  -0.00000   0.00009  -0.00002   0.00007   1.94180
   A10        2.05909   0.00003   0.00017  -0.00013   0.00003   2.05912
   A11        1.90381   0.00006  -0.00036   0.00084   0.00048   1.90429
   A12        1.99577   0.00002  -0.00007   0.00004  -0.00003   1.99574
   A13        2.12328  -0.00036  -0.00000  -0.00049  -0.00050   2.12279
   A14        2.22917   0.00004   0.00009   0.00009   0.00018   2.22935
   A15        2.13876  -0.00003  -0.00010  -0.00006  -0.00016   2.13860
   A16        2.11122  -0.00002  -0.00001  -0.00010  -0.00011   2.11112
   A17        2.20185  -0.00028   0.00007  -0.00035  -0.00028   2.20156
   A18        2.01222   0.00003  -0.00014   0.00022   0.00008   2.01230
   A19        2.11944   0.00017  -0.00001   0.00000  -0.00001   2.11943
   A20        2.13633   0.00011   0.00045   0.00027   0.00073   2.13706
    D4        1.82660  -0.00022  -0.00004  -0.00124  -0.00128   1.82532
    D5       -2.23063   0.00003   0.00038  -0.00024   0.00014  -2.23049
    D6        1.89581   0.00008   0.00105   0.00159   0.00263   1.89844
    D7        2.42285  -0.00013  -0.00050  -0.00043  -0.00093   2.42192
    D8       -2.25343   0.00004   0.00037  -0.00081  -0.00044  -2.25386
    D9       -1.97188  -0.00010   0.00011  -0.00062  -0.00051  -1.97238
   D10        2.10546  -0.00002   0.00023  -0.00050  -0.00027   2.10518
   D11        1.56709   0.00008   0.00049  -0.00025   0.00025   1.56734
   D12       -2.86703   0.00017   0.00141   0.00267   0.00408  -2.86295
   D13        2.22404   0.00008   0.00021   0.00017   0.00038   2.22442
   D14       -3.15895  -0.00002  -0.00172  -0.00038  -0.00210  -3.16105
   D15       -0.01954   0.00001  -0.00017  -0.00121  -0.00138  -0.02092
   D16        3.18796   0.00017   0.00250   0.00203   0.00453   3.19249
   D17       -0.11242   0.00004  -0.00061  -0.00039  -0.00100  -0.11342
   D18       -3.10632   0.00009   0.00095   0.00057   0.00151  -3.10481
   D19       -3.10814  -0.00006   0.00085   0.00020   0.00105  -3.10709
   D20        3.12453  -0.00005  -0.00061  -0.00027  -0.00088   3.12364
         Item               Value     Threshold  Converged?
 Maximum Force            0.000363     0.000450     YES
 RMS     Force            0.000108     0.000300     YES
 Maximum Displacement     0.004526     0.001800     NO 
 RMS     Displacement     0.001083     0.001200     YES
 Predicted change in Energy=-1.532327D-06
 GradGradGradGradGradGradGradGradGradGradGradGradGradGradGradGradGradGrad

 ---------------------------------------------------------------------------------------------------
                            Z-MATRIX (ANGSTROMS AND DEGREES)
   CD    Cent   Atom    N1       Length/X        N2       Alpha/Y        N3        Beta/Z          J
 ---------------------------------------------------------------------------------------------------
      1      1  H 
      2      2  C        1   1.089984(     1)
      3      3  C        2   1.547961(     2)      1  116.557(    20)
      4      4  C        2   1.550981(     3)      1  117.659(    21)      3  104.583(    38)      0
      5      5  H        2   1.092963(     4)      1  108.521(    22)      3 -127.798(    39)      0
      6      6  H        4   1.096554(     5)      2  114.976(    23)      1  108.772(    40)      0
      7      7  C        3   1.545270(     6)      2   89.202(    24)      1  138.766(    41)      0
      8      8  C        4   1.496719(     7)      2  117.634(    25)      6 -129.137(    42)      0
      9      9  H        3   1.089170(     8)      2  111.257(    26)      7 -113.009(    43)      0
     10     10  H        3   1.089202(     9)      2  117.979(    27)      7  120.618(    44)      0
     11     11  H        7   1.096203(    10)      3  109.108(    28)      2   89.802(    45)      0
     12     12  H        8   1.087050(    11)      4  114.347(    29)      2 -164.035(    46)      0
     13     13  C        7   1.493083(    12)      3  121.627(    30)     11  127.450(    47)      0
     14     14  C        8   1.328361(    13)      4  127.732(    31)     12 -181.115(    48)      0
     15     15  H       14   1.083402(    14)      8  122.533(    32)      4   -1.199(    49)      0
     16     16  H       14   1.082548(    15)      8  120.958(    33)     15  182.916(    50)      0
     17     17  C       13   1.327119(    16)      7  126.140(    34)      3   -6.498(    51)      0
     18     18  H       13   1.088266(    17)      7  115.297(    35)     17 -177.892(    52)      0
     19     19  H       17   1.081900(    18)     13  121.434(    36)      7 -178.023(    53)      0
     20     20  H       17   1.083122(    19)     13  122.445(    37)     19  178.972(    54)      0
 ---------------------------------------------------------------------------------------------------
                         Z-Matrix orientation:                         
 ---------------------------------------------------------------------
 Center     Atomic      Atomic             Coordinates (Angstroms)
 Number     Number       Type             X           Y           Z
 ---------------------------------------------------------------------
      1          1           0        0.000000    0.000000    0.000000
      2          6           0        0.000000    0.000000    1.089984
      3          6           0        1.384638    0.000000    1.782054
      4          6           0       -0.345891    1.329487    1.809961
      5          1           0       -0.635158   -0.818907    1.437162
      6          1           0       -1.322573    1.345693    2.308217
      7          6           0        0.845888    1.018449    2.811796
      8          6           0       -0.199440    2.599211    1.031166
      9          1           0        2.146588    0.441094    1.140836
     10          1           0        1.762495   -0.945431    2.169025
     11          1           0        0.412355    0.475972    3.659987
     12          1           0       -0.185823    3.499498    1.640243
     13          6           0        1.700062    2.122492    3.341676
     14          6           0       -0.067498    2.735857   -0.283544
     15          1           0       -0.033428    1.887845   -0.956950
     16          1           0        0.058950    3.713025   -0.731946
     17          6           0        2.995887    2.289986    3.109235
     18          1           0        1.195877    2.823622    4.003898
     19          1           0        3.549385    3.103281    3.559458
     20          1           0        3.564263    1.619106    2.476763
 ---------------------------------------------------------------------
                    Distance matrix (angstroms):
                    1          2          3          4          5
     1  H    0.000000
     2  C    1.089984   0.000000
     3  C    2.256754   1.547961   0.000000
     4  C    2.272253   1.550981   2.182440   0.000000
     5  H    1.771855   1.092963   2.206612   2.199603   0.000000
     6  H    2.981267   2.245926   3.068669   1.096554   2.432441
     7  C    3.107887   2.171958   1.545270   1.587688   2.731116
     8  C    2.803387   2.607515   3.135129   1.496719   3.469613
     9  H    2.470609   2.192029   1.089170   2.729362   3.068146
    10  H    2.950406   2.272566   1.089202   3.122414   2.510054
    11  H    3.713771   2.646035   2.167606   2.173941   2.777580
    12  H    3.869291   3.547366   3.838352   2.182516   4.346466
    13  C    4.308362   3.530623   2.652713   2.675991   4.210969
    14  C    2.751339   3.062034   3.722944   2.537350   3.989914
    15  H    2.116798   2.784783   3.616216   2.839928   3.663381
    16  H    3.784940   4.136358   4.675917   3.508053   5.072004
    17  C    4.887404   4.277470   3.098640   3.711893   5.064142
    18  H    5.043229   4.230113   3.597924   3.069665   4.817555
    19  H    5.907472   5.322291   4.180388   4.623878   6.115398
    20  H    4.632476   4.153147   2.802658   3.977161   4.965865
                    6          7          8          9         10
     6  H    0.000000
     7  C    2.250089   0.000000
     8  C    2.112722   2.600415   0.000000
     9  H    3.770432   2.194827   3.189568   0.000000
    10  H    3.845292   2.260564   4.208134   1.768375   0.000000
    11  H    2.365095   1.096203   3.434114   3.058579   2.462973
    12  H    2.525325   2.931308   1.087050   3.878580   4.881900
    13  C    3.287519   1.493083   3.028833   2.805384   3.284990
    14  C    3.197655   3.655803   1.328361   3.492417   4.787050
    15  H    3.552061   3.966421   2.118067   3.353546   4.585250
    16  H    4.093343   4.520853   2.101407   4.309417   5.746208
    17  C    4.492485   2.515507   3.824147   2.830955   3.587921
    18  H    3.376714   2.191403   3.291566   3.844140   4.230079
    19  H    5.328291   3.494913   4.549728   3.860675   4.638787
    20  H    4.897380   2.804033   4.149195   2.276448   3.149273
                   11         12         13         14         15
    11  H    0.000000
    12  H    3.684955   0.000000
    13  C    2.114365   2.889219   0.000000
    14  C    4.570424   2.073187   4.079548   0.000000
    15  H    4.848528   3.060402   4.640931   1.083402   0.000000
    16  H    5.467402   2.394324   4.670915   1.082548   1.841315
    17  C    3.204468   3.707309   1.327119   4.592829   5.086485
    18  H    2.498727   2.820066   1.088266   4.470568   5.195852
    19  H    4.093142   4.218074   2.104607   5.290133   5.891670
    20  H    3.555461   4.277708   2.115825   4.696394   4.980561
                   16         17         18         19         20
    16  H    0.000000
    17  C    5.040368   0.000000
    18  H    4.950945   2.079717   0.000000
    19  H    5.565166   1.081900   2.411376   0.000000
    20  H    5.193027   1.083122   3.064678   1.837178   0.000000
 Symmetry turned off by external request.
 Stoichiometry    C8H12
 Framework group  C1[X(C8H12)]
 Deg. of freedom    54
 Full point group                 C1      NOp   1
 Rotational constants (GHZ):           2.7925687           1.6925961           1.3114575
 Standard basis: def2TZVP (5D, 7F)
 The following finite field(s) will be applied:
 An electric field of             -0.0092 -0.0031 -0.0023
   320 basis functions,   504 primitive gaussians,   360 cartesian basis functions
    30 alpha electrons       30 beta electrons
       nuclear repulsion energy       360.1213776366 Hartrees.
 NAtoms=   20 NActive=   20 NUniq=   20 SFac= 1.00D+00 NAtFMM=   60 NAOKFM=F Big=F
 Integral buffers will be    131072 words long.
 Raffenetti 2 integral format.
 Two-electron integral symmetry is turned off.
 One-electron integrals computed using PRISM.
   1 Symmetry operations used in ECPInt.
 ECPInt:  NShTT=    9316 NPrTT=   27240 LenC2=    9174 LenP2D=   21648.
 LDataN:  DoStor=T MaxTD1= 6 Len=  172
 NBasis=   320 RedAO= T EigKep=  3.32D-05  NBF=   320
 NBsUse=   320 1.00D-06 EigRej= -1.00D+00 NBFU=   320
 The nuclear repulsion energy is now       358.2792876097 hartrees.
 Initial guess from the checkpoint file:  "checkpoint.chk"
 B after Tr=    -0.005638   -0.000495   -0.000105
         Rot=    0.999999    0.000267   -0.001084    0.000194 Ang=   0.13 deg.
 Requested convergence on RMS density matrix=1.00D-08 within 128 cycles.
 Requested convergence on MAX density matrix=1.00D-06.
 Requested convergence on             energy=1.00D-06.
 No special actions if energy rises.
 SCF Done:  E(RB3LYP) =  -312.120555596     A.U. after    8 cycles
            NFock=  8  Conv=0.25D-08     -V/T= 2.0056
   1 Symmetry operations used in ECPInt.
 ECPInt:  NShTT=    9316 NPrTT=   27240 LenC2=    9174 LenP2D=   21648.
 LDataN:  DoStor=T MaxTD1= 7 Len=  274
 Calling FoFJK, ICntrl=      2127 FMM=F ISym2X=0 I1Cent= 0 IOpClX= 0 NMat=1 NMatS=1 NMatT=0.
 -------------------------------------------------------------------
 Center     Atomic                   Forces (Hartrees/Bohr)
 Number     Number              X              Y              Z
 -------------------------------------------------------------------
      1        1          -0.000853443   -0.000106600   -0.000019076
      2        6           0.000820546   -0.000294939    0.000008686
      3        6           0.000013294    0.000387381    0.000030262
      4        6          -0.000033304    0.000032847   -0.000013338
      5        1           0.000009238    0.000034253   -0.000029312
      6        1           0.000001751   -0.000020035   -0.000017150
      7        6          -0.000014803    0.000004858   -0.000018062
      8        6           0.000051089   -0.000015887    0.000027584
      9        1          -0.000016869   -0.000012795    0.000000043
     10        1           0.000003824   -0.000012314    0.000009886
     11        1           0.000022949    0.000012600   -0.000006449
     12        1           0.000005248   -0.000008172    0.000000781
     13        6          -0.000019097   -0.000000624    0.000051406
     14        6          -0.000016627   -0.000007334   -0.000007441
     15        1          -0.000016261   -0.000013575   -0.000003115
     16        1          -0.000007794    0.000002232    0.000001204
     17        6          -0.000001379    0.000006082    0.000026612
     18        1           0.000031855    0.000015875    0.000004279
     19        1           0.000038746    0.000004553   -0.000043095
     20        1          -0.000018962   -0.000008405   -0.000003706
 -------------------------------------------------------------------
 Cartesian Forces:  Max     0.000853443 RMS     0.000166948
 -----------------------------------------------------------------------------------------------
                       Internal Coordinate Forces (Hartree/Bohr or radian)
  Cent   Atom   N1       Length/X         N2         Alpha/Y        N3         Beta/Z          J
 -----------------------------------------------------------------------------------------------
      1  H 
      2  C        1   0.000019(     1)
      3  C        2   0.000058(     2)      1  -0.000217(    20)
      4  C        2  -0.000027(     3)      1  -0.000020(    21)      3   0.000032(    38)     0
      5  H        2  -0.000040(     4)      1  -0.000036(    22)      3  -0.000027(    39)     0
      6  H        4  -0.000010(     5)      2  -0.000049(    23)      1   0.000064(    40)     0
      7  C        3   0.000017(     6)      2   0.000349(    24)      1  -0.000238(    41)     0
      8  C        4  -0.000045(     7)      2  -0.000072(    25)      6   0.000077(    42)     0
      9  H        3  -0.000017(     8)      2  -0.000020(    26)      7  -0.000016(    43)     0
     10  H        3   0.000016(     9)      2   0.000001(    27)      7  -0.000009(    44)     0
     11  H        7  -0.000020(    10)      3   0.000006(    28)      2   0.000034(    45)     0
     12  H        8  -0.000006(    11)      4  -0.000010(    29)      2   0.000119(    46)     0
     13  C        7   0.000043(    12)      3  -0.000245(    30)     11  -0.000000(    47)     0
     14  C        8   0.000003(    13)      4  -0.000065(    31)     12   0.000108(    48)     0
     15  H       14   0.000012(    14)      8  -0.000016(    32)      4   0.000014(    49)     0
     16  H       14   0.000001(    15)      8  -0.000005(    33)     15  -0.000014(    50)     0
     17  C       13   0.000022(    16)      7  -0.000169(    34)      3   0.000034(    51)     0
     18  H       13  -0.000002(    17)      7   0.000073(    35)     17   0.000004(    52)     0
     19  H       17   0.000005(    18)     13   0.000103(    36)      7  -0.000045(    53)     0
     20  H       17  -0.000003(    19)     13  -0.000043(    37)     19   0.000004(    54)     0
 -----------------------------------------------------------------------------------------------
 Internal  Forces:  Max     0.000349017 RMS     0.000086205

 GradGradGradGradGradGradGradGradGradGradGradGradGradGradGradGradGradGrad
 Berny optimization.
 Search for a local minimum.
 Step number   3 out of a maximum of   64
 All quantities printed in internal units (Hartrees-Bohrs-Radians)
 Update second derivatives using D2CorN and points    1    2    3
 DE= -2.09D-06 DEPred=-1.53D-06 R= 1.37D+00
 TightC=F SS=  1.41D+00  RLast= 7.96D-03 DXNew= 1.6818D-01 2.3871D-02
 Trust test= 1.37D+00 RLast= 7.96D-03 DXMaxT set to 1.00D-01
 ITU=  1  1  0
     Eigenvalues ---    0.02501   0.03744   0.04474   0.05421   0.06733
     Eigenvalues ---    0.07065   0.08014   0.08857   0.13130   0.15458
     Eigenvalues ---    0.16598   0.17114   0.18552   0.18970   0.20253
     Eigenvalues ---    0.20726   0.21124   0.21795   0.23344   0.24025
     Eigenvalues ---    0.26656   0.27147   0.27944   0.30029   0.32689
     Eigenvalues ---    0.32735   0.33192   0.34127   0.34149   0.34254
     Eigenvalues ---    0.34571   0.34875   0.34885   0.34908   0.35013
     Eigenvalues ---    0.35148   0.35606   0.35621   0.35690   0.35764
     Eigenvalues ---    0.38577   0.43739   0.45625   0.48714   0.50405
     Eigenvalues ---    0.52853   0.55654   0.59945   0.60194   0.70828
     Eigenvalues ---    0.80253   0.98231   1.95972   5.62341
 RFO step:  Lambda=-1.20616161D-06 EMin= 2.50075263D-02
 Quartic linear search produced a step of  0.37101.
 Variable       Old X    -DE/DX   Delta X   Delta X   Delta X     New X
                                 (Linear)    (Quad)   (Total)
    R2        2.05977   0.00002  -0.00004   0.00011   0.00007   2.05984
    R3        2.92522   0.00006  -0.00002   0.00016   0.00014   2.92537
    R4        2.93093  -0.00003  -0.00004   0.00009   0.00005   2.93098
    R5        2.06540  -0.00004   0.00004  -0.00017  -0.00014   2.06527
    R6        2.07219  -0.00001   0.00006  -0.00005   0.00001   2.07219
    R7        2.92014   0.00002   0.00006  -0.00013  -0.00008   2.92006
    R8        2.82839  -0.00004   0.00001  -0.00020  -0.00019   2.82820
    R9        2.05823  -0.00002   0.00003  -0.00010  -0.00006   2.05817
   R10        2.05829   0.00002  -0.00001   0.00007   0.00006   2.05835
   R11        2.07152  -0.00002  -0.00002  -0.00006  -0.00008   2.07144
   R12        2.05423  -0.00001   0.00001  -0.00003  -0.00002   2.05421
   R13        2.82152   0.00004  -0.00008   0.00024   0.00017   2.82168
   R14        2.51024   0.00000   0.00002   0.00000   0.00002   2.51026
   R15        2.04733   0.00001   0.00001   0.00005   0.00005   2.04739
   R16        2.04572   0.00000  -0.00000   0.00000  -0.00000   2.04572
   R17        2.50789   0.00002  -0.00006   0.00009   0.00002   2.50791
   R18        2.05653  -0.00000  -0.00003   0.00002  -0.00001   2.05652
   R19        2.04449   0.00001   0.00003   0.00001   0.00004   2.04453
   R20        2.04680  -0.00000   0.00001  -0.00002  -0.00001   2.04679
    A3        2.03430  -0.00022  -0.00058  -0.00004  -0.00062   2.03368
    A4        2.05354  -0.00002  -0.00011  -0.00017  -0.00028   2.05326
    A5        1.89404  -0.00004   0.00014   0.00002   0.00016   1.89421
    A6        2.00670  -0.00005  -0.00015   0.00002  -0.00013   2.00657
    A7        1.55687   0.00035   0.00003   0.00036   0.00040   1.55726
    A8        2.05310  -0.00007   0.00021  -0.00038  -0.00017   2.05293
    A9        1.94180  -0.00002   0.00003  -0.00022  -0.00019   1.94161
   A10        2.05912   0.00000   0.00001   0.00003   0.00005   2.05917
   A11        1.90429   0.00001   0.00018  -0.00030  -0.00012   1.90417
   A12        1.99574  -0.00001  -0.00001  -0.00001  -0.00002   1.99571
   A13        2.12279  -0.00024  -0.00018   0.00000  -0.00018   2.12260
   A14        2.22935  -0.00006   0.00007  -0.00018  -0.00011   2.22924
   A15        2.13860  -0.00002  -0.00006  -0.00002  -0.00008   2.13852
   A16        2.11112  -0.00000  -0.00004  -0.00004  -0.00008   2.11103
   A17        2.20156  -0.00017  -0.00011  -0.00002  -0.00012   2.20144
   A18        2.01230   0.00007   0.00003   0.00020   0.00023   2.01253
   A19        2.11943   0.00010  -0.00000   0.00017   0.00017   2.11960
   A20        2.13706  -0.00004   0.00027  -0.00018   0.00009   2.13716
    D4        1.82532   0.00003  -0.00047  -0.00002  -0.00049   1.82483
    D5       -2.23049  -0.00003   0.00005  -0.00031  -0.00026  -2.23075
    D6        1.89844   0.00006   0.00098   0.00134   0.00232   1.90075
    D7        2.42192  -0.00024  -0.00035  -0.00157  -0.00192   2.42000
    D8       -2.25386   0.00008  -0.00016   0.00016  -0.00001  -2.25387
    D9       -1.97238  -0.00002  -0.00019   0.00018  -0.00001  -1.97239
   D10        2.10518  -0.00001  -0.00010   0.00036   0.00026   2.10544
   D11        1.56734   0.00003   0.00009   0.00143   0.00153   1.56887
   D12       -2.86295   0.00012   0.00151   0.00186   0.00338  -2.85957
   D13        2.22442  -0.00000   0.00014  -0.00060  -0.00046   2.22396
   D14       -3.16105   0.00011  -0.00078   0.00061  -0.00017  -3.16122
   D15       -0.02092   0.00001  -0.00051  -0.00025  -0.00077  -0.02169
   D16        3.19249  -0.00001   0.00168  -0.00003   0.00165   3.19413
   D17       -0.11342   0.00003  -0.00037   0.00041   0.00004  -0.11338
   D18       -3.10481   0.00000   0.00056   0.00028   0.00084  -3.10397
   D19       -3.10709  -0.00005   0.00039   0.00037   0.00076  -3.10634
   D20        3.12364   0.00000  -0.00033  -0.00002  -0.00035   3.12329
         Item               Value     Threshold  Converged?
 Maximum Force            0.000349     0.000450     YES
 RMS     Force            0.000086     0.000300     YES
 Maximum Displacement     0.003377     0.001800     NO 
 RMS     Displacement     0.000734     0.001200     YES
 Predicted change in Energy=-6.303549D-07
 GradGradGradGradGradGradGradGradGradGradGradGradGradGradGradGradGradGrad

 ---------------------------------------------------------------------------------------------------
                            Z-MATRIX (ANGSTROMS AND DEGREES)
   CD    Cent   Atom    N1       Length/X        N2       Alpha/Y        N3        Beta/Z          J
 ---------------------------------------------------------------------------------------------------
      1      1  H 
      2      2  C        1   1.090022(     1)
      3      3  C        2   1.548038(     2)      1  116.522(    20)
      4      4  C        2   1.551006(     3)      1  117.643(    21)      3  104.555(    38)      0
      5      5  H        2   1.092891(     4)      1  108.530(    22)      3 -127.813(    39)      0
      6      6  H        4   1.096558(     5)      2  114.968(    23)      1  108.905(    40)      0
      7      7  C        3   1.545230(     6)      2   89.225(    24)      1  138.656(    41)      0
      8      8  C        4   1.496617(     7)      2  117.624(    25)      6 -129.137(    42)      0
      9      9  H        3   1.089138(     8)      2  111.246(    26)      7 -113.010(    43)      0
     10     10  H        3   1.089233(     9)      2  117.982(    27)      7  120.633(    44)      0
     11     11  H        7   1.096161(    10)      3  109.101(    28)      2   89.889(    45)      0
     12     12  H        8   1.087039(    11)      4  114.346(    29)      2 -163.841(    46)      0
     13     13  C        7   1.493171(    12)      3  121.616(    30)     11  127.424(    47)      0
     14     14  C        8   1.328372(    13)      4  127.726(    31)     12 -181.124(    48)      0
     15     15  H       14   1.083430(    14)      8  122.528(    32)      4   -1.243(    49)      0
     16     16  H       14   1.082547(    15)      8  120.953(    33)     15  183.010(    50)      0
     17     17  C       13   1.327131(    16)      7  126.133(    34)      3   -6.496(    51)      0
     18     18  H       13   1.088261(    17)      7  115.310(    35)     17 -177.844(    52)      0
     19     19  H       17   1.081920(    18)     13  121.444(    36)      7 -177.980(    53)      0
     20     20  H       17   1.083115(    19)     13  122.450(    37)     19  178.951(    54)      0
 ---------------------------------------------------------------------------------------------------
                         Z-Matrix orientation:                         
 ---------------------------------------------------------------------
 Center     Atomic      Atomic             Coordinates (Angstroms)
 Number     Number       Type             X           Y           Z
 ---------------------------------------------------------------------
      1          1           0        0.000000    0.000000    0.000000
      2          6           0        0.000000    0.000000    1.090022
      3          6           0        1.385132    0.000000    1.781273
      4          6           0       -0.345291    1.329871    1.809631
      5          1           0       -0.635293   -0.818646    1.437344
      6          1           0       -1.321055    1.345762    2.309703
      7          6           0        0.848448    1.020655    2.809850
      8          6           0       -0.200998    2.598852    1.029421
      9          1           0        2.146897    0.439353    1.138697
     10          1           0        1.762580   -0.945138    2.169442
     11          1           0        0.416554    0.479922    3.659935
     12          1           0       -0.183378    3.499469    1.637888
     13          6           0        1.704153    2.125391    3.336049
     14          6           0       -0.074982    2.734382   -0.285997
     15          1           0       -0.044318    1.885734   -0.958811
     16          1           0        0.051326    3.711037   -0.735551
     17          6           0        2.999663    2.291640    3.100905
     18          1           0        1.201898    2.827752    3.998425
     19          1           0        3.554779    3.105066    3.548939
     20          1           0        3.566486    1.619407    2.468486
 ---------------------------------------------------------------------
                    Distance matrix (angstroms):
                    1          2          3          4          5
     1  H    0.000000
     2  C    1.090022   0.000000
     3  C    2.256441   1.548038   0.000000
     4  C    2.272124   1.551006   2.182596   0.000000
     5  H    1.771930   1.092891   2.206941   2.199733   0.000000
     6  H    2.981776   2.245859   3.068185   1.096558   2.432270
     7  C    3.107549   2.172420   1.545230   1.587787   2.732817
     8  C    2.802524   2.607317   3.136100   1.496617   3.469050
     9  H    2.469581   2.191933   1.089138   2.730234   3.067953
    10  H    2.950670   2.272690   1.089233   3.122219   2.510331
    11  H    3.714696   2.647319   2.167450   2.174039   2.780750
    12  H    3.868150   3.546839   3.837586   2.182399   4.346327
    13  C    4.307046   3.530731   2.652619   2.676383   4.212534
    14  C    2.750320   3.062008   3.725907   2.537199   3.988466
    15  H    2.115958   2.784901   3.620412   2.839691   3.661214
    16  H    3.783578   4.136079   4.678166   3.507878   5.070596
    17  C    4.885203   4.277060   3.098346   3.712291   5.064999
    18  H    5.042633   4.230786   3.597988   3.070547   4.819816
    19  H    5.905324   5.322045   4.180125   4.624614   6.116457
    20  H    4.629873   4.152404   2.802328   3.977426   4.966115
                    6          7          8          9         10
     6  H    0.000000
     7  C    2.250019   0.000000
     8  C    2.112791   2.600380   0.000000
     9  H    3.770878   2.194683   3.191863   0.000000
    10  H    3.844047   2.260553   4.208937   1.768319   0.000000
    11  H    2.364760   1.096161   3.433779   3.058165   2.462550
    12  H    2.526677   2.929621   1.087039   3.878618   4.880966
    13  C    3.288326   1.493171   3.028911   2.804835   3.285200
    14  C    3.196658   3.657028   1.328372   3.497664   4.790061
    15  H    3.550326   3.968401   2.118054   3.360503   4.589628
    16  H    4.092863   4.521441   2.101368   4.313715   5.748682
    17  C    4.493249   2.515520   3.824873   2.829918   3.588137
    18  H    3.378367   2.191629   3.291732   3.843893   4.230159
    19  H    5.329598   3.495032   4.550834   3.859717   4.638873
    20  H    4.897769   2.804061   4.150199   2.275103   3.149666
                   11         12         13         14         15
    11  H    0.000000
    12  H    3.683240   0.000000
    13  C    2.114328   2.886973   0.000000
    14  C    4.571059   2.073269   4.081104   0.000000
    15  H    4.849900   3.060445   4.643319   1.083430   0.000000
    16  H    5.467522   2.394381   4.671620   1.082547   1.841392
    17  C    3.204261   3.705539   1.327131   4.595712   5.090371
    18  H    2.498729   2.818214   1.088261   4.471623   5.197561
    19  H    4.092940   4.216810   2.104733   5.293327   5.895768
    20  H    3.555284   4.276213   2.115885   4.700067   4.985499
                   16         17         18         19         20
    16  H    0.000000
    17  C    5.042398   0.000000
    18  H    4.951216   2.079643   0.000000
    19  H    5.567606   1.081920   2.411429   0.000000
    20  H    5.195875   1.083115   3.064651   1.837035   0.000000
 Symmetry turned off by external request.
 Stoichiometry    C8H12
 Framework group  C1[X(C8H12)]
 Deg. of freedom    54
 Full point group                 C1      NOp   1
 Rotational constants (GHZ):           2.7935024           1.6917535           1.3107706
 Standard basis: def2TZVP (5D, 7F)
 The following finite field(s) will be applied:
 An electric field of             -0.0092 -0.0031 -0.0023
   320 basis functions,   504 primitive gaussians,   360 cartesian basis functions
    30 alpha electrons       30 beta electrons
       nuclear repulsion energy       360.1001698468 Hartrees.
 NAtoms=   20 NActive=   20 NUniq=   20 SFac= 1.00D+00 NAtFMM=   60 NAOKFM=F Big=F
 Integral buffers will be    131072 words long.
 Raffenetti 2 integral format.
 Two-electron integral symmetry is turned off.
 One-electron integrals computed using PRISM.
   1 Symmetry operations used in ECPInt.
 ECPInt:  NShTT=    9316 NPrTT=   27240 LenC2=    9174 LenP2D=   21647.
 LDataN:  DoStor=T MaxTD1= 6 Len=  172
 NBasis=   320 RedAO= T EigKep=  3.31D-05  NBF=   320
 NBsUse=   320 1.00D-06 EigRej= -1.00D+00 NBFU=   320
 The nuclear repulsion energy is now       358.2582295080 hartrees.
 Initial guess from the checkpoint file:  "checkpoint.chk"
 B after Tr=    -0.007153   -0.002958    0.001833
         Rot=    0.999999    0.000566   -0.001193   -0.000077 Ang=   0.15 deg.
 Requested convergence on RMS density matrix=1.00D-08 within 128 cycles.
 Requested convergence on MAX density matrix=1.00D-06.
 Requested convergence on             energy=1.00D-06.
 No special actions if energy rises.
 SCF Done:  E(RB3LYP) =  -312.120556663     A.U. after    7 cycles
            NFock=  7  Conv=0.89D-08     -V/T= 2.0056
   1 Symmetry operations used in ECPInt.
 ECPInt:  NShTT=    9316 NPrTT=   27240 LenC2=    9174 LenP2D=   21647.
 LDataN:  DoStor=T MaxTD1= 7 Len=  274
 Calling FoFJK, ICntrl=      2127 FMM=F ISym2X=0 I1Cent= 0 IOpClX= 0 NMat=1 NMatS=1 NMatT=0.
 -------------------------------------------------------------------
 Center     Atomic                   Forces (Hartrees/Bohr)
 Number     Number              X              Y              Z
 -------------------------------------------------------------------
      1        1          -0.000878599   -0.000118200    0.000018823
      2        6           0.000857414   -0.000291460    0.000041174
      3        6           0.000028571    0.000406663   -0.000025716
      4        6           0.000039558    0.000036264    0.000004119
      5        1          -0.000001967   -0.000007101   -0.000022224
      6        1           0.000006191   -0.000012371   -0.000024602
      7        6          -0.000073180   -0.000037445   -0.000010620
      8        6           0.000049095    0.000021923    0.000015826
      9        1           0.000007836   -0.000019910   -0.000019308
     10        1          -0.000013349    0.000005741    0.000008314
     11        1           0.000008883    0.000022653    0.000020977
     12        1          -0.000016748    0.000008426   -0.000013001
     13        6          -0.000011667   -0.000032379    0.000052925
     14        6           0.000079982   -0.000008003    0.000005730
     15        1          -0.000049353    0.000005526   -0.000001246
     16        1          -0.000048614    0.000005143   -0.000011242
     17        6           0.000022824    0.000008464    0.000031715
     18        1           0.000012903    0.000012979   -0.000012542
     19        1           0.000009093    0.000010739   -0.000045334
     20        1          -0.000028872   -0.000017652   -0.000013766
 -------------------------------------------------------------------
 Cartesian Forces:  Max     0.000878599 RMS     0.000173828
 -----------------------------------------------------------------------------------------------
                       Internal Coordinate Forces (Hartree/Bohr or radian)
  Cent   Atom   N1       Length/X         N2         Alpha/Y        N3         Beta/Z          J
 -----------------------------------------------------------------------------------------------
      1  H 
      2  C        1  -0.000019(     1)
      3  C        2  -0.000039(     2)      1  -0.000085(    20)
      4  C        2   0.000024(     3)      1  -0.000084(    21)      3  -0.000145(    38)     0
      5  H        2  -0.000001(     4)      1  -0.000048(    22)      3   0.000005(    39)     0
      6  H        4  -0.000017(     5)      2  -0.000037(    23)      1   0.000081(    40)     0
[...]
 07755367,-0.01017470,0.00696656,0.00011485,0.00016748,-0.00050356,-0.0
 0139983,-0.02532805,0.01738181,0.00798617,0.01760533,-0.00954291,0.160
 87354,-0.00093891,0.00225772,0.00227183,-0.00364266,-0.02672787,0.0100
 3154,-0.00041681,-0.00014289,-0.00028386,-0.01515955,-0.17723936,0.045
 50167,0.00208755,-0.00275662,-0.00047639,-0.00009580,-0.00042602,0.004
 22353,0.01051083,-0.00232139,0.00710270,0.02682479,0.55755397,-0.00058
 372,0.00109060,-0.00119139,-0.00430137,-0.01326785,0.01665462,-0.00002
 904,-0.00189221,-0.00076052,0.01248388,0.04685453,-0.11278099,0.001270
 01,-0.00473740,-0.00221023,0.00284773,0.01712453,-0.01344601,-0.002233
 04,0.02123086,-0.02091601,-0.04381538,0.01766164,0.83975038,0.00227385
 ,-0.00062769,0.00014153,-0.01923461,-0.01157711,0.01417351,-0.17457023
 ,-0.07253203,0.11158769,0.00000266,0.00001834,-0.00060391,-0.00401224,
 0.00139949,-0.00140970,0.00015128,0.00033578,-0.00016310,-0.00368691,-
 0.00094884,0.00482267,-0.00011799,0.00000032,0.00068763,0.19083995,0.0
 0045809,0.00094176,0.00007805,-0.00317385,-0.00238257,0.00152698,-0.07
 262429,-0.09299635,0.06714136,-0.00067845,-0.00051185,0.00016727,-0.00
 074490,0.00051837,-0.00085197,-0.00025706,-0.00000858,0.00015450,0.015
 21515,0.01028979,-0.01252972,0.00032867,-0.00007455,0.00004262,0.08058
 140,0.09638846,0.00121611,-0.00047015,0.00147707,-0.01466703,-0.008755
 51,0.01102369,0.11220365,0.06689451,-0.14131579,-0.00012873,-0.0002436
 4,-0.00059168,-0.00437550,-0.00005204,-0.00079108,0.00015715,-0.000010
 56,0.00008849,0.01650088,0.01024018,-0.01688865,0.00018778,0.00025395,
 0.00015829,-0.11963208,-0.06981488,0.15335049,-0.00177045,0.00062675,-
 0.00060060,-0.00525538,0.02105791,-0.00747001,-0.07515832,0.07360470,-
 0.03392509,-0.00467133,0.00258625,0.00024631,0.00219171,-0.00053986,0.
 00047111,-0.00081347,0.00112272,0.00022695,-0.00459979,0.00508892,-0.0
 0124563,-0.00038279,-0.00017162,0.00074585,0.00891027,-0.01979001,0.00
 792477,0.08055529,-0.00039573,0.00000561,-0.00062913,-0.00141733,0.005
 93740,-0.00306025,0.07410487,-0.25096018,0.08535720,0.00175202,-0.0007
 2566,-0.00179150,0.00109819,0.00091542,0.00015562,0.00064013,-0.000203
 07,0.00058409,0.00274999,-0.01224488,0.00946229,0.00004155,0.00068685,
 -0.00010141,0.00416776,-0.01065134,0.00467532,-0.08344470,0.26656566,-
 0.00178891,0.00036986,-0.00077844,0.00062139,0.01138361,-0.00587876,-0
 .03400900,0.08601810,-0.08680367,0.00095292,-0.00204694,-0.00043936,0.
 00098338,-0.00057046,0.00141958,0.00066062,0.00021584,0.00056107,0.004
 65442,-0.01876375,0.01106256,0.00040310,0.00029996,-0.00008852,-0.0068
 3411,0.01674752,-0.00646849,0.03418026,-0.09376952,0.08641777,0.000022
 38,0.00006682,0.00023014,-0.00068612,0.00014391,-0.00000068,-0.0077560
 0,-0.00660183,0.01365286,0.00396739,0.01444264,-0.02233080,0.00035178,
 -0.00025067,-0.00017087,0.00224033,0.00065777,0.00063913,-0.07702900,-
 0.04839910,0.07894845,-0.00303844,-0.00161968,-0.00341403,-0.00063333,
 0.00217882,0.00223482,0.00068825,-0.00038750,-0.00085548,0.09281850,0.
 00005493,-0.00000808,0.00024946,0.00042366,-0.00024872,0.00054382,0.01
 037790,0.00955331,-0.01905092,-0.00200325,-0.00657237,0.01074137,-0.00
 023419,0.00012059,-0.00014096,-0.00052610,0.00086118,-0.00095895,-0.04
 945653,-0.10519856,0.09361543,0.00232860,0.00073294,0.00124526,0.00065
 364,-0.00229675,-0.00392009,0.00002957,0.00166285,0.00093491,0.0534800
 4,0.11597620,-0.00025172,-0.00022569,0.00007875,0.00001789,0.00037791,
 0.00105299,0.00889401,0.00738839,-0.01462635,0.00391160,0.00951496,-0.
 01429579,-0.00048549,-0.00055435,-0.00042993,-0.00009852,0.00050466,0.
 00185754,0.07637553,0.09129314,-0.19740119,-0.00246848,-0.00179454,-0.
 00171955,-0.00051140,-0.00255115,-0.00207620,0.00016819,-0.00004731,0.
 00152561,-0.08052363,-0.09935713,0.21626628,0.00008848,0.00000090,-0.0
 0004024,0.00099354,0.00079676,0.00079201,0.00029080,-0.00030220,0.0000
 7331,0.00238046,-0.00307387,-0.00249766,-0.00008882,0.00019240,0.00010
 618,0.00024587,0.00087860,-0.00040269,0.00091457,-0.00056751,0.0006848
 6,-0.04207967,-0.01016007,-0.00463832,0.00002203,0.00005203,-0.0000072
 9,0.00012436,0.00003501,0.00005288,-0.00009264,-0.00011287,-0.00001117
 ,0.02684844,-0.00010539,0.00033790,-0.00018842,-0.00271037,-0.00169584
 ,0.00390909,-0.00033411,0.00025805,-0.00021614,0.00112264,-0.02243247,
 -0.01460650,0.00064018,-0.00138603,-0.00049081,-0.00072292,0.00057311,
 0.00043372,-0.00039648,0.00080764,-0.00070907,-0.00701652,-0.24135980,
 -0.12530399,0.00007995,-0.00002456,0.00003573,0.00010347,0.00006494,0.
 00011309,0.00002705,0.00004031,0.00007033,0.00991661,0.25702475,0.0000
 7848,0.00000166,0.00013856,0.00081001,0.00243804,-0.00200334,0.0001645
 4,-0.00011833,0.00014044,-0.00044618,0.01479035,0.01057623,-0.00024389
 ,0.00083269,0.00030798,0.00020939,-0.00096314,0.00053543,-0.00026406,-
 0.00070302,0.00085717,-0.00308723,-0.12081725,-0.13689768,-0.00007022,
 -0.00000058,-0.00006449,-0.00002703,-0.00005147,-0.00005950,0.00015202
 ,-0.00006774,0.00006489,0.00341405,0.13236114,0.14990111,0.00114283,-0
 .00042267,0.00060497,-0.00098012,0.00063285,0.00012164,0.01229833,0.00
 970446,-0.00178170,-0.01726026,-0.01655913,-0.00765248,0.00016700,-0.0
 0011481,0.00001866,-0.00142525,-0.00008501,-0.00101903,-0.12566241,-0.
 05108320,-0.01540667,0.00106592,-0.00102022,0.00049252,-0.00022526,-0.
 00079931,-0.00026856,-0.00023991,0.00162213,0.00202343,-0.01241086,-0.
 01458142,-0.00457482,0.00019247,-0.00002101,-0.00023632,0.80265850,-0.
 00068487,0.00098050,0.00078436,0.00077111,-0.00083870,-0.00031581,-0.0
 1010934,-0.01424743,-0.00594516,-0.00121363,0.01037772,-0.00573021,-0.
 00012000,0.00019034,0.00005296,0.00227406,0.00005031,0.00162668,-0.046
 73780,-0.16070379,-0.03643085,0.00032172,0.00170940,0.00013844,-0.0009
 5497,0.00127299,0.00158197,-0.00041364,-0.00043425,-0.00058587,-0.0134
 5712,-0.01278451,-0.00589871,0.00037707,-0.00021628,0.00020094,0.05628
 443,0.42810995,-0.00093013,-0.00072462,-0.00041958,-0.00067673,-0.0020
 2034,-0.00431081,-0.01058439,-0.01381349,-0.00709233,-0.00825254,-0.01
 038872,-0.00495465,-0.00035873,-0.00043939,-0.00029125,-0.00040772,-0.
 00030834,-0.00019173,-0.01650910,-0.04142232,-0.09212332,-0.00047472,0
 .00103816,0.00078958,-0.00036282,0.00026124,0.00192957,-0.00026614,-0.
 00063025,-0.00062163,0.01511557,0.01889381,0.01018340,-0.00011359,-0.0
 0031428,-0.00027103,-0.14960127,0.18258733,0.32298366,-0.00021115,0.00
 009420,0.00000603,0.00029116,-0.00003572,-0.00008006,-0.00048107,-0.00
 043693,0.00037172,0.00820489,-0.00250351,0.00589923,0.00005754,0.00003
 449,-0.00012738,0.00004007,0.00045109,-0.00049159,-0.00223000,-0.00013
 090,-0.00101615,-0.05304943,-0.00595884,0.03854306,0.00024080,0.000116
 27,-0.00019538,0.00018131,-0.00001603,-0.00016741,0.00041952,-0.000093
 39,0.00007248,0.00670868,-0.00050048,-0.00046205,-0.00043767,0.0002569
 3,-0.00026492,0.11180032,-0.00011424,-0.00127510,0.00069556,-0.0005703
 5,0.00173500,0.00041232,0.00031621,0.00037130,0.00052377,-0.00113252,0
 .00034093,0.02981458,0.00013186,0.00001272,0.00025493,-0.00111828,-0.0
 0283554,0.00241681,-0.00246926,-0.00291399,0.00194175,-0.00629037,-0.1
 1662265,0.04125096,0.00008428,-0.00020776,0.00003684,0.00004655,-0.000
 06716,-0.00009033,0.00124315,-0.00045298,0.00074617,0.00163411,0.00462
 147,-0.02903503,-0.00026373,-0.00069844,-0.00083883,0.03801743,0.63444
 880,-0.00016679,-0.00015002,0.00007065,-0.00025644,-0.00004529,-0.0006
 9367,0.00023137,0.00032011,-0.00013613,0.00219150,0.01160485,-0.019757
 32,0.00010005,-0.00025088,-0.00015023,-0.00053988,0.00055946,0.0012362
 5,0.00317187,-0.00069797,0.00228736,0.03387021,0.03253013,-0.53783322,
 -0.00040935,0.00017344,0.00016921,-0.00033492,0.00009920,0.00023789,-0
 .00054351,0.00013956,-0.00015163,0.00185292,0.00300748,-0.01875473,0.0
 0051108,0.00031374,0.00008926,-0.06048685,-0.01979806,0.83091179,0.000
 52999,0.00000493,-0.00004300,-0.00042092,-0.00035501,-0.00037046,0.000
 01509,0.00001216,-0.00026326,-0.00743304,0.00103518,-0.00045988,-0.000
 02913,-0.00006007,0.00006097,-0.00016774,-0.00090478,0.00107751,0.0005
 0228,0.00082734,-0.00057018,0.00564453,0.00210332,0.00122248,-0.000195
 17,0.00005777,-0.00003083,-0.00006436,-0.00003989,0.00001709,-0.000290
 32,0.00015764,-0.00013890,0.01158651,-0.00111889,0.00092048,0.00034747
 ,-0.00008737,0.00006131,-0.03486512,0.00180056,0.00502704,0.02299243,0
 .00015341,-0.00180266,0.00141728,0.00016834,-0.00074954,0.00129309,-0.
 00008115,0.00009092,-0.00004562,0.00032190,-0.00090439,0.00066677,-0.0
 0014807,0.00026266,-0.00005441,0.00008713,0.00011211,-0.00027200,0.000
 07412,0.00000134,-0.00013310,0.00000499,0.00556589,-0.00044374,0.00000
 926,0.00003078,-0.00004578,-0.00005599,-0.00001516,-0.00004723,-0.0000
 2005,0.00002277,-0.00006053,-0.00040627,0.00122391,0.00096391,-0.00004
 098,0.00013085,-0.00000020,0.00021003,-0.22927370,-0.13310733,-0.00092
 435,0.24125630,-0.00008032,0.00138162,0.00062938,0.00002490,0.00003943
 ,-0.00063484,-0.00019932,-0.00004419,0.00006975,-0.00090322,-0.0016267
 8,0.00151960,-0.00004364,-0.00000314,0.00053072,-0.00009223,-0.0000078
 6,0.00013865,0.00028197,-0.00001859,0.00002845,0.00026767,-0.02826329,
 -0.01679083,-0.00009596,0.00002710,-0.00006735,0.00004154,0.00001301,0
 .00012130,-0.00005383,0.00006250,-0.00002258,0.00167774,0.00126326,-0.
 00498137,-0.00006804,-0.00003650,-0.00007803,0.00387708,-0.12915690,-0
 .15670126,-0.00443585,0.14637422,0.16701511,-0.00009478,-0.00000922,-0
 .00016943,0.00018649,0.00031498,0.00019365,0.00017811,0.00014497,0.000
 17173,0.01310114,-0.00054848,0.00116437,-0.00000783,-0.00006092,-0.000
 01539,0.00007094,0.00197495,-0.00162384,-0.00113227,-0.00172438,0.0011
 5453,0.00300679,-0.00218232,0.00034125,0.00002788,-0.00005867,-0.00002
 632,-0.00001276,-0.00001374,-0.00005368,0.00049052,-0.00039102,0.00036
 654,-0.00780141,0.00082007,-0.00049527,-0.00039828,-0.00008399,-0.0001
 1980,-0.03710138,-0.03160896,0.01618611,0.00197743,0.00061715,-0.00023
 365,0.02748572,-0.00001922,0.00035431,0.00032604,-0.00006732,0.0000449
 3,-0.00025450,-0.00016562,-0.00001508,0.00007225,-0.00105960,0.0012257
 2,-0.00078569,-0.00001917,-0.00002978,0.00021116,-0.00001116,-0.000203
 82,0.00032575,0.00003385,0.00006169,0.00004411,-0.00023823,0.00054326,
 -0.00122210,-0.00002198,0.00000303,-0.00002657,0.00002777,-0.00000424,
 0.00005853,0.00004268,0.00002464,-0.00002061,0.00087433,0.00129287,0.0
 0019894,0.00004319,0.00001195,0.00001246,-0.02971159,-0.28796679,0.105
 53666,-0.00245153,-0.01593914,0.00981721,0.03272598,0.30055412,-0.0000
 5408,0.00029198,0.00052504,0.00015234,-0.00075799,-0.00025474,-0.00002
 069,-0.00006618,0.00005087,0.00080825,-0.00223823,-0.00318751,-0.00001
 891,0.00008009,0.00024360,0.00023657,0.00073696,-0.00062061,0.00059807
 ,0.00044200,-0.00042767,0.00375606,0.03164644,-0.01250395,-0.00004038,
 0.00000351,-0.00000837,-0.00001010,0.00004075,0.00004930,-0.00030555,0
 .00008487,-0.00015174,-0.00074779,0.00016741,0.00111457,-0.00000173,0.
 00014638,0.00012761,0.01464903,0.10037206,-0.10095376,-0.00212607,-0.0
 1653043,0.00906352,-0.01679488,-0.11432106,0.10698299,0.00011297,-0.00
 019644,-0.00017207,-0.00025128,0.00002885,0.00059430,0.00011946,0.0012
 6384,-0.00043979,0.00228557,-0.00066324,0.00243334,-0.00023873,0.00008
 243,-0.00003420,-0.00024028,0.00009316,-0.00025873,-0.02306249,-0.0111
 9207,-0.00090306,-0.00010536,-0.00045387,0.00024206,0.00028049,-0.0004
 4484,0.00038862,0.00025126,-0.00001858,-0.00029257,0.00078713,0.000110
 21,-0.00090776,-0.00022640,0.00027089,-0.00003734,-0.52606322,-0.05397
 378,0.09382652,0.00030443,0.00030241,-0.00020956,-0.00008369,-0.000006
 72,0.00006747,0.00002176,0.00001075,-0.00005945,0.81631998,0.00012831,
 -0.00027407,-0.00025297,-0.00041602,0.00021716,-0.00017433,-0.00059294
 ,0.00121766,0.00131319,-0.00047876,-0.00261874,0.00129740,0.00002791,0
 .00005417,-0.00005157,-0.00068530,0.00002246,-0.00054754,-0.02925658,-
 0.00025469,0.00183112,0.00023863,-0.00101692,0.00030477,-0.00009133,-0
 .00023166,-0.00039477,0.00008167,-0.00009451,0.00005864,-0.00230947,-0
 .00281793,-0.00048067,-0.00020998,0.00051452,-0.00005537,-0.05732013,-
 0.09828153,-0.01890398,0.00024467,0.00061511,-0.00031163,-0.00008072,-
 0.00001203,0.00009223,0.00002525,0.00003194,-0.00010739,0.09312660,0.4
 7588210,0.00010364,-0.00002278,-0.00005944,-0.00019654,0.00010506,-0.0
 0006219,-0.00011704,0.00091800,0.00037052,-0.00286654,-0.00112339,-0.0
 0149916,0.00002565,0.00000281,0.00002573,-0.00040919,-0.00003539,-0.00
 022683,-0.00992150,-0.00017014,0.00905142,-0.00027220,-0.00044838,-0.0
 0003758,-0.00059164,-0.00022149,-0.00031866,-0.00016252,-0.00020782,0.
 00028766,-0.00171043,-0.00178565,-0.00016288,0.00009135,-0.00002440,-0
 .00022110,0.08938533,-0.02091298,-0.09040144,-0.00017145,0.00006805,0.
 00013060,0.00012561,-0.00001736,0.00001150,-0.00005828,0.00002118,-0.0
 0001398,-0.12507208,0.23364635,0.31658978,-0.00021747,0.00010230,-0.00
 006806,0.00030556,-0.00016601,-0.00003204,-0.00184489,-0.00248022,-0.0
 0012441,0.00030193,0.00102367,0.00019619,-0.00002127,0.00002458,0.0000
 0556,-0.00006678,-0.00003322,0.00005781,0.00996618,-0.01303197,-0.0115
 4943,-0.00011284,0.00036594,0.00004999,-0.00000831,0.00015138,0.000001
 74,-0.00001111,-0.00038928,-0.00039613,0.00066772,0.00057857,0.0005521
 6,-0.00005326,-0.00001852,-0.00041704,-0.10672640,0.07202068,0.0732786
 2,0.00003603,-0.00005092,-0.00008847,-0.00002591,0.00003097,-0.0000003
 8,0.00001469,0.00001087,0.00000872,-0.01514533,0.02261052,0.02267502,0
 .11636752,-0.00040187,-0.00004432,-0.00025989,-0.00000677,-0.00029259,
 -0.00094706,-0.00360835,-0.00045789,0.00068469,-0.00043721,-0.00007646
 ,-0.00076091,-0.00011685,-0.00004000,0.00000418,-0.00035599,0.00002928
 ,-0.00011168,0.01188295,-0.01422185,-0.01452313,-0.00025107,-0.0003598
 5,0.00005080,0.00012636,0.00023231,0.00005278,0.00004193,-0.00032046,-
 0.00025022,0.00025065,0.00064667,0.00074574,0.00004747,0.00037365,0.00
 004076,0.07597946,-0.16310710,-0.11184752,0.00003983,0.00020276,-0.000
 02182,0.00000581,-0.00000145,0.00008569,0.00002677,0.00002523,-0.00000
 723,-0.00266181,0.00602609,0.00050939,-0.07924094,0.16863117,-0.000082
 16,-0.00000479,-0.00008340,0.00013170,0.00008780,0.00007805,-0.0008797
 4,-0.00134007,0.00186851,0.00022460,0.00039435,0.00043629,-0.00006973,
 0.00006888,0.00002394,-0.00022545,-0.00002361,-0.00015006,0.00545854,-
 0.00698956,-0.00512682,-0.00001605,-0.00054293,-0.00009498,0.00007707,
 0.00024920,0.00032234,-0.00010581,-0.00039870,-0.00060004,-0.00070176,
 -0.00062095,0.00051482,-0.00022541,0.00044690,-0.00037234,0.07694705,-
 0.11192176,-0.14332516,0.00000488,0.00036278,0.00002477,-0.00006689,0.
 00002779,0.00012188,0.00005544,-0.00001105,-0.00001777,0.00355851,-0.0
 0651624,0.00039548,-0.08501328,0.12698148,0.14273577,-0.00001131,-0.00
 002799,-0.00005191,0.00014303,0.00010239,-0.00020015,0.00009212,0.0001
 3328,0.00045484,0.00004867,-0.00014580,0.00027389,0.00008186,0.0000162
 8,0.00004110,-0.00005145,0.00001923,-0.00006645,-0.00263257,-0.0001885
 5,0.00402074,-0.00000291,-0.00010290,-0.00000227,0.00012396,0.00001934
 ,-0.00037360,-0.00001639,-0.00008080,-0.00004226,-0.00085960,-0.000936
 55,-0.00031101,-0.00005702,0.00002580,-0.00002426,-0.01380559,-0.02498
 319,-0.01308789,0.00002249,0.00008111,-0.00006347,0.00000211,0.0000061
 9,0.00000489,-0.00000677,0.00000545,-0.00002639,-0.12782606,-0.1098987
 0,-0.05516593,0.00078563,0.00108405,-0.00161084,0.13394819,0.00002945,
 -0.00009158,-0.00002459,-0.00019638,0.00011942,-0.00008783,0.00032607,
 0.00031558,-0.00021613,-0.00093325,-0.00106536,-0.00007977,-0.00006445
 ,-0.00001517,0.00001039,-0.00020069,-0.00002883,-0.00014879,-0.0011373
 6,0.00522955,-0.00564674,0.00004543,-0.00018868,0.00016284,-0.00003719
 ,-0.00001752,0.00025940,0.00002626,0.00000572,0.00003963,0.00090958,0.
 00103868,0.00046813,0.00002159,0.00006266,0.00002326,0.00031390,0.0017
 9023,-0.00172334,0.00001240,0.00002880,0.00000243,-0.00001389,-0.00001
 086,0.00001241,0.00001829,0.00000056,0.00000590,-0.11335744,-0.2156884
 7,-0.09790541,0.00112528,-0.00178796,0.00419236,0.12276807,0.21959448,
 -0.00002877,0.00015323,0.00005587,0.00010818,-0.00028570,0.00036516,-0
 .00041209,0.00001991,0.00008297,0.00126336,0.00146871,0.00021120,-0.00
 008471,0.00005661,-0.00004182,0.00026124,0.00005912,0.00020152,0.00364
 842,-0.00595659,0.00787336,-0.00004964,0.00027758,-0.00022874,0.000007
 19,0.00013745,0.00030136,-0.00004696,0.00003574,-0.00000967,-0.0012907
 1,-0.00116122,-0.00059748,-0.00006627,-0.00005684,-0.00003778,0.006181
 70,0.00512368,0.00608078,-0.00002609,-0.00004807,0.00000038,0.00002637
 ,0.00002118,0.00000491,-0.00003952,0.00001349,-0.00001072,-0.05826689,
 -0.09924511,-0.09321225,-0.00180185,0.00423864,-0.00445938,0.05925970,
 0.10725012,0.08650737,0.00000922,-0.00004113,0.00003190,0.00015421,0.0
 0033342,-0.00027769,-0.00006048,-0.00072430,0.00020381,-0.00021396,-0.
 00006115,0.00011962,0.00024143,-0.00000834,0.00004984,0.00007131,-0.00
 003220,-0.00002576,0.00096973,0.00224843,-0.00069808,0.00005799,0.0000
 3049,0.00009072,-0.00018910,-0.00058754,-0.00111020,0.00009362,-0.0000
 0805,-0.00010992,0.00034280,0.00014056,-0.00007549,0.00000299,-0.00006
 196,0.00006194,-0.01223729,0.02051370,0.01972847,0.00006859,-0.0000390
 5,-0.00004292,-0.00002242,0.00000008,-0.00003684,-0.00000599,-0.000009
 44,-0.00000301,-0.12724021,0.08485636,0.08430873,-0.00421168,-0.002404
 40,0.00253932,0.01002164,-0.00965568,-0.00864266,0.13214759,0.00008758
 ,0.00006664,0.00008095,-0.00009320,-0.00004796,0.00037446,-0.00052846,
 -0.00048373,-0.00009990,0.00059348,0.00059321,-0.00002877,-0.00002523,
 0.00000645,-0.00002747,0.00010789,-0.00002015,0.00011322,0.00067617,-0
 .00225068,0.00349816,-0.00007815,0.00018655,-0.00018916,-0.00066547,-0
 .00027401,-0.00029669,-0.00002865,-0.00012357,-0.00011537,-0.00039768,
 -0.00030022,-0.00011875,0.00000589,-0.00008080,-0.00003976,-0.00226880
 ,0.00668778,0.00058260,-0.00008993,-0.00006278,0.00009595,0.00003181,0
 .00001142,-0.00001142,0.00001329,-0.00001542,0.00001014,0.08767964,-0.
 16329066,-0.11239564,-0.00263366,0.00454275,-0.00444185,0.01210329,-0.
 00929125,-0.01210192,-0.09448980,0.16414642,0.00001632,-0.00009388,-0.
 00003309,-0.00026573,0.00036395,-0.00001620,-0.00030342,0.00020228,-0.
 00010807,-0.00076995,-0.00078226,0.00000316,0.00000231,0.00002781,0.00
 002254,-0.00011919,-0.00003559,-0.00011948,-0.00244173,0.00271213,-0.0
 0526910,0.00011031,-0.00021249,0.00014730,-0.00077263,-0.00074046,-0.0
 0022976,0.00018983,0.00026414,0.00006534,0.00092831,0.00055260,0.00009
 100,0.00000515,0.00010233,0.00002697,0.00432425,-0.00477861,0.00189708
 ,0.00006583,0.00007065,-0.00002621,-0.00003355,-0.00000652,0.00002147,
 -0.00000355,0.00000380,-0.00000668,0.08554268,-0.11150212,-0.14064719,
 0.00266530,-0.00466471,0.00770809,0.00697126,-0.00659429,-0.00308706,-
 0.09611178,0.12511123,0.13955989\\0.00100343,0.00026143,0.00000764,-0.
 00097878,0.00001393,0.00002066,-0.00000875,-0.00029742,0.00000965,-0.0
 0006565,0.00001549,-0.00007402,-0.00000348,-0.00000682,0.00000901,0.00
 002529,-0.00001527,0.00003351,0.00000946,0.00000042,-0.00000016,-0.000
 00665,0.00000092,0.00000659,0.00000146,0.00000468,-0.00000372,0.000000
 62,0.00000432,-0.00000494,0.00001110,0.00000036,0.00001405,0.00003646,
 0.00000144,0.00000154,-0.00002202,0.00002210,-0.00004073,-0.00009191,0
 .00001226,-0.00001737,0.00004172,0.00000538,0.00000690,0.00003600,-0.0
 0000178,0.00000297,0.00000308,0.00000682,-0.00001440,0.00000385,-0.000
 01151,0.00001411,0.00000155,-0.00001853,0.00002913,0.00000321,0.000001
 80,-0.00000042\\\@


 ACCORDING TO HEN3RY, LIFE IS MUCH LIKE A SEWER........
 YOU GET OUT OF IT JUST WHAT YOU PUT INTO IT...........
                         TOM LEHRER - (THE 3 IS SILENT)
 Job cpu time:       0 days  1 hours 53 minutes 24.3 seconds.
 Elapsed time:       0 days  0 hours 10 minutes  7.6 seconds.
 File lengths (MBytes):  RWF=    162 Int=      0 D2E=      0 Chk=     32 Scr=      1
 Normal termination of Gaussian 16 at Sat Jun 11 00:37:54 2022.
