 Entering Gaussian System, Link 0=g16
 Input=ts_zmat_field_N25.gjf
 Output=ts_zmat_field_N25.out
 Initial command:
 /software/gaussian/g16-a03/l1.exe "/local_scratch/11174439/Gau-12725.inp" -scrdir="/local_scratch/11174439/"
 Entering Link 1 = /software/gaussian/g16-a03/l1.exe PID=     12726.
  
 Copyright (c) 1988,1990,1992,1993,1995,1998,2003,2009,2016,
            Gaussian, Inc.  All Rights Reserved.
  
 This is part of the Gaussian(R) 16 program.  It is based on
 the Gaussian(R) 09 system (copyright 2009, Gaussian, Inc.),
 the Gaussian(R) 03 system (copyright 2003, Gaussian, Inc.),
 the Gaussian(R) 98 system (copyright 1998, Gaussian, Inc.),
 the Gaussian(R) 94 system (copyright 1995, Gaussian, Inc.),
 the Gaussian 92(TM) system (copyright 1992, Gaussian, Inc.),
 the Gaussian 90(TM) system (copyright 1990, Gaussian, Inc.),
 the Gaussian 88(TM) system (copyright 1988, Gaussian, Inc.),
 the Gaussian 86(TM) system (copyright 1986, Carnegie Mellon
 University), and the Gaussian 82(TM) system (copyright 1983,
 Carnegie Mellon University). Gaussian is a federally registered
 trademark of Gaussian, Inc.
  
 This software contains proprietary and confidential information,
 including trade secrets, belonging to Gaussian, Inc.
  
 This software is provided under written license and may be
 used, copied, transmitted, or stored only in accord with that
 written license.
  
 The following legend is applicable only to US Government
 contracts under FAR:
  
                    RESTRICTED RIGHTS LEGEND
  
 Use, reproduction and disclosure by the US Government is
 subject to restrictions as set forth in subparagraphs (a)
 and (c) of the Commercial Computer Software - Restricted
 Rights clause in FAR 52.227-19.
  
 Gaussian, Inc.
 340 Quinnipiac St., Bldg. 40, Wallingford CT 06492
  
  
 ---------------------------------------------------------------
 Warning -- This program may not be used in any manner that
 competes with the business of Gaussian, Inc. or will provide
 assistance to any competitor of Gaussian, Inc.  The licensee
 of this program is prohibited from giving any competitor of
 Gaussian, Inc. access to this program.  By using this program,
 the user acknowledges that Gaussian, Inc. is engaged in the
 business of creating and licensing software in the field of
 computational chemistry and represents and warrants to the
 licensee that it is not a competitor of Gaussian, Inc. and that
 it will not use this program in any manner prohibited above.
 ---------------------------------------------------------------
  

 Cite this work as:
 Gaussian 16, Revision A.03,
 M. J. Frisch, G. W. Trucks, H. B. Schlegel, G. E. Scuseria, 
 M. A. Robb, J. R. Cheeseman, G. Scalmani, V. Barone, 
 G. A. Petersson, H. Nakatsuji, X. Li, M. Caricato, A. V. Marenich, 
 J. Bloino, B. G. Janesko, R. Gomperts, B. Mennucci, H. P. Hratchian, 
 J. V. Ortiz, A. F. Izmaylov, J. L. Sonnenberg, D. Williams-Young, 
 F. Ding, F. Lipparini, F. Egidi, J. Goings, B. Peng, A. Petrone, 
 T. Henderson, D. Ranasinghe, V. G. Zakrzewski, J. Gao, N. Rega, 
 G. Zheng, W. Liang, M. Hada, M. Ehara, K. Toyota, R. Fukuda, 
 J. Hasegawa, M. Ishida, T. Nakajima, Y. Honda, O. Kitao, H. Nakai, 
 T. Vreven, K. Throssell, J. A. Montgomery, Jr., J. E. Peralta, 
 F. Ogliaro, M. J. Bearpark, J. J. Heyd, E. N. Brothers, K. N. Kudin, 
 V. N. Staroverov, T. A. Keith, R. Kobayashi, J. Normand, 
 K. Raghavachari, A. P. Rendell, J. C. Burant, S. S. Iyengar, 
 J. Tomasi, M. Cossi, J. M. Millam, M. Klene, C. Adamo, R. Cammi, 
 J. W. Ochterski, R. L. Martin, K. Morokuma, O. Farkas, 
 J. B. Foresman, and D. J. Fox, Gaussian, Inc., Wallingford CT, 2016.
 
 ******************************************
 Gaussian 16:  ES64L-G16RevA.03 25-Dec-2016
                10-Jun-2022 
 ******************************************
 %nprocshared=12
 Will use up to   12 processors via shared memory.
 %chk=checkpoint.chk
 %mem=12GB
 ----------------------------------------------------------------------
 # Opt=(TS, CalcFC, noeigentest, Z-matrix, MaxStep=10) Field=read NoSym
 m B3LYP/Def2TZVP freq=noraman pop=none
 ----------------------------------------------------------------------
 1/5=1,8=10,10=4,11=1,18=40,26=3,38=1/1,3;
 2/12=2,15=1,17=6,18=5,29=3,40=1/2;
 3/5=44,7=101,11=2,14=-6,25=1,30=1,71=2,74=-5,140=1/1,2,3;
 4//1;
 5/5=2,38=5/2;
 8/6=4,10=90,11=11/1;
 11/6=1,8=1,9=11,15=111,16=1,31=1/1,2,10;
 10/6=1,13=1,31=1/2;
 7/10=1,18=20,25=1,30=1/1,2,3,16;
 1/5=1,8=10,10=4,11=1,18=40,26=3/3(2);
 2/15=1,29=3/2;
 99//99;
 2/15=1,29=3/2;
 3/5=44,7=101,11=2,14=-2,25=1,30=1,71=1,74=-5/1,2,3;
 4/5=5,16=3,69=1/1;
 5/5=2,38=5/2;
 7/30=1/1,2,3,16;
 1/5=1,8=10,11=1,18=40,26=3/3(-5);
 2/15=1,29=3/2;
 99/9=1/99;
 -----------------
 ts_zmat_initalOpt
 -----------------
 Symbolic Z-matrix:
 Charge =  0 Multiplicity = 1
 H
 C                    1    R2
 H                    2    R3       1    A3
 C                    2    R4       1    A4       3    D4       0
 C                    2    R5       1    A5       3    D5       0
 H                    5    R6       2    A6       1    D6       0
 C                    4    R7       2    A7       1    D7       0
 C                    5    R8       2    A8       6    D8       0
 H                    4    R9       2    A9       7    D9       0
 H                    4    R10      2    A10      7    D10      0
 H                    8    R11      5    A11      2    D11      0
 C                    8    R12      5    A12      11   D12      0
 C                    7    R13      4    A13      2    D13      0
 H                    7    R14      4    A14      13   D14      0
 H                    12   R15      8    A15      5    D15      0
 H                    12   R16      8    A16      15   D16      0
 C                    13   R17      7    A17      4    D17      0
 H                    13   R18      7    A18      17   D18      0
 H                    17   R19      13   A19      7    D19      0
 H                    17   R20      13   A20      19   D20      0
       Variables:
  R2                    1.09159                  
  R3                    1.09156                  
  R4                    1.5392                   
  R5                    1.52389                  
  R6                    1.08383                  
  R7                    1.52389                  
  R8                    1.39164                  
  R9                    1.09159                  
  R10                   1.09156                  
  R11                   1.08651                  
  R12                   1.37677                  
  R13                   1.39164                  
  R14                   1.08383                  
  R15                   1.07998                  
  R16                   1.0816                   
  R17                   1.37677                  
  R18                   1.08651                  
  R19                   1.07998                  
  R20                   1.0816                   
  A3                  106.76207                  
  A4                  112.61872                  
  A5                  110.76211                  
  A6                  116.4387                   
  A7                  102.25231                  
  A8                  123.93291                  
  A9                  112.61857                  
  A10                 112.82172                  
  A11                 116.33963                  
  A12                 124.75675                  
  A13                 123.93288                  
  A14                 116.43876                  
  A15                 121.28355                  
  A16                 120.14802                  
  A17                 124.75683                  
  A18                 116.33962                  
  A19                 121.28354                  
  A20                 120.14809                  
  D4                  124.35506                  
  D5                 -121.82784                  
  D6                  -21.52825                  
  D7                  118.91122                  
  D8                  161.242                    
  D9                 -118.9114                   
  D10                 120.13865                  
  D11                -176.03579                  
  D12                -165.07176                  
  D13                 100.07311                  
  D14                 161.24205                  
  D15                 -25.7028                   
  D16                -159.52692                  
  D17                 -18.89227                  
  D18                -165.07196                  
  D19                  25.70267                  
  D20                 159.52712                  
 

 GradGradGradGradGradGradGradGradGradGradGradGradGradGradGradGradGradGrad
 Berny optimization.
 Initialization pass.
                       ----------------------------
                       !    Initial Parameters    !
                       ! (Angstroms and Degrees)  !
 ----------------------                            ----------------------
 !      Name          Value   Derivative information (Atomic Units)     !
 ------------------------------------------------------------------------
 !       R2          1.0916   calculate D2E/DX2 analytically            !
 !       R3          1.0916   calculate D2E/DX2 analytically            !
 !       R4          1.5392   calculate D2E/DX2 analytically            !
 !       R5          1.5239   calculate D2E/DX2 analytically            !
 !       R6          1.0838   calculate D2E/DX2 analytically            !
 !       R7          1.5239   calculate D2E/DX2 analytically            !
 !       R8          1.3916   calculate D2E/DX2 analytically            !
 !       R9          1.0916   calculate D2E/DX2 analytically            !
 !       R10         1.0916   calculate D2E/DX2 analytically            !
 !       R11         1.0865   calculate D2E/DX2 analytically            !
 !       R12         1.3768   calculate D2E/DX2 analytically            !
 !       R13         1.3916   calculate D2E/DX2 analytically            !
 !       R14         1.0838   calculate D2E/DX2 analytically            !
 !       R15         1.08     calculate D2E/DX2 analytically            !
 !       R16         1.0816   calculate D2E/DX2 analytically            !
 !       R17         1.3768   calculate D2E/DX2 analytically            !
 !       R18         1.0865   calculate D2E/DX2 analytically            !
 !       R19         1.08     calculate D2E/DX2 analytically            !
 !       R20         1.0816   calculate D2E/DX2 analytically            !
 !       A3        106.7621   calculate D2E/DX2 analytically            !
 !       A4        112.6187   calculate D2E/DX2 analytically            !
 !       A5        110.7621   calculate D2E/DX2 analytically            !
 !       A6        116.4387   calculate D2E/DX2 analytically            !
 !       A7        102.2523   calculate D2E/DX2 analytically            !
 !       A8        123.9329   calculate D2E/DX2 analytically            !
 !       A9        112.6186   calculate D2E/DX2 analytically            !
 !       A10       112.8217   calculate D2E/DX2 analytically            !
 !       A11       116.3396   calculate D2E/DX2 analytically            !
 !       A12       124.7567   calculate D2E/DX2 analytically            !
 !       A13       123.9329   calculate D2E/DX2 analytically            !
 !       A14       116.4388   calculate D2E/DX2 analytically            !
 !       A15       121.2836   calculate D2E/DX2 analytically            !
 !       A16       120.148    calculate D2E/DX2 analytically            !
 !       A17       124.7568   calculate D2E/DX2 analytically            !
 !       A18       116.3396   calculate D2E/DX2 analytically            !
 !       A19       121.2835   calculate D2E/DX2 analytically            !
 !       A20       120.1481   calculate D2E/DX2 analytically            !
 !       D4        124.3551   calculate D2E/DX2 analytically            !
 !       D5       -121.8278   calculate D2E/DX2 analytically            !
 !       D6        -21.5283   calculate D2E/DX2 analytically            !
 !       D7        118.9112   calculate D2E/DX2 analytically            !
 !       D8        161.242    calculate D2E/DX2 analytically            !
 !       D9       -118.9114   calculate D2E/DX2 analytically            !
 !       D10       120.1387   calculate D2E/DX2 analytically            !
 !       D11      -176.0358   calculate D2E/DX2 analytically            !
 !       D12      -165.0718   calculate D2E/DX2 analytically            !
 !       D13       100.0731   calculate D2E/DX2 analytically            !
 !       D14       161.2421   calculate D2E/DX2 analytically            !
 !       D15       -25.7028   calculate D2E/DX2 analytically            !
 !       D16      -159.5269   calculate D2E/DX2 analytically            !
 !       D17       -18.8923   calculate D2E/DX2 analytically            !
 !       D18      -165.072    calculate D2E/DX2 analytically            !
 !       D19        25.7027   calculate D2E/DX2 analytically            !
 !       D20       159.5271   calculate D2E/DX2 analytically            !
 ------------------------------------------------------------------------
 Trust Radius=1.00D-01 FncErr=1.00D-07 GrdErr=1.00D-06 EigMax=2.50D+02 EigMin=1.00D-04
 Number of steps in this run=     64 maximum allowed number of steps=    108.
 Search for a saddle point of order  1.
 GradGradGradGradGradGradGradGradGradGradGradGradGradGradGradGradGradGrad

 ---------------------------------------------------------------------------------------------------
                            Z-MATRIX (ANGSTROMS AND DEGREES)
   CD    Cent   Atom    N1       Length/X        N2       Alpha/Y        N3        Beta/Z          J
 ---------------------------------------------------------------------------------------------------
      1      1  H 
      2      2  C        1   1.091590(     1)
      3      3  H        2   1.091556(     2)      1  106.762(    20)
      4      4  C        2   1.539197(     3)      1  112.619(    21)      3  124.355(    38)      0
      5      5  C        2   1.523893(     4)      1  110.762(    22)      3 -121.828(    39)      0
      6      6  H        5   1.083833(     5)      2  116.439(    23)      1  -21.528(    40)      0
      7      7  C        4   1.523892(     6)      2  102.252(    24)      1  118.911(    41)      0
      8      8  C        5   1.391637(     7)      2  123.933(    25)      6  161.242(    42)      0
      9      9  H        4   1.091590(     8)      2  112.619(    26)      7 -118.911(    43)      0
     10     10  H        4   1.091556(     9)      2  112.822(    27)      7  120.139(    44)      0
     11     11  H        8   1.086512(    10)      5  116.340(    28)      2 -176.036(    45)      0
     12     12  C        8   1.376766(    11)      5  124.757(    29)     11 -165.072(    46)      0
     13     13  C        7   1.391636(    12)      4  123.933(    30)      2  100.073(    47)      0
     14     14  H        7   1.083832(    13)      4  116.439(    31)     13  161.242(    48)      0
     15     15  H       12   1.079977(    14)      8  121.284(    32)      5  -25.703(    49)      0
     16     16  H       12   1.081601(    15)      8  120.148(    33)     15 -159.527(    50)      0
     17     17  C       13   1.376766(    16)      7  124.757(    34)      4  -18.892(    51)      0
     18     18  H       13   1.086512(    17)      7  116.340(    35)     17 -165.072(    52)      0
     19     19  H       17   1.079977(    18)     13  121.284(    36)      7   25.703(    53)      0
     20     20  H       17   1.081600(    19)     13  120.148(    37)     19  159.527(    54)      0
 ---------------------------------------------------------------------------------------------------
                         Z-Matrix orientation:                         
 ---------------------------------------------------------------------
 Center     Atomic      Atomic             Coordinates (Angstroms)
 Number     Number       Type             X           Y           Z
 ---------------------------------------------------------------------
      1          1           0        0.000000    0.000000    0.000000
      2          6           0        0.000000    0.000000    1.091590
      3          1           0        1.045176    0.000000    1.406393
      4          6           0       -0.801790    1.172958    1.683561
      5          6           0       -0.751464   -1.210674    1.631793
      6          1           0       -1.460775   -1.678147    0.958710
      7          6           0       -1.890180    0.455177    2.472513
      8          6           0       -0.335552   -1.956295    2.730756
      9          1           0       -1.239170    1.812816    0.914893
     10          1           0       -0.197700    1.818231    2.324023
     11          1           0       -0.928641   -2.834745    2.969670
     12          6           0        0.557171   -1.519199    3.683372
     13          6           0       -1.851628    0.261601    3.850081
     14          1           0       -2.855379    0.362050    1.988354
     15          1           0        1.295243   -0.764329    3.455841
     16          1           0        0.764664   -2.127655    4.553193
     17          6           0       -0.714670    0.341398    4.622378
     18          1           0       -2.724550   -0.207477    4.295594
     19          1           0        0.130997    0.938867    4.315412
     20          1           0       -0.754339    0.094517    5.674678
 ---------------------------------------------------------------------
                    Distance matrix (angstroms):
                    1          2          3          4          5
     1  H    0.000000
     2  C    1.091590   0.000000
     3  H    1.752237   1.091556   0.000000
     4  C    2.202970   1.539197   2.205434   0.000000
     5  C    2.166374   1.523893   2.178177   2.384725   0.000000
     6  H    2.422637   2.228834   3.048999   3.014709   1.083833
     7  C    3.145360   2.384725   3.155965   1.523892   2.185988
     8  C    3.375902   2.574209   2.736319   3.332600   1.391637
     9  H    2.378839   2.202968   2.957383   1.091590   3.145361
    10  H    2.957386   2.205434   2.385949   1.091556   3.155963
    11  H    4.209167   3.524959   3.791513   4.210920   2.111614
    12  C    4.023137   3.055444   2.780422   3.618526   2.452894
    13  C    4.280196   3.332601   3.798884   2.574206   2.880755
    14  H    3.498260   3.014707   3.960315   2.228833   2.650859
    15  H    3.768911   2.802059   2.201584   3.360299   2.777658
    16  H    5.083620   4.134527   3.808931   4.645709   3.416735
    17  C    4.689743   3.618531   3.681871   3.055442   3.369552
    18  H    5.091006   4.210921   4.754089   3.524957   3.463424
    19  H    4.418304   3.360306   3.190546   2.802058   3.549799
    20  H    5.725376   4.645713   4.633081   4.134526   4.248347
                    6          7          8          9         10
     6  H    0.000000
     7  C    2.650860   0.000000
     8  C    2.117461   2.880756   0.000000
     9  H    3.498264   2.166374   4.280197   0.000000
    10  H    3.960316   2.178176   3.798879   1.752237   0.000000
    11  H    2.380093   3.463425   1.086512   5.091008   4.754085
    12  C    3.394283   3.369550   1.376766   4.689738   3.681861
    13  C    3.503628   1.391636   2.910401   3.375900   2.736316
    14  H    2.677217   1.083832   3.503629   2.422638   3.048999
    15  H    3.829669   3.549796   2.146165   4.418297   3.190535
    16  H    4.251463   4.248346   2.135676   5.725372   4.633072
    17  C    4.249435   2.452894   3.000226   4.023135   2.780419
    18  H    3.859376   2.111612   3.348790   4.209165   3.791511
    19  H    4.544221   2.777659   3.333281   3.768909   2.201580
    20  H    5.087410   3.416734   3.612186   5.083617   3.808927
                   11         12         13         14         15
    11  H    0.000000
    12  C    2.108950   0.000000
    13  C    3.348788   3.000225   0.000000
    14  H    3.859378   4.249433   2.117459   0.000000
    15  H    3.077117   1.079977   3.333280   4.544218   0.000000
    16  H    2.423800   1.081601   3.612186   5.087410   1.828757
    17  C    3.586797   2.441543   1.376766   3.394281   2.573556
    18  H    3.447593   3.586798   1.086512   2.380091   4.144153
    19  H    4.144153   2.573555   2.146165   3.829668   2.234996
    20  H    3.990993   2.879138   2.135677   4.251462   3.140325
                   16         17         18         19         20
    16  H    0.000000
    17  C    2.879138   0.000000
    18  H    3.990996   2.108950   0.000000
    19  H    3.140323   1.079977   3.077117   0.000000
    20  H    2.916015   1.081600   2.423800   1.828757   0.000000
 Symmetry turned off by external request.
 Stoichiometry    C8H12
 Framework group  C1[X(C8H12)]
 Deg. of freedom    54
 Full point group                 C1      NOp   1
 Rotational constants (GHZ):           2.4921688           2.3101024           1.5833667
 Standard basis: def2TZVP (5D, 7F)
 The following finite field(s) will be applied:
 An electric field of             -0.0016 -0.0016  0.0010
   320 basis functions,   504 primitive gaussians,   360 cartesian basis functions
    30 alpha electrons       30 beta electrons
       nuclear repulsion energy       368.2317443624 Hartrees.
 NAtoms=   20 NActive=   20 NUniq=   20 SFac= 1.00D+00 NAtFMM=   60 NAOKFM=F Big=F
 Integral buffers will be    131072 words long.
 Raffenetti 2 integral format.
 Two-electron integral symmetry is turned off.
 One-electron integrals computed using PRISM.
   1 Symmetry operations used in ECPInt.
 ECPInt:  NShTT=    9316 NPrTT=   27240 LenC2=    9239 LenP2D=   22136.
 LDataN:  DoStor=T MaxTD1= 6 Len=  172
 NBasis=   320 RedAO= T EigKep=  2.55D-05  NBF=   320
 NBsUse=   320 1.00D-06 EigRej= -1.00D+00 NBFU=   320
 The nuclear repulsion energy is now       368.7274776412 hartrees.
 ExpMin= 9.52D-02 ExpMax= 1.36D+04 ExpMxC= 4.63D+02 IAcc=3 IRadAn=         5 AccDes= 0.00D+00
 Harris functional with IExCor=  402 and IRadAn=       5 diagonalized for initial guess.
 HarFok:  IExCor=  402 AccDes= 0.00D+00 IRadAn=         5 IDoV= 1 UseB2=F ITyADJ=14
 ICtDFT=  3500011 ScaDFX=  1.000000  1.000000  1.000000  1.000000
 FoFCou: FMM=F IPFlag=           0 FMFlag=      100000 FMFlg1=           0
         NFxFlg=           0 DoJE=T BraDBF=F KetDBF=T FulRan=T
         wScrn=  0.000000 ICntrl=       500 IOpCl=  0 I1Cent=   200000004 NGrid=           0
         NMat0=    1 NMatS0=      1 NMatT0=    0 NMatD0=    1 NMtDS0=    0 NMtDT0=    0
 Symmetry not used in FoFCou.
 Requested convergence on RMS density matrix=1.00D-08 within 128 cycles.
 Requested convergence on MAX density matrix=1.00D-06.
 Requested convergence on             energy=1.00D-06.
 No special actions if energy rises.
 Integral accuracy reduced to 1.0D-05 until final iterations.
 Initial convergence to 1.0D-05 achieved.  Increase integral accuracy.
 SCF Done:  E(RB3LYP) =  -312.080202461     A.U. after   14 cycles
            NFock= 14  Conv=0.53D-08     -V/T= 2.0056
 DoSCS=F DFT=T ScalE2(SS,OS)=  1.000000  1.000000
 Range of M.O.s used for correlation:     1   320
 NBasis=   320 NAE=    30 NBE=    30 NFC=     0 NFV=     0
 NROrb=    320 NOA=    30 NOB=    30 NVA=   290 NVB=   290

 **** Warning!!: The largest alpha MO coefficient is  0.39448832D+02

   1 Symmetry operations used in ECPInt.
 ECPInt:  NShTT=    9316 NPrTT=   27240 LenC2=    9239 LenP2D=   22136.
 LDataN:  DoStor=T MaxTD1= 7 Len=  274
 Symmetrizing basis deriv contribution to polar:
 IMax=3 JMax=2 DiffMx= 0.00D+00
 G2DrvN: will do    21 centers at a time, making    1 passes.
 Calling FoFCou, ICntrl=  3107 FMM=F I1Cent=   0 AccDes= 0.00D+00.
 End of G2Drv F.D. properties file   721 does not exist.
 End of G2Drv F.D. properties file   722 does not exist.
 End of G2Drv F.D. properties file   788 does not exist.
          IDoAtm=11111111111111111111
          Differentiating once with respect to nuclear coordinates.
 Keep R1 ints in memory in canonical form, NReq=1342482924.
          There are    63 degrees of freedom in the 1st order CPHF.  IDoFFX=6 NUNeed=     0.
     57 vectors produced by pass  0 Test12= 1.38D-14 1.59D-09 XBig12= 9.85D-02 1.07D-01.
 AX will form    57 AO Fock derivatives at one time.
     57 vectors produced by pass  1 Test12= 1.38D-14 1.59D-09 XBig12= 4.91D-03 1.11D-02.
     57 vectors produced by pass  2 Test12= 1.38D-14 1.59D-09 XBig12= 6.91D-05 1.25D-03.
     57 vectors produced by pass  3 Test12= 1.38D-14 1.59D-09 XBig12= 3.11D-07 8.09D-05.
     57 vectors produced by pass  4 Test12= 1.38D-14 1.59D-09 XBig12= 4.45D-10 2.83D-06.
     49 vectors produced by pass  5 Test12= 1.38D-14 1.59D-09 XBig12= 6.41D-13 1.07D-07.
      6 vectors produced by pass  6 Test12= 1.38D-14 1.59D-09 XBig12= 7.91D-16 3.94D-09.
 InvSVY:  IOpt=1 It=  1 EMax= 5.27D-16
 Solved reduced A of dimension   340 with    63 vectors.
 End of Minotr F.D. properties file   721 does not exist.
 End of Minotr F.D. properties file   722 does not exist.
 End of Minotr F.D. properties file   788 does not exist.
   1 Symmetry operations used in ECPInt.
 ECPInt:  NShTT=    9316 NPrTT=   27240 LenC2=    9239 LenP2D=   22136.
 LDataN:  DoStor=T MaxTD1= 8 Len=  415
 Calling FoFJK, ICntrl=    100147 FMM=F ISym2X=0 I1Cent= 0 IOpClX= 0 NMat=1 NMatS=1 NMatT=0.
 -------------------------------------------------------------------
 Center     Atomic                   Forces (Hartrees/Bohr)
 Number     Number              X              Y              Z
 -------------------------------------------------------------------
      1        1           0.000097335    0.000044860    0.000285711
      2        6           0.000151619   -0.000031138   -0.000150216
      3        1          -0.000248161    0.000044009   -0.000196778
      4        6           0.000001973    0.000200574   -0.000031056
      5        6           0.000185238    0.000081678    0.000085163
      6        1          -0.000072349   -0.000085784   -0.000096248
      7        6           0.000145460    0.000078259    0.000057078
      8        6           0.000075868    0.000192389   -0.000109191
      9        1           0.000193289   -0.000097544    0.000205509
     10        1          -0.000140817   -0.000087076   -0.000246924
     11        1          -0.000170847   -0.000259045    0.000086857
     12        6          -0.000078903    0.000222813   -0.000022756
     13        6           0.000107147    0.000116083   -0.000160837
     14        1          -0.000143234    0.000011826   -0.000049153
     15        1          -0.000018222   -0.000215855    0.000070930
     16        1           0.000128006   -0.000035434    0.000031271
     17        6           0.000164261   -0.000080687   -0.000143524
     18        1          -0.000250721   -0.000152432    0.000144502
     19        1          -0.000171716   -0.000030905    0.000142949
     20        1           0.000044774    0.000083409    0.000096712
 -------------------------------------------------------------------
 Cartesian Forces:  Max     0.000285711 RMS     0.000138495
 -----------------------------------------------------------------------------------------------
                       Internal Coordinate Forces (Hartree/Bohr or radian)
  Cent   Atom   N1       Length/X         N2         Alpha/Y        N3         Beta/Z          J
 -----------------------------------------------------------------------------------------------
      1  H 
      2  C        1  -0.000286(     1)
      3  H        2  -0.000294(     2)      1  -0.000241(    20)
      4  C        2   0.000063(     3)      1  -0.000321(    21)      3  -0.000196(    38)     0
      5  C        2   0.000071(     4)      1  -0.000205(    22)      3  -0.000070(    39)     0
      6  H        5   0.000144(     5)      2   0.000013(    23)      1  -0.000088(    40)     0
      7  C        4   0.000108(     6)      2   0.000135(    24)      1  -0.000325(    41)     0
      8  C        5   0.000077(     7)      2   0.000428(    25)      6  -0.000147(    42)     0
      9  H        4  -0.000279(     8)      2   0.000026(    26)      7  -0.000199(    43)     0
     10  H        4  -0.000274(     9)      2   0.000041(    27)      7   0.000215(    44)     0
     11  H        8   0.000322(    10)      5   0.000031(    28)      2  -0.000155(    45)     0
     12  C        8   0.000066(    11)      5   0.000217(    29)     11  -0.000141(    46)     0
     13  C        7   0.000085(    12)      4   0.000432(    30)      2   0.000099(    47)     0
     14  H        7   0.000148(    13)      4   0.000012(    31)     13  -0.000058(    48)     0
     15  H       12  -0.000178(    14)      8   0.000146(    32)      5  -0.000044(    49)     0
     16  H       12   0.000070(    15)      8   0.000138(    33)     15   0.000170(    50)     0
     17  C       13   0.000083(    16)      7   0.000165(    34)      4   0.000142(    51)     0
     18  H       13   0.000326(    17)      7   0.000028(    35)     17   0.000025(    52)     0
     19  H       17  -0.000192(    18)     13   0.000087(    36)      7   0.000032(    53)     0
     20  H       17   0.000073(    19)     13   0.000140(    37)     19  -0.000160(    54)     0
 -----------------------------------------------------------------------------------------------
 Internal  Forces:  Max     0.000432116 RMS     0.000184383

 GradGradGradGradGradGradGradGradGradGradGradGradGradGradGradGradGradGrad
 Berny optimization.
 Search for a saddle point.
 Step number   1 out of a maximum of   64
 All quantities printed in internal units (Hartrees-Bohrs-Radians)
 Swapping is turned off.
 Second derivative matrix not updated -- analytic derivatives used.
 ITU=  0
     Eigenvalues ---   -0.20166   0.00714   0.01620   0.02364   0.03346
     Eigenvalues ---    0.04292   0.05685   0.06179   0.06902   0.08544
     Eigenvalues ---    0.10494   0.11401   0.11792   0.12391   0.14420
     Eigenvalues ---    0.14662   0.15378   0.16142   0.16927   0.17797
     Eigenvalues ---    0.19850   0.22013   0.22559   0.24199   0.26186
     Eigenvalues ---    0.27552   0.28153   0.29419   0.29651   0.31867
     Eigenvalues ---    0.32974   0.33315   0.33544   0.33660   0.34172
     Eigenvalues ---    0.34644   0.35064   0.35236   0.35465   0.35695
     Eigenvalues ---    0.36052   0.36774   0.36953   0.38373   0.42071
     Eigenvalues ---    0.45612   0.47397   0.50018   0.53212   0.54898
     Eigenvalues ---    0.76177   0.82166   1.86112   3.64282
 Eigenvectors required to have negative eigenvalues:
                          D8        D13       A7        D19       D6
   1                    0.42606  -0.35214   0.25456   0.24888   0.24623
                          R13       R8        D14       D5        R17
   1                   -0.23331  -0.22704   0.22077   0.21974   0.21808
 RFO step:  Lambda0=1.240864270D-08 Lambda=-1.15029768D-05.
 Linear search not attempted -- option 19 set.
 Variable       Old X    -DE/DX   Delta X   Delta X   Delta X     New X
                                 (Linear)    (Quad)   (Total)
    R2        2.06281  -0.00029   0.00000  -0.00092  -0.00092   2.06189
    R3        2.06274  -0.00029   0.00000  -0.00065  -0.00065   2.06210
    R4        2.90866   0.00006   0.00000   0.00000   0.00000   2.90866
    R5        2.87974   0.00007   0.00000   0.00051   0.00051   2.88025
    R6        2.04815   0.00014   0.00000   0.00044   0.00044   2.04859
    R7        2.87974   0.00011   0.00000  -0.00011  -0.00011   2.87963
    R8        2.62981   0.00008   0.00000   0.00035   0.00035   2.63016
    R9        2.06281  -0.00028   0.00000  -0.00074  -0.00074   2.06207
   R10        2.06274  -0.00027   0.00000  -0.00095  -0.00095   2.06179
   R11        2.05321   0.00032   0.00000   0.00093   0.00093   2.05414
   R12        2.60171   0.00007   0.00000  -0.00046  -0.00046   2.60125
   R13        2.62981   0.00009   0.00000   0.00043   0.00043   2.63024
   R14        2.04815   0.00015   0.00000   0.00045   0.00045   2.04859
   R15        2.04086  -0.00018   0.00000  -0.00020  -0.00020   2.04066
   R16        2.04393   0.00007   0.00000   0.00021   0.00021   2.04414
   R17        2.60171   0.00008   0.00000   0.00005   0.00005   2.60176
   R18        2.05321   0.00033   0.00000   0.00093   0.00093   2.05414
   R19        2.04086  -0.00019   0.00000  -0.00059  -0.00059   2.04027
   R20        2.04393   0.00007   0.00000   0.00029   0.00029   2.04421
    A3        1.86335  -0.00024   0.00000   0.00001   0.00001   1.86336
    A4        1.96557  -0.00032   0.00000  -0.00180  -0.00180   1.96376
    A5        1.93316  -0.00020   0.00000  -0.00255  -0.00255   1.93062
    A6        2.03224   0.00001   0.00000  -0.00102  -0.00102   2.03121
    A7        1.78464   0.00014   0.00000  -0.00087  -0.00087   1.78377
    A8        2.16304   0.00043   0.00000   0.00200   0.00200   2.16503
    A9        1.96556   0.00003   0.00000   0.00127   0.00127   1.96683
   A10        1.96911   0.00004   0.00000  -0.00099  -0.00099   1.96812
   A11        2.03051   0.00003   0.00000  -0.00024  -0.00024   2.03026
   A12        2.17742   0.00022   0.00000   0.00056   0.00056   2.17798
   A13        2.16304   0.00043   0.00000   0.00016   0.00016   2.16319
   A14        2.03224   0.00001   0.00000  -0.00029  -0.00029   2.03195
   A15        2.11680   0.00015   0.00000  -0.00016  -0.00016   2.11664
   A16        2.09698   0.00014   0.00000   0.00070   0.00070   2.09768
   A17        2.17742   0.00017   0.00000  -0.00026  -0.00026   2.17715
   A18        2.03051   0.00003   0.00000   0.00003   0.00003   2.03054
   A19        2.11680   0.00009   0.00000   0.00022   0.00022   2.11702
   A20        2.09698   0.00014   0.00000   0.00018   0.00018   2.09716
    D4        2.17041  -0.00020   0.00000  -0.00001  -0.00001   2.17039
    D5       -2.12630  -0.00007   0.00000  -0.00243  -0.00243  -2.12873
    D6       -0.37574  -0.00009   0.00000   0.01770   0.01770  -0.35804
    D7        2.07539  -0.00033   0.00000  -0.01980  -0.01980   2.05559
    D8        2.81420  -0.00015   0.00000  -0.00263  -0.00263   2.81157
    D9       -2.07540  -0.00020   0.00000  -0.00249  -0.00249  -2.07789
   D10        2.09682   0.00021   0.00000  -0.00116  -0.00116   2.09566
   D11       -3.07240  -0.00015   0.00000   0.00317   0.00317  -3.06923
   D12       -2.88105  -0.00014   0.00000  -0.00031  -0.00031  -2.88136
   D13        1.74661   0.00010   0.00000   0.01274   0.01274   1.75934
   D14        2.81420  -0.00006   0.00000   0.00008   0.00008   2.81428
   D15       -0.44860  -0.00004   0.00000   0.00201   0.00201  -0.44659
   D16       -2.78427   0.00017   0.00000   0.00167   0.00167  -2.78260
   D17       -0.32973   0.00014   0.00000   0.00229   0.00229  -0.32744
   D18       -2.88105   0.00003   0.00000   0.00034   0.00034  -2.88071
   D19        0.44860   0.00003   0.00000   0.00293   0.00293   0.45153
   D20        2.78427  -0.00016   0.00000  -0.00242  -0.00242   2.78186
         Item               Value     Threshold  Converged?
 Maximum Force            0.000432     0.000450     YES
 RMS     Force            0.000184     0.000300     YES
 Maximum Displacement     0.019800     0.001800     NO 
 RMS     Displacement     0.004195     0.001200     NO 
 Predicted change in Energy=-5.750754D-06
 GradGradGradGradGradGradGradGradGradGradGradGradGradGradGradGradGradGrad

 ---------------------------------------------------------------------------------------------------
                            Z-MATRIX (ANGSTROMS AND DEGREES)
   CD    Cent   Atom    N1       Length/X        N2       Alpha/Y        N3        Beta/Z          J
 ---------------------------------------------------------------------------------------------------
      1      1  H 
      2      2  C        1   1.091105(     1)
      3      3  H        2   1.091214(     2)      1  106.762(    20)
      4      4  C        2   1.539199(     3)      1  112.515(    21)      3  124.354(    38)      0
      5      5  C        2   1.524160(     4)      1  110.616(    22)      3 -121.967(    39)      0
      6      6  H        5   1.084067(     5)      2  116.380(    23)      1  -20.514(    40)      0
      7      7  C        4   1.523833(     6)      2  102.203(    24)      1  117.777(    41)      0
      8      8  C        5   1.391821(     7)      2  124.047(    25)      6  161.091(    42)      0
      9      9  H        4   1.091200(     8)      2  112.691(    26)      7 -119.054(    43)      0
     10     10  H        4   1.091053(     9)      2  112.765(    27)      7  120.072(    44)      0
     11     11  H        8   1.087007(    10)      5  116.326(    28)      2 -175.854(    45)      0
     12     12  C        8   1.376523(    11)      5  124.789(    29)     11 -165.089(    46)      0
     13     13  C        7   1.391861(    12)      4  123.942(    30)      2  100.803(    47)      0
     14     14  H        7   1.084069(    13)      4  116.422(    31)     13  161.246(    48)      0
     15     15  H       12   1.079871(    14)      8  121.274(    32)      5  -25.588(    49)      0
     16     16  H       12   1.081714(    15)      8  120.188(    33)     15 -159.431(    50)      0
     17     17  C       13   1.376791(    16)      7  124.742(    34)      4  -18.761(    51)      0
     18     18  H       13   1.087003(    17)      7  116.342(    35)     17 -165.052(    52)      0
     19     19  H       17   1.079664(    18)     13  121.296(    36)      7   25.871(    53)      0
     20     20  H       17   1.081751(    19)     13  120.158(    37)     19  159.389(    54)      0
 ---------------------------------------------------------------------------------------------------
                         Z-Matrix orientation:                         
 ---------------------------------------------------------------------
 Center     Atomic      Atomic             Coordinates (Angstroms)
 Number     Number       Type             X           Y           Z
 ---------------------------------------------------------------------
      1          1           0        0.000000    0.000000    0.000000
      2          6           0        0.000000    0.000000    1.091105
      3          1           0        1.044847    0.000000    1.405815
      4          6           0       -0.802376    1.173851    1.680512
      5          6           0       -0.755261   -1.210221    1.627772
      6          1           0       -1.452233   -1.684204    0.946029
      7          6           0       -1.908202    0.456424    2.445047
      8          6           0       -0.354044   -1.950582    2.735948
      9          1           0       -1.220775    1.825730    0.911933
     10          1           0       -0.203571    1.807240    2.336748
     11          1           0       -0.947669   -2.831107    2.968045
     12          6           0        0.521326   -1.507479    3.701455
     13          6           0       -1.900400    0.262478    3.823307
     14          1           0       -2.862564    0.363840    1.939255
     15          1           0        1.258902   -0.749303    3.484036
     16          1           0        0.719972   -2.113686    4.575044
     17          6           0       -0.781091    0.344204    4.620816
     18          1           0       -2.782537   -0.208839    4.249065
     19          1           0        0.068895    0.945219    4.334494
     20          1           0       -0.843484    0.096526    5.671981
 ---------------------------------------------------------------------
                    Distance matrix (angstroms):
                    1          2          3          4          5
     1  H    0.000000
     2  C    1.091105   0.000000
     3  H    1.751576   1.091214   0.000000
     4  C    2.201330   1.539199   2.205815   0.000000
     5  C    2.164416   1.524160   2.180433   2.385120   0.000000
     6  H    2.416711   2.228580   3.046859   3.021631   1.084067
     7  C    3.134935   2.383845   3.163673   1.523833   2.185159
     8  C    3.378688   2.575971   2.744252   3.328217   1.391821
     9  H    2.378067   2.203562   2.951314   1.091200   3.153748
    10  H    2.961073   2.204356   2.385645   1.091053   3.148346
    11  H    4.209814   3.526492   3.798138   4.209339   2.112019
    12  C    4.030514   3.059118   2.795806   3.609145   2.453202
    13  C    4.277627   3.338464   3.819378   2.574457   2.881070
    14  H    3.476689   3.007659   3.960404   2.228775   2.648663
    15  H    3.779523   2.805781   2.219522   3.346653   2.777592
    16  H    5.090880   4.138099   3.823249   4.637215   3.417453
    17  C    4.698992   3.631452   3.713322   3.055185   3.372717
    18  H    5.083373   4.214123   4.772479   3.525668   3.461761
    19  H    4.436893   3.379017   3.228480   2.802678   3.556894
    20  H    5.735168   4.658885   4.666400   4.134507   4.251000
                    6          7          8          9         10
     6  H    0.000000
     7  C    2.652782   0.000000
     8  C    2.116788   2.879881   0.000000
     9  H    3.517722   2.167486   4.282381   0.000000
    10  H    3.960232   2.177660   3.781962   1.750755   0.000000
    11  H    2.378765   3.464680   1.087007   5.097873   4.739882
    12  C    3.393898   3.367207   1.376523   4.682589   3.657221
    13  C    3.502736   1.391861   2.910533   3.373684   2.734114
    14  H    2.677689   1.084069   3.504846   2.426517   3.051500
    15  H    3.829592   3.544549   2.145764   4.404011   3.160856
    16  H    4.251198   4.248489   2.135975   5.718731   4.608315
    17  C    4.250757   2.452946   3.000190   4.017967   2.773260
    18  H    3.854408   2.112230   3.349742   4.208921   3.791121
    19  H    4.550757   2.778100   3.334650   3.761977   2.192785
    20  H    5.086866   3.417054   3.612547   5.078440   3.802606
                   11         12         13         14         15
    11  H    0.000000
    12  C    2.108987   0.000000
    13  C    3.348050   3.002058   0.000000
    14  H    3.864313   4.249459   2.117944   0.000000
    15  H    3.077192   1.079871   3.334666   4.540035   0.000000
    16  H    2.424493   1.081714   3.616299   5.091178   1.828192
    17  C    3.583573   2.443409   1.376791   3.394656   2.578681
    18  H    3.447324   3.591915   1.087003   2.381089   4.148566
    19  H    4.142610   2.573161   2.146059   3.829964   2.238481
    20  H    3.986623   2.884183   2.135932   4.252222   3.150010
                   16         17         18         19         20
    16  H    0.000000
    17  C    2.880366   0.000000
    18  H    4.000285   2.109465   0.000000
    19  H    3.136665   1.079664   3.077306   0.000000
    20  H    2.921080   1.081751   2.424431   1.828001   0.000000
 Symmetry turned off by external request.
 Stoichiometry    C8H12
 Framework group  C1[X(C8H12)]
 Deg. of freedom    54
 Full point group                 C1      NOp   1
 Rotational constants (GHZ):           2.4919264           2.3086061           1.5823772
 Standard basis: def2TZVP (5D, 7F)
 The following finite field(s) will be applied:
 An electric field of             -0.0016 -0.0016  0.0010
   320 basis functions,   504 primitive gaussians,   360 cartesian basis functions
    30 alpha electrons       30 beta electrons
       nuclear repulsion energy       368.1774089939 Hartrees.
 NAtoms=   20 NActive=   20 NUniq=   20 SFac= 1.00D+00 NAtFMM=   60 NAOKFM=F Big=F
 Integral buffers will be    131072 words long.
 Raffenetti 2 integral format.
 Two-electron integral symmetry is turned off.
 One-electron integrals computed using PRISM.
   1 Symmetry operations used in ECPInt.
 ECPInt:  NShTT=    9316 NPrTT=   27240 LenC2=    9238 LenP2D=   22132.
 LDataN:  DoStor=T MaxTD1= 6 Len=  172
 NBasis=   320 RedAO= T EigKep=  2.56D-05  NBF=   320
 NBsUse=   320 1.00D-06 EigRej= -1.00D+00 NBFU=   320
 The nuclear repulsion energy is now       368.6765532887 hartrees.
 Initial guess from the checkpoint file:  "checkpoint.chk"
 B after Tr=     0.046164    0.004007    0.015425
         Rot=    0.999958    0.000446    0.009046   -0.001079 Ang=   1.05 deg.
 Requested convergence on RMS density matrix=1.00D-08 within 128 cycles.
 Requested convergence on MAX density matrix=1.00D-06.
 Requested convergence on             energy=1.00D-06.
 No special actions if energy rises.
 SCF Done:  E(RB3LYP) =  -312.080208433     A.U. after    9 cycles
            NFock=  9  Conv=0.60D-08     -V/T= 2.0056
   1 Symmetry operations used in ECPInt.
 ECPInt:  NShTT=    9316 NPrTT=   27240 LenC2=    9238 LenP2D=   22132.
 LDataN:  DoStor=T MaxTD1= 7 Len=  274
 Calling FoFJK, ICntrl=      2127 FMM=F ISym2X=0 I1Cent= 0 IOpClX= 0 NMat=1 NMatS=1 NMatT=0.
 -------------------------------------------------------------------
 Center     Atomic                   Forces (Hartrees/Bohr)
 Number     Number              X              Y              Z
 -------------------------------------------------------------------
      1        1           0.000133626    0.000063895   -0.000001429
      2        6          -0.000139017    0.000048509    0.000005077
      3        1          -0.000000808   -0.000102419   -0.000001119
      4        6           0.000003023   -0.000005173   -0.000003012
      5        6          -0.000003159    0.000008472   -0.000005554
      6        1          -0.000000690    0.000000291   -0.000000508
      7        6           0.000012105   -0.000001469   -0.000002067
      8        6          -0.000007958    0.000009211    0.000013247
      9        1           0.000000177    0.000000389   -0.000001965
     10        1          -0.000002683   -0.000004133   -0.000001439
     11        1           0.000000425   -0.000000995   -0.000000428
     12        6           0.000004538   -0.000005403    0.000000313
     13        6           0.000003731   -0.000016253   -0.000011637
     14        1           0.000000302   -0.000000428   -0.000001219
     15        1          -0.000002274    0.000000455    0.000000802
     16        1          -0.000001578    0.000000920    0.000001785
     17        6          -0.000005152    0.000006274    0.000004613
     18        1          -0.000000593    0.000000296    0.000000407
     19        1           0.000005315   -0.000000789    0.000003886
     20        1           0.000000669   -0.000001650    0.000000248
 -------------------------------------------------------------------
 Cartesian Forces:  Max     0.000139017 RMS     0.000030391
 -----------------------------------------------------------------------------------------------
                       Internal Coordinate Forces (Hartree/Bohr or radian)
  Cent   Atom   N1       Length/X         N2         Alpha/Y        N3         Beta/Z          J
 -----------------------------------------------------------------------------------------------
      1  H 
      2  C        1   0.000001(     1)
      3  H        2  -0.000001(     2)      1  -0.000002(    20)
      4  C        2  -0.000031(     3)      1   0.000047(    21)      3   0.000049(    38)     0
      5  C        2  -0.000002(     4)      1   0.000032(    22)      3  -0.000053(    39)     0
      6  H        5   0.000001(     5)      2  -0.000001(    23)      1   0.000033(    40)     0
      7  C        4  -0.000008(     6)      2  -0.000080(    24)      1  -0.000020(    41)     0
      8  C        5   0.000008(     7)      2   0.000014(    25)      6   0.000034(    42)     0
      9  H        4   0.000002(     8)      2  -0.000003(    26)      7  -0.000001(    43)     0
     10  H        4  -0.000005(     9)      2  -0.000001(    27)      7  -0.000004(    44)     0
     11  H        8   0.000000(    10)      5   0.000000(    28)      2   0.000004(    45)     0
     12  C        8   0.000001(    11)      5   0.000011(    29)     11   0.000002(    46)     0
     13  C        7  -0.000001(    12)      4   0.000029(    30)      2  -0.000016(    47)     0
     14  H        7   0.000000(    13)      4  -0.000002(    31)     13   0.000002(    48)     0
     15  H       12  -0.000001(    14)      8  -0.000000(    32)      5  -0.000001(    49)     0
     16  H       12   0.000001(    15)      8   0.000001(    33)     15  -0.000004(    50)     0
     17  C       13   0.000006(    16)      7   0.000025(    34)      4   0.000004(    51)     0
     18  H       13   0.000001(    17)      7   0.000000(    35)     17  -0.000001(    52)     0
     19  H       17   0.000003(    18)     13   0.000012(    36)      7   0.000001(    53)     0
     20  H       17   0.000001(    19)     13   0.000001(    37)     19   0.000003(    54)     0
 -----------------------------------------------------------------------------------------------
 Internal  Forces:  Max     0.000080020 RMS     0.000019714

 GradGradGradGradGradGradGradGradGradGradGradGradGradGradGradGradGradGrad
 Berny optimization.
 Search for a saddle point.
 Step number   2 out of a maximum of   64
 All quantities printed in internal units (Hartrees-Bohrs-Radians)
 Swapping is turned off.
 Update second derivatives using D2CorN and points    1    2
 ITU=  0  0
     Eigenvalues ---   -0.20167   0.00644   0.01620   0.02364   0.03345
     Eigenvalues ---    0.04292   0.05685   0.06179   0.06902   0.08544
     Eigenvalues ---    0.10491   0.11401   0.11792   0.12391   0.14420
     Eigenvalues ---    0.14661   0.15378   0.16143   0.16927   0.17795
     Eigenvalues ---    0.19850   0.22013   0.22559   0.24199   0.26186
     Eigenvalues ---    0.27552   0.28153   0.29419   0.29651   0.31867
     Eigenvalues ---    0.32974   0.33315   0.33544   0.33660   0.34172
     Eigenvalues ---    0.34643   0.35064   0.35236   0.35465   0.35695
     Eigenvalues ---    0.36052   0.36774   0.36953   0.38373   0.42072
     Eigenvalues ---    0.45612   0.47394   0.50018   0.53212   0.54897
     Eigenvalues ---    0.76176   0.82166   1.86112   3.64284
 Eigenvectors required to have negative eigenvalues:
                          D8        D13       A7        D19       D6
   1                    0.42619  -0.35279   0.25460   0.24872   0.24532
                          R13       R8        D14       D5        R17
   1                   -0.23332  -0.22705   0.22075   0.21984   0.21807
 RFO step:  Lambda0=1.973567129D-09 Lambda=-1.00568987D-07.
 Linear search not attempted -- option 19 set.
 Variable       Old X    -DE/DX   Delta X   Delta X   Delta X     New X
                                 (Linear)    (Quad)   (Total)
    R2        2.06189   0.00000   0.00000  -0.00001  -0.00001   2.06188
    R3        2.06210  -0.00000   0.00000   0.00002   0.00002   2.06211
    R4        2.90866  -0.00003   0.00000  -0.00003  -0.00003   2.90864
    R5        2.88025  -0.00000   0.00000   0.00005   0.00005   2.88030
    R6        2.04859   0.00000   0.00000   0.00000   0.00000   2.04859
    R7        2.87963  -0.00001   0.00000  -0.00006  -0.00006   2.87956
    R8        2.63016   0.00001   0.00000  -0.00000  -0.00000   2.63016
    R9        2.06207   0.00000   0.00000   0.00001   0.00001   2.06208
   R10        2.06179  -0.00000   0.00000  -0.00004  -0.00004   2.06176
   R11        2.05414   0.00000   0.00000   0.00000   0.00000   2.05415
   R12        2.60125   0.00000   0.00000  -0.00001  -0.00001   2.60124
   R13        2.63024  -0.00000   0.00000  -0.00004  -0.00004   2.63020
   R14        2.04859   0.00000   0.00000   0.00000   0.00000   2.04859
   R15        2.04066  -0.00000   0.00000   0.00002   0.00002   2.04068
   R16        2.04414   0.00000   0.00000  -0.00000  -0.00000   2.04414
   R17        2.60176   0.00001   0.00000   0.00005   0.00005   2.60180
   R18        2.05414   0.00000   0.00000   0.00000   0.00000   2.05414
   R19        2.04027   0.00000   0.00000  -0.00001  -0.00001   2.04026
   R20        2.04421   0.00000   0.00000   0.00001   0.00001   2.04422
    A3        1.86336  -0.00000   0.00000   0.00010   0.00010   1.86345
    A4        1.96376   0.00005   0.00000  -0.00021  -0.00021   1.96355
    A5        1.93062   0.00003   0.00000  -0.00031  -0.00031   1.93031
    A6        2.03121  -0.00000   0.00000  -0.00005  -0.00005   2.03116
    A7        1.78377  -0.00008   0.00000  -0.00009  -0.00009   1.78368
    A8        2.16503   0.00001   0.00000   0.00015   0.00015   2.16519
    A9        1.96683  -0.00000   0.00000   0.00015   0.00015   1.96698
   A10        1.96812  -0.00000   0.00000  -0.00013  -0.00013   1.96799
   A11        2.03026   0.00000   0.00000  -0.00003  -0.00003   2.03023
   A12        2.17798   0.00001   0.00000   0.00007   0.00007   2.17805
   A13        2.16319   0.00003   0.00000   0.00001   0.00001   2.16320
   A14        2.03195  -0.00000   0.00000  -0.00001  -0.00001   2.03194
   A15        2.11664  -0.00000   0.00000  -0.00007  -0.00007   2.11657
   A16        2.09768   0.00000   0.00000   0.00005   0.00005   2.09773
   A17        2.17715   0.00002   0.00000   0.00002   0.00002   2.17718
   A18        2.03054   0.00000   0.00000  -0.00001  -0.00001   2.03053
   A19        2.11702   0.00001   0.00000   0.00009   0.00009   2.11712
   A20        2.09716   0.00000   0.00000  -0.00007  -0.00007   2.09709
    D4        2.17039   0.00005   0.00000   0.00012   0.00012   2.17051
    D5       -2.12873  -0.00005   0.00000  -0.00012  -0.00012  -2.12884
    D6       -0.35804   0.00003   0.00000   0.00200   0.00200  -0.35603
    D7        2.05559  -0.00002   0.00000  -0.00232  -0.00232   2.05327
    D8        2.81157   0.00003   0.00000  -0.00008  -0.00008   2.81149
    D9       -2.07789  -0.00000   0.00000  -0.00025  -0.00025  -2.07814
   D10        2.09566  -0.00000   0.00000  -0.00026  -0.00026   2.09540
   D11       -3.06923   0.00000   0.00000   0.00034   0.00034  -3.06889
   D12       -2.88136   0.00000   0.00000  -0.00007  -0.00007  -2.88142
   D13        1.75934  -0.00002   0.00000   0.00139   0.00139   1.76073
   D14        2.81428   0.00000   0.00000   0.00027   0.00027   2.81455
   D15       -0.44659  -0.00000   0.00000   0.00032   0.00032  -0.44627
   D16       -2.78260  -0.00000   0.00000  -0.00005  -0.00005  -2.78265
   D17       -0.32744   0.00000   0.00000   0.00039   0.00039  -0.32705
   D18       -2.88071  -0.00000   0.00000   0.00001   0.00001  -2.88069
   D19        0.45153   0.00000   0.00000   0.00033   0.00033   0.45186
   D20        2.78186   0.00000   0.00000  -0.00006  -0.00006   2.78179
         Item               Value     Threshold  Converged?
 Maximum Force            0.000080     0.000450     YES
 RMS     Force            0.000020     0.000300     YES
 Maximum Displacement     0.002318     0.001800     NO 
 RMS     Displacement     0.000478     0.001200     YES
 Predicted change in Energy=-4.929771D-08
 GradGradGradGradGradGradGradGradGradGradGradGradGradGradGradGradGradGrad

 ---------------------------------------------------------------------------------------------------
                            Z-MATRIX (ANGSTROMS AND DEGREES)
   CD    Cent   Atom    N1       Length/X        N2       Alpha/Y        N3        Beta/Z          J
 ---------------------------------------------------------------------------------------------------
      1      1  H 
      2      2  C        1   1.091101(     1)
      3      3  H        2   1.091224(     2)      1  106.768(    20)
      4      4  C        2   1.539186(     3)      1  112.503(    21)      3  124.361(    38)      0
      5      5  C        2   1.524188(     4)      1  110.599(    22)      3 -121.974(    39)      0
      6      6  H        5   1.084068(     5)      2  116.377(    23)      1  -20.399(    40)      0
      7      7  C        4   1.523800(     6)      2  102.197(    24)      1  117.644(    41)      0
      8      8  C        5   1.391820(     7)      2  124.056(    25)      6  161.086(    42)      0
      9      9  H        4   1.091206(     8)      2  112.700(    26)      7 -119.068(    43)      0
     10     10  H        4   1.091034(     9)      2  112.758(    27)      7  120.058(    44)      0
     11     11  H        8   1.087008(    10)      5  116.324(    28)      2 -175.834(    45)      0
     12     12  C        8   1.376516(    11)      5  124.793(    29)     11 -165.093(    46)      0
     13     13  C        7   1.391841(    12)      4  123.942(    30)      2  100.883(    47)      0
     14     14  H        7   1.084069(    13)      4  116.422(    31)     13  161.262(    48)      0
     15     15  H       12   1.079880(    14)      8  121.271(    32)      5  -25.569(    49)      0
     16     16  H       12   1.081712(    15)      8  120.191(    33)     15 -159.434(    50)      0
     17     17  C       13   1.376815(    16)      7  124.743(    34)      4  -18.739(    51)      0
     18     18  H       13   1.087004(    17)      7  116.341(    35)     17 -165.052(    52)      0
     19     19  H       17   1.079659(    18)     13  121.302(    36)      7   25.890(    53)      0
     20     20  H       17   1.081755(    19)     13  120.154(    37)     19  159.385(    54)      0
 ---------------------------------------------------------------------------------------------------
                         Z-Matrix orientation:                         
 ---------------------------------------------------------------------
 Center     Atomic      Atomic             Coordinates (Angstroms)
 Number     Number       Type             X           Y           Z
 ---------------------------------------------------------------------
      1          1           0        0.000000    0.000000    0.000000
      2          6           0        0.000000    0.000000    1.091101
      3          1           0        1.044827    0.000000    1.405914
      4          6           0       -0.802579    1.173851    1.680198
      5          6           0       -0.755504   -1.210294    1.627339
      6          1           0       -1.450986   -1.685147    0.944680
      7          6           0       -1.910323    0.456385    2.441848
      8          6           0       -0.355915   -1.949793    2.736678
      9          1           0       -1.218885    1.827078    0.911620
     10          1           0       -0.204495    1.805864    2.338386
     11          1           0       -0.949366   -2.830632    2.968034
     12          6           0        0.517275   -1.505663    3.703676
     13          6           0       -1.906037    0.262339    3.820089
     14          1           0       -2.863314    0.363617    1.933510
     15          1           0        1.254569   -0.746888    3.487343
     16          1           0        0.714834   -2.111403    4.577833
     17          6           0       -0.788839    0.344434    4.620557
     18          1           0       -2.789099   -0.209365    4.243497
     19          1           0        0.061585    0.946011    4.336749
     20          1           0       -0.853916    0.096393    5.671478
 ---------------------------------------------------------------------
                    Distance matrix (angstroms):
                    1          2          3          4          5
     1  H    0.000000
     2  C    1.091101   0.000000
     3  H    1.751644   1.091224   0.000000
     4  C    2.201164   1.539186   2.205916   0.000000
     5  C    2.164216   1.524188   2.180604   2.385195   0.000000
     6  H    2.416092   2.228569   3.046562   3.022464   1.084068
     7  C    3.133727   2.383724   3.164547   1.523800   2.185143
     8  C    3.379020   2.576100   2.744942   3.327583   1.391820
     9  H    2.378013   2.203658   2.950751   1.091206   3.154775
    10  H    2.961590   2.204242   2.385677   1.091034   3.147445
    11  H    4.209869   3.526563   3.798618   4.209032   2.111999
    12  C    4.031353   3.059434   2.797328   3.607806   2.453239
    13  C    4.277251   3.339038   3.821605   2.574414   2.881063
    14  H    3.474082   3.006732   3.960321   2.228739   2.648358
    15  H    3.780655   2.806023   2.221302   3.344678   2.777545
    16  H    5.091715   4.138394   3.824655   4.635916   3.417500
    17  C    4.700048   3.632900   3.716840   3.055132   3.373077
    18  H    5.082339   4.214321   4.774379   3.525627   3.461451
    19  H    4.439158   3.381266   3.232878   2.802847   3.557835
    20  H    5.736212   4.660291   4.670070   4.134473   4.251138
                    6          7          8          9         10
     6  H    0.000000
     7  C    2.653048   0.000000
     8  C    2.116714   2.879722   0.000000
     9  H    3.520041   2.167598   4.282559   0.000000
    10  H    3.960216   2.177532   3.779752   1.750742   0.000000
    11  H    2.378597   3.464794   1.087008   5.098602   4.737973
    12  C    3.393866   3.366760   1.376516   4.681558   3.653926
    13  C    3.502535   1.391841   2.910358   3.373393   2.733708
    14  H    2.677665   1.084069   3.504853   2.426958   3.051773
    15  H    3.829556   3.543652   2.145725   4.402003   3.156821
    16  H    4.251149   4.248225   2.135994   5.717693   4.604917
    17  C    4.250848   2.452964   2.999983   4.017386   2.772281
    18  H    3.853657   2.112205   3.349622   4.208809   3.790880
    19  H    4.551593   2.778274   3.334698   3.761302   2.191712
    20  H    5.086551   3.417031   3.612192   5.077866   3.801782
                   11         12         13         14         15
    11  H    0.000000
    12  C    2.108968   0.000000
    13  C    3.347789   3.001969   0.000000
    14  H    3.864799   4.249244   2.117975   0.000000
    15  H    3.077174   1.079880   3.334470   4.539228   0.000000
    16  H    2.424521   1.081712   3.616322   5.091298   1.828218
    17  C    3.582966   2.443248   1.376815   3.394708   2.578890
    18  H    3.447095   3.592200   1.087004   2.381146   4.148729
    19  H    4.142274   2.572768   2.146132   3.830115   2.238439
    20  H    3.985624   2.884266   2.135917   4.252235   3.150758
                   16         17         18         19         20
    16  H    0.000000
    17  C    2.879929   0.000000
    18  H    4.000884   2.109481   0.000000
    19  H    3.135703   1.079659   3.077335   0.000000
    20  H    2.920855   1.081755   2.424367   1.827976   0.000000
 Symmetry turned off by external request.
 Stoichiometry    C8H12
 Framework group  C1[X(C8H12)]
 Deg. of freedom    54
 Full point group                 C1      NOp   1
 Rotational constants (GHZ):           2.4921820           2.3084540           1.5823841
 Standard basis: def2TZVP (5D, 7F)
 The following finite field(s) will be applied:
 An electric field of             -0.0016 -0.0016  0.0010
   320 basis functions,   504 primitive gaussians,   360 cartesian basis functions
    30 alpha electrons       30 beta electrons
       nuclear repulsion energy       368.1790970337 Hartrees.
 NAtoms=   20 NActive=   20 NUniq=   20 SFac= 1.00D+00 NAtFMM=   60 NAOKFM=F Big=F
 Integral buffers will be    131072 words long.
 Raffenetti 2 integral format.
 Two-electron integral symmetry is turned off.
 One-electron integrals computed using PRISM.
   1 Symmetry operations used in ECPInt.
 ECPInt:  NShTT=    9316 NPrTT=   27240 LenC2=    9238 LenP2D=   22132.
 LDataN:  DoStor=T MaxTD1= 6 Len=  172
 NBasis=   320 RedAO= T EigKep=  2.56D-05  NBF=   320
 NBsUse=   320 1.00D-06 EigRej= -1.00D+00 NBFU=   320
 The nuclear repulsion energy is now       368.6786356472 hartrees.
 Initial guess from the checkpoint file:  "checkpoint.chk"
 B after Tr=     0.005482    0.000450    0.001864
         Rot=    0.999999    0.000072    0.001062   -0.000208 Ang=   0.12 deg.
 Requested convergence on RMS density matrix=1.00D-08 within 128 cycles.
 Requested convergence on MAX density matrix=1.00D-06.
 Requested convergence on             energy=1.00D-06.
 No special actions if energy rises.
 SCF Done:  E(RB3LYP) =  -312.080208493     A.U. after    7 cycles
            NFock=  7  Conv=0.37D-08     -V/T= 2.0056
   1 Symmetry operations used in ECPInt.
 ECPInt:  NShTT=    9316 NPrTT=   27240 LenC2=    9238 LenP2D=   22132.
 LDataN:  DoStor=T MaxTD1= 7 Len=  274
 Calling FoFJK, ICntrl=      2127 FMM=F ISym2X=0 I1Cent= 0 IOpClX= 0 NMat=1 NMatS=1 NMatT=0.
 -------------------------------------------------------------------
 Center     Atomic                   Forces (Hartrees/Bohr)
 Number     Number              X              Y              Z
 -------------------------------------------------------------------
      1        1           0.000145463    0.000067565   -0.000000244
      2        6          -0.000147646    0.000040318    0.000000745
      3        1          -0.000000119   -0.000105960   -0.000000110
      4        6           0.000001202   -0.000000789   -0.000000382
      5        6           0.000000298    0.000001229   -0.000000913
      6        1          -0.000000492    0.000000450    0.000000147
      7        6           0.000002349   -0.000000182   -0.000000644
      8        6          -0.000001358    0.000001487    0.000002706
      9        1          -0.000000019   -0.000000037   -0.000000372
     10        1          -0.000000556   -0.000000828   -0.000000298
     11        1           0.000000100    0.000000019   -0.000000049
     12        6           0.000000786   -0.000001134   -0.000000077
     13        6           0.000000801   -0.000003651   -0.000002678
     14        1           0.000000023   -0.000000050   -0.000000218
     15        1          -0.000000455    0.000000186    0.000000149
     16        1          -0.000000354    0.000000239    0.000000320
     17        6          -0.000001346    0.000001595    0.000000950
     18        1          -0.000000032    0.000000154    0.000000031
     19        1           0.000001178   -0.000000112    0.000000939
     20        1           0.000000177   -0.000000502    0.000000000
 -------------------------------------------------------------------
 Cartesian Forces:  Max     0.000147646 RMS     0.000031737
 -----------------------------------------------------------------------------------------------
                       Internal Coordinate Forces (Hartree/Bohr or radian)
  Cent   Atom   N1       Length/X         N2         Alpha/Y        N3         Beta/Z          J
 -----------------------------------------------------------------------------------------------
      1  H 
      2  C        1   0.000000(     1)
      3  H        2  -0.000000(     2)      1  -0.000000(    20)
      4  C        2  -0.000006(     3)      1   0.000009(    21)      3   0.000009(    38)     0
      5  C        2  -0.000000(     4)      1   0.000008(    22)      3  -0.000010(    39)     0
      6  H        5   0.000000(     5)      2  -0.000000(    23)      1   0.000006(    40)     0
      7  C        4  -0.000002(     6)      2  -0.000017(    24)      1  -0.000006(    41)     0
      8  C        5   0.000002(     7)      2   0.000002(    25)      6   0.000007(    42)     0
      9  H        4   0.000000(     8)      2  -0.000001(    26)      7   0.000000(    43)     0
     10  H        4  -0.000001(     9)      2  -0.000000(    27)      7  -0.000001(    44)     0
     11  H        8  -0.000000(    10)      5   0.000000(    28)      2   0.000001(    45)     0
     12  C        8   0.000000(    11)      5   0.000002(    29)     11   0.000001(    46)     0
     13  C        7  -0.000000(    12)      4   0.000007(    30)      2  -0.000003(    47)     0
     14  H        7   0.000000(    13)      4  -0.000000(    31)     13   0.000000(    48)     0
     15  H       12  -0.000000(    14)      8  -0.000000(    32)      5  -0.000000(    49)     0
     16  H       12   0.000000(    15)      8   0.000000(    33)     15  -0.000001(    50)     0
     17  C       13   0.000001(    16)      7   0.000006(    34)      4   0.000001(    51)     0
     18  H       13  -0.000000(    17)      7   0.000000(    35)     17  -0.000000(    52)     0
     19  H       17   0.000001(    18)     13   0.000003(    36)      7   0.000001(    53)     0
     20  H       17   0.000000(    19)     13   0.000000(    37)     19   0.000001(    54)     0
 -----------------------------------------------------------------------------------------------
 Internal  Forces:  Max     0.000016711 RMS     0.000003991

 GradGradGradGradGradGradGradGradGradGradGradGradGradGradGradGradGradGrad
 Berny optimization.
 Search for a saddle point.
 Step number   3 out of a maximum of   64
 All quantities printed in internal units (Hartrees-Bohrs-Radians)
 Swapping is turned off.
 Update second derivatives using D2CorN and points    1    2    3
 ITU=  0  0  0
     Eigenvalues ---   -0.20165   0.00509   0.01617   0.02364   0.03342
     Eigenvalues ---    0.04292   0.05685   0.06179   0.06902   0.08544
     Eigenvalues ---    0.10488   0.11400   0.11792   0.12391   0.14420
     Eigenvalues ---    0.14661   0.15377   0.16143   0.16927   0.17791
     Eigenvalues ---    0.19849   0.22012   0.22559   0.24198   0.26186
     Eigenvalues ---    0.27551   0.28152   0.29419   0.29651   0.31867
     Eigenvalues ---    0.32974   0.33315   0.33544   0.33660   0.34171
     Eigenvalues ---    0.34643   0.35064   0.35236   0.35465   0.35695
     Eigenvalues ---    0.36052   0.36774   0.36953   0.38373   0.42072
     Eigenvalues ---    0.45612   0.47389   0.50017   0.53212   0.54895
     Eigenvalues ---    0.76173   0.82166   1.86112   3.64280
 Eigenvectors required to have negative eigenvalues:
                          D8        D13       A7        D19       D6
   1                    0.42640  -0.35411   0.25464   0.24844   0.24348
                          R13       R8        D14       D5        R17
   1                   -0.23332  -0.22705   0.22059   0.21995   0.21806
 RFO step:  Lambda0=8.132197693D-11 Lambda= 0.00000000D+00.
 Linear search not attempted -- option 19 set.
 Variable       Old X    -DE/DX   Delta X   Delta X   Delta X     New X
                                 (Linear)    (Quad)   (Total)
    R2        2.06188   0.00000   0.00000  -0.00000  -0.00000   2.06188
    R3        2.06211  -0.00000   0.00000   0.00001   0.00001   2.06212
    R4        2.90864  -0.00001   0.00000  -0.00001  -0.00001   2.90863
    R5        2.88030  -0.00000   0.00000   0.00001   0.00001   2.88031
    R6        2.04859   0.00000   0.00000  -0.00000  -0.00000   2.04859
    R7        2.87956  -0.00000   0.00000  -0.00002  -0.00002   2.87955
    R8        2.63016   0.00000   0.00000  -0.00000  -0.00000   2.63016
    R9        2.06208   0.00000   0.00000   0.00000   0.00000   2.06208
   R10        2.06176  -0.00000   0.00000  -0.00001  -0.00001   2.06175
   R11        2.05415  -0.00000   0.00000   0.00000   0.00000   2.05415
   R12        2.60124   0.00000   0.00000  -0.00000  -0.00000   2.60123
   R13        2.63020  -0.00000   0.00000  -0.00001  -0.00001   2.63019
   R14        2.04859   0.00000   0.00000   0.00000   0.00000   2.04859
   R15        2.04068  -0.00000   0.00000   0.00001   0.00001   2.04068
   R16        2.04414   0.00000   0.00000  -0.00000  -0.00000   2.04414
   R17        2.60180   0.00000   0.00000   0.00001   0.00001   2.60182
   R18        2.05414  -0.00000   0.00000  -0.00000  -0.00000   2.05414
   R19        2.04026   0.00000   0.00000  -0.00000  -0.00000   2.04026
   R20        2.04422   0.00000   0.00000   0.00000   0.00000   2.04422
    A3        1.86345  -0.00000   0.00000   0.00002   0.00002   1.86347
    A4        1.96355   0.00001   0.00000  -0.00006  -0.00006   1.96349
    A5        1.93031   0.00001   0.00000  -0.00008  -0.00008   1.93023
    A6        2.03116  -0.00000   0.00000  -0.00001  -0.00001   2.03115
    A7        1.78368  -0.00002   0.00000  -0.00003  -0.00003   1.78365
    A8        2.16519   0.00000   0.00000   0.00004   0.00004   2.16523
    A9        1.96698  -0.00000   0.00000   0.00004   0.00004   1.96702
   A10        1.96799  -0.00000   0.00000  -0.00004  -0.00004   1.96796
   A11        2.03023   0.00000   0.00000  -0.00001  -0.00001   2.03023
   A12        2.17805   0.00000   0.00000   0.00002   0.00002   2.17806
   A13        2.16320   0.00001   0.00000  -0.00000  -0.00000   2.16320
   A14        2.03194  -0.00000   0.00000  -0.00000  -0.00000   2.03194
   A15        2.11657  -0.00000   0.00000  -0.00002  -0.00002   2.11655
   A16        2.09773   0.00000   0.00000   0.00001   0.00001   2.09774
   A17        2.17718   0.00001   0.00000   0.00001   0.00001   2.17718
   A18        2.03053   0.00000   0.00000  -0.00000  -0.00000   2.03053
   A19        2.11712   0.00000   0.00000   0.00003   0.00003   2.11714
   A20        2.09709   0.00000   0.00000  -0.00002  -0.00002   2.09707
    D4        2.17051   0.00001   0.00000   0.00003   0.00003   2.17054
    D5       -2.12884  -0.00001   0.00000  -0.00003  -0.00003  -2.12887
    D6       -0.35603   0.00001   0.00000   0.00057   0.00057  -0.35547
    D7        2.05327  -0.00001   0.00000  -0.00067  -0.00067   2.05261
    D8        2.81149   0.00001   0.00000  -0.00002  -0.00002   2.81147
    D9       -2.07814   0.00000   0.00000  -0.00007  -0.00007  -2.07820
   D10        2.09540  -0.00000   0.00000  -0.00007  -0.00007   2.09533
   D11       -3.06889   0.00000   0.00000   0.00010   0.00010  -3.06879
   D12       -2.88142   0.00000   0.00000  -0.00002  -0.00002  -2.88144
   D13        1.76073  -0.00000   0.00000   0.00041   0.00041   1.76114
   D14        2.81455   0.00000   0.00000   0.00008   0.00008   2.81463
   D15       -0.44627  -0.00000   0.00000   0.00010   0.00010  -0.44617
   D16       -2.78265  -0.00000   0.00000  -0.00002  -0.00002  -2.78267
   D17       -0.32705   0.00000   0.00000   0.00012   0.00012  -0.32693
   D18       -2.88069  -0.00000   0.00000   0.00000   0.00000  -2.88069
   D19        0.45186   0.00000   0.00000   0.00010   0.00010   0.45196
   D20        2.78179   0.00000   0.00000  -0.00001  -0.00001   2.78178
         Item               Value     Threshold  Converged?
 Maximum Force            0.000017     0.000450     YES
 RMS     Force            0.000004     0.000300     YES
 Maximum Displacement     0.000666     0.001800     YES
 RMS     Displacement     0.000137     0.001200     YES
 Predicted change in Energy=-3.060968D-09
 Optimization completed.
    -- Stationary point found.
                       ----------------------------
                       !   Optimized Parameters   !
                       ! (Angstroms and Degrees)  !
 ----------------------                            ----------------------
 !      Name          Value   Derivative information (Atomic Units)     !
 ------------------------------------------------------------------------
 !       R2          1.0911   -DE/DX =    0.0                           !
 !       R3          1.0912   -DE/DX =    0.0                           !
 !       R4          1.5392   -DE/DX =    0.0                           !
 !       R5          1.5242   -DE/DX =    0.0                           !
 !       R6          1.0841   -DE/DX =    0.0                           !
 !       R7          1.5238   -DE/DX =    0.0                           !
 !       R8          1.3918   -DE/DX =    0.0                           !
 !       R9          1.0912   -DE/DX =    0.0                           !
 !       R10         1.091    -DE/DX =    0.0                           !
 !       R11         1.087    -DE/DX =    0.0                           !
 !       R12         1.3765   -DE/DX =    0.0                           !
 !       R13         1.3918   -DE/DX =    0.0                           !
 !       R14         1.0841   -DE/DX =    0.0                           !
 !       R15         1.0799   -DE/DX =    0.0                           !
 !       R16         1.0817   -DE/DX =    0.0                           !
 !       R17         1.3768   -DE/DX =    0.0                           !
 !       R18         1.087    -DE/DX =    0.0                           !
 !       R19         1.0797   -DE/DX =    0.0                           !
 !       R20         1.0818   -DE/DX =    0.0                           !
 !       A3        106.7679   -DE/DX =    0.0                           !
 !       A4        112.5031   -DE/DX =    0.0                           !
 !       A5        110.5986   -DE/DX =    0.0                           !
 !       A6        116.3768   -DE/DX =    0.0                           !
 !       A7        102.1974   -DE/DX =    0.0                           !
 !       A8        124.0561   -DE/DX =    0.0                           !
 !       A9        112.6996   -DE/DX =    0.0                           !
 !       A10       112.7578   -DE/DX =    0.0                           !
 !       A11       116.3238   -DE/DX =    0.0                           !
 !       A12       124.7928   -DE/DX =    0.0                           !
 !       A13       123.9422   -DE/DX =    0.0                           !
 !       A14       116.4216   -DE/DX =    0.0                           !
 !       A15       121.2706   -DE/DX =    0.0                           !
 !       A16       120.1908   -DE/DX =    0.0                           !
 !       A17       124.743    -DE/DX =    0.0                           !
 !       A18       116.3408   -DE/DX =    0.0                           !
 !       A19       121.3018   -DE/DX =    0.0                           !
 !       A20       120.1544   -DE/DX =    0.0                           !
 !       D4        124.361    -DE/DX =    0.0                           !
 !       D5       -121.9737   -DE/DX =    0.0                           !
 !       D6        -20.3991   -DE/DX =    0.0                           !
 !       D7        117.644    -DE/DX =    0.0                           !
 !       D8        161.0865   -DE/DX =    0.0                           !
 !       D9       -119.0684   -DE/DX =    0.0                           !
 !       D10       120.0575   -DE/DX =    0.0                           !
 !       D11      -175.8344   -DE/DX =    0.0                           !
 !       D12      -165.0933   -DE/DX =    0.0                           !
 !       D13       100.8827   -DE/DX =    0.0                           !
 !       D14       161.2618   -DE/DX =    0.0                           !
 !       D15       -25.5692   -DE/DX =    0.0                           !
 !       D16      -159.4339   -DE/DX =    0.0                           !
 !       D17       -18.7386   -DE/DX =    0.0                           !
 !       D18      -165.0516   -DE/DX =    0.0                           !
 !       D19        25.8898   -DE/DX =    0.0                           !
 !       D20       159.385    -DE/DX =    0.0                           !
 ------------------------------------------------------------------------
 GradGradGradGradGradGradGradGradGradGradGradGradGradGradGradGradGradGrad

 ---------------------------------------------------------------------------------------------------
                            Z-MATRIX (ANGSTROMS AND DEGREES)
   CD    Cent   Atom    N1       Length/X        N2       Alpha/Y        N3        Beta/Z          J
 ---------------------------------------------------------------------------------------------------
      1      1  H 
      2      2  C        1   1.091101(     1)
      3      3  H        2   1.091224(     2)      1  106.768(    20)
      4      4  C        2   1.539186(     3)      1  112.503(    21)      3  124.361(    38)      0
      5      5  C        2   1.524188(     4)      1  110.599(    22)      3 -121.974(    39)      0
      6      6  H        5   1.084068(     5)      2  116.377(    23)      1  -20.399(    40)      0
      7      7  C        4   1.523800(     6)      2  102.197(    24)      1  117.644(    41)      0
      8      8  C        5   1.391820(     7)      2  124.056(    25)      6  161.086(    42)      0
      9      9  H        4   1.091206(     8)      2  112.700(    26)      7 -119.068(    43)      0
     10     10  H        4   1.091034(     9)      2  112.758(    27)      7  120.058(    44)      0
     11     11  H        8   1.087008(    10)      5  116.324(    28)      2 -175.834(    45)      0
[...]
 0.00228520,0.00846036,-0.01287658,0.01631634,0.00060187,0.00013010,0.0
 0036841,-0.00633126,-0.00300899,0.00520298,-0.07518091,-0.01819225,-0.
 06661839,-0.00733747,0.01369806,-0.01447365,-0.01765165,0.03428971,0.0
 2425671,0.43763673,-0.00059915,-0.00267061,0.00030611,0.00800294,-0.01
 197413,0.01678341,0.00054404,0.00131025,0.00002526,0.00009498,-0.00070
 975,0.00003909,0.01127346,-0.15618326,0.13577431,-0.00620094,0.0098821
 1,-0.01308152,0.00571500,-0.01530746,-0.00814837,0.19616261,0.52766240
 ,-0.00082578,-0.00019911,0.00054859,-0.00266117,0.00498874,-0.00198852
 ,-0.00271118,-0.00086854,0.00071214,-0.00749990,-0.00341980,0.00382565
 ,-0.04249262,0.08228234,-0.25631724,-0.01043961,0.01705169,-0.01104768
 ,-0.01435357,0.03976227,0.03600074,0.18519812,-0.12279088,0.54653661,0
 .00162924,-0.00080689,-0.00002261,-0.00804048,0.00840347,-0.01173018,-
 0.00099669,0.00251158,0.00097624,-0.08720427,0.05862816,-0.07417324,-0
 .00076200,-0.00068512,-0.00001187,0.00019979,0.00010083,-0.00013197,0.
 00971240,-0.01426481,0.02260927,0.00006432,0.00047819,-0.00059705,0.09
 359744,-0.00041895,0.00189930,0.00023267,0.00941610,-0.01250206,0.0146
 4922,0.00072429,-0.00235844,-0.00047078,0.05816457,-0.13603843,0.10792
 014,0.00173642,-0.00331102,-0.00092025,-0.00005178,-0.00055134,0.00000
 989,0.00373975,-0.00708641,0.01175783,-0.00127276,-0.00015469,-0.00083
 148,-0.06421270,0.14715965,0.00001563,0.00046463,0.00180020,0.00634245
 ,-0.00959114,0.00986284,0.00130715,-0.00139110,0.00010012,-0.07348572,
 0.10923435,-0.17978837,0.00119584,-0.00057234,-0.00049272,-0.00016498,
 -0.00006080,0.00013410,-0.00644523,0.00788347,-0.01330253,-0.00028921,
 -0.00038034,0.00049293,0.07620443,-0.11801311,0.19439111,-0.00073983,0
 .00227080,0.00150613,0.00966753,0.01151350,0.01255779,0.00171170,-0.00
 068353,0.00000930,-0.12587592,-0.08201671,-0.08829556,-0.00101714,0.00
 037753,0.00119637,0.00025728,0.00015832,-0.00014861,-0.01706770,-0.012
 03315,-0.01441984,0.00026819,0.00037164,-0.00003915,-0.00679963,-0.006
 74656,-0.00763880,0.13897234,0.00072164,-0.00241689,-0.00058236,-0.011
 12186,-0.01203741,-0.01417430,-0.00048245,0.00195408,0.00034194,-0.081
 57590,-0.13032074,-0.08837450,0.00219917,-0.00311954,0.00019256,-0.000
 23214,-0.00008900,0.00016484,-0.00906648,-0.00648329,-0.00648270,-0.00
 105577,-0.00022840,-0.00131156,0.01096936,0.01244150,0.01144280,0.0883
 2596,0.14047081,0.00114642,-0.00205780,-0.00020643,-0.00600941,-0.0048
 1250,-0.00847770,-0.00002324,0.00056147,0.00161975,-0.08863130,-0.0892
 3050,-0.14578105,-0.00011528,0.00025421,-0.00033386,-0.00007089,-0.000
 16984,0.00002916,0.01015055,0.00828878,0.01293997,-0.00007788,-0.00022
 750,-0.00009175,-0.01324745,-0.01311029,-0.01401252,0.09504929,0.09778
 229,0.15669630,0.00047396,0.00059320,-0.00018745,0.00273525,-0.0013412
 4,-0.00334726,0.00010652,0.00031794,-0.00031276,-0.00009182,-0.0011933
 9,0.00012492,0.00644037,0.00857857,-0.00439340,-0.00130311,0.00178956,
 0.00154650,-0.00004886,-0.00061514,0.00016728,-0.12721798,-0.12578110,
 0.02592954,0.00003861,-0.00021266,-0.00004424,0.00001381,-0.00010581,0
 .00002106,0.12918638,-0.00052794,-0.00113230,0.00029709,-0.00017999,0.
 00283432,0.00387042,-0.00000331,0.00001238,-0.00007439,-0.00001387,0.0
 0093533,-0.00006748,-0.01115259,-0.01419517,0.00536262,0.00246990,-0.0
 0026428,-0.00112736,0.00016802,0.00069286,0.00018261,-0.12139044,-0.22
 289419,0.04815984,0.00003058,0.00011514,0.00001756,-0.00000529,0.00006
 950,-0.00002105,0.13834683,0.23741379,0.00007794,0.00047718,-0.0002934
 4,-0.00510124,0.00237225,-0.00061727,-0.00001256,-0.00049698,0.0003430
 4,0.00016410,0.00095311,-0.00019372,0.01655968,0.02180681,-0.00520824,
 0.00199064,-0.00160570,-0.00034995,-0.00000013,0.00115233,0.00068233,0
 .02522634,0.05187321,-0.06545237,-0.00016128,0.00020353,0.00015017,-0.
 00014973,0.00019813,0.00008041,-0.02098556,-0.05788169,0.06554728,-0.0
 0037403,-0.00030851,-0.00024309,-0.00101477,0.00220285,-0.00050506,-0.
 00004256,0.00001703,0.00104487,0.00221762,0.00053378,-0.00131156,-0.01
 103665,0.01137943,-0.01719329,0.00409375,-0.00157587,-0.00217239,0.000
 70722,-0.00597537,0.00111068,-0.20883223,-0.09620036,-0.14563452,0.000
 14406,0.00025569,-0.00006528,0.00028496,0.00012815,-0.00010422,-0.0103
 5439,-0.00751981,-0.01561600,0.46436529,0.00053524,0.00016290,-0.00031
 537,0.00279128,0.00272569,-0.00149674,0.00077553,0.00035042,0.00002486
 ,0.00439683,0.00165679,-0.00265599,-0.01312890,0.04137506,-0.00121711,
 0.00262887,-0.00166006,0.00344944,0.01084093,-0.02054287,-0.02865366,-
 0.06798408,-0.12454966,-0.01059256,0.00020778,0.00056271,-0.00011816,-
 0.00009173,0.00050072,-0.00017648,-0.01816672,-0.00648074,-0.01831959,
 0.22589483,0.42166557,0.00002262,-0.00006216,-0.00010478,0.00382777,0.
 00088633,-0.00192748,0.00047498,0.00045022,-0.00132670,0.00390718,0.00
 116548,-0.00162709,-0.05273821,0.02988772,-0.03780611,-0.00052841,0.00
 235680,-0.00313990,0.00678572,-0.02478773,-0.03043141,-0.13493838,-0.0
 5923431,-0.19931332,0.00047463,0.00037476,-0.00015191,0.00016543,0.000
 94466,-0.00024709,0.00451412,0.00357036,0.00741155,0.20023715,-0.16747
 718,0.53907830,-0.00074237,0.00041833,0.00049085,-0.00374501,-0.006207
 20,0.00227674,-0.00089934,0.00071503,0.00069835,0.00081929,-0.00191260
 ,0.02595704,0.01775183,-0.01992490,-0.00067929,-0.00114330,0.00090831,
 0.00079628,-0.10772033,-0.00555768,0.02812748,-0.01515031,0.00746975,-
 0.02162602,-0.00340685,-0.00187960,0.00228740,0.00064860,-0.00063063,-
 0.00033779,-0.00022035,-0.00005830,-0.00025476,-0.00735587,0.02487446,
 0.02173568,0.63675679,-0.00047611,0.00057771,0.00010861,0.00006983,-0.
 00174033,0.00128574,0.00005457,0.00017427,0.00017599,-0.00152831,0.000
 95714,0.01751731,0.00307541,-0.00701647,-0.00665961,0.00108479,-0.0004
 2571,-0.00061109,-0.01884816,-0.06534159,0.05700311,0.01192836,-0.0054
 4199,-0.00454173,-0.00201118,-0.00189597,0.00155268,0.00111623,0.00152
 168,0.00044632,-0.00063510,0.00046182,0.00033546,0.00553949,-0.0095064
 7,-0.00554226,0.15583899,0.23295268,-0.00084777,-0.00063231,0.00061801
 ,-0.00432377,-0.00862464,0.00213592,-0.00111015,0.00007075,0.00073834,
 0.00140523,-0.00067314,-0.00698021,0.04823254,-0.04787700,-0.00813192,
 -0.00331944,0.00198815,0.00212106,-0.02713183,0.08840851,-0.31397217,-
 0.02453631,0.00195980,-0.04326799,-0.00030590,-0.00188926,0.00025372,-
 0.00171764,-0.00164321,0.00025904,0.00019585,-0.00004954,-0.00061036,-
 0.00579398,0.03558777,0.03028455,0.04703365,-0.09830977,0.64103036,-0.
 00033992,0.00019847,0.00026857,-0.00026096,-0.00085886,0.00062027,-0.0
 0007231,0.00026104,0.00003919,-0.01374045,-0.00214499,-0.00998195,-0.0
 0259267,0.00095905,-0.00107849,0.00068095,0.00039296,0.00008630,-0.268
 15034,-0.02948054,-0.12146840,0.00053311,-0.00009576,0.00098492,0.0015
 9174,-0.00025177,0.00019434,-0.00189649,-0.00011829,0.00241878,-0.0000
 1708,0.00009768,-0.00001985,-0.00017063,-0.00043105,-0.00062089,0.0032
 1036,-0.00102641,0.00441666,0.27961900,0.00006061,0.00027969,-0.000064
 49,-0.00092297,-0.00077535,-0.00039305,-0.00011256,0.00028709,0.000225
 15,-0.01373325,-0.00066285,-0.00715600,0.00874196,-0.00543223,0.004054
 08,-0.00083959,0.00071229,0.00053729,-0.02580469,-0.03355462,0.0013275
 6,-0.00130517,0.00089668,-0.00439413,0.00030171,0.00133722,-0.00061900
 ,-0.00306806,-0.00170035,0.00113857,-0.00000219,-0.00014175,-0.0000894
 1,0.00039558,0.00205000,0.00330384,-0.00106351,0.00269010,-0.00402138,
 0.03168123,0.03392911,0.00023495,-0.00013524,-0.00014602,0.00003772,0.
 00060192,-0.00054165,0.00003892,-0.00012838,-0.00002899,0.01396865,0.0
 0257004,0.00765291,0.00243768,-0.00151884,0.00084628,-0.00003688,-0.00
 014424,0.00063108,-0.11292273,-0.00507508,-0.11166175,-0.00034149,0.00
 016060,-0.00095331,-0.00050532,-0.00008551,0.00136107,0.00221546,0.000
 55552,-0.00121470,0.00004395,-0.00004619,-0.00005787,0.00032650,0.0003
 0134,0.00069663,-0.03181533,-0.00177265,-0.01434031,0.12425495,0.00411
 725,0.12267096,0.00048114,-0.00000261,0.00006697,-0.00045100,0.0009813
 1,0.00042813,0.00077789,0.00001098,-0.00018864,0.00016003,0.00039916,-
 0.00051444,-0.00319029,0.00331738,0.00129185,0.00040217,0.00004860,-0.
 00010021,0.00026278,-0.00187637,-0.00316855,-0.00649026,-0.01429369,0.
 01080227,0.00013446,0.00016075,0.00006239,0.00004131,0.00037100,-0.000
 04975,0.00174323,-0.00275091,-0.00423754,-0.17785702,-0.15323576,0.026
 24590,0.00244276,-0.00019980,0.00315726,0.00002460,0.00033785,0.000079
 29,0.18207021,0.00024951,0.00002362,0.00019690,0.00077192,-0.00015474,
 0.00098530,0.00006842,0.00026289,0.00011814,-0.00032397,-0.00000149,0.
 00045582,0.00504101,-0.00512381,0.00069468,-0.00039199,0.00016149,-0.0
 0008016,-0.00071476,0.00155151,0.00340618,-0.01126919,-0.00567475,-0.0
 0363021,-0.00007644,-0.00010332,0.00003230,-0.00017945,-0.00028862,-0.
 00010016,-0.00440026,0.00309214,0.00039029,-0.14469521,-0.18194755,0.0
 5402071,-0.00225201,0.00058353,-0.00379911,0.00001687,-0.00032348,-0.0
 0004753,0.15904666,0.20062877,0.00013191,-0.00008465,0.00015601,-0.001
 22024,-0.00023500,-0.00055464,0.00021784,0.00081068,-0.00137501,-0.000
 02320,-0.00002409,0.00049286,0.00294820,-0.00226389,-0.00005922,0.0004
 9376,-0.00013239,-0.00013965,-0.00030514,0.00083126,0.00176726,-0.0169
 5606,-0.01708099,0.00718072,0.00005304,-0.00012160,-0.00005047,-0.0000
 5340,0.00002008,0.00001906,-0.00519624,0.00007038,-0.00138202,0.034404
 34,0.05568723,-0.06065470,-0.00147543,0.00024273,-0.00169544,0.0000429
 9,-0.00015248,-0.00006580,-0.03406781,-0.05107886,0.05998462,0.0003625
 4,0.00002776,0.00010706,-0.00008058,-0.00012341,0.00028017,0.00041357,
 0.00013304,-0.00031554,-0.00007384,-0.00000786,0.00013316,-0.00056502,
 -0.00260680,-0.00459206,-0.00009288,0.00049337,-0.00120545,0.00005719,
 -0.00141723,-0.00120998,0.00018683,0.01250902,-0.01325103,0.00009858,0
 .00002683,0.00000188,-0.00000940,0.00015260,-0.00006586,-0.00165379,0.
 00233517,0.00193495,-0.05359487,0.01565412,-0.05067846,0.00092655,0.00
 039867,0.00117497,-0.00001685,0.00012284,0.00002114,0.00610048,-0.0110
 7610,0.01611022,0.04992755,0.00015697,0.00005777,-0.00000261,-0.000716
 06,-0.00002445,0.00007350,0.00044935,0.00003873,0.00020005,0.00005179,
 0.00011190,-0.00011481,-0.00342075,0.00055287,0.00065972,-0.00014587,0
 .00003001,-0.00031571,0.00013109,0.00023367,0.00022852,-0.00494290,0.0
 0987814,-0.01256327,0.00000643,-0.00001166,0.00000243,-0.00000134,0.00
 005911,0.00005696,0.00268124,-0.00069397,-0.00126675,0.01894816,-0.138
 42331,0.14377904,-0.00014744,-0.00008711,-0.00016987,0.00006270,-0.000
 02145,-0.00003349,0.00506024,-0.00853944,0.01534497,-0.01891276,0.1387
 1201,-0.00009511,0.00004821,-0.00007475,-0.00042084,-0.00035824,0.0002
 0590,-0.00002105,-0.00009632,0.00037090,0.00003931,-0.00004260,-0.0001
 2640,-0.00323436,-0.00252155,0.00036623,-0.00043592,0.00063182,-0.0005
 9342,0.00011882,0.00066974,0.00097350,-0.00344060,0.01550245,-0.015732
 84,-0.00006518,0.00000861,-0.00000215,0.00000107,-0.00004055,0.0000618
 0,0.00192881,-0.00185777,-0.00014232,-0.04659317,0.13567161,-0.2314905
 6,-0.00072497,-0.00020956,-0.00082840,0.00004777,-0.00011105,-0.000024
 65,-0.00186155,0.00180310,-0.00245299,0.05330315,-0.14708987,0.2475773
 9,0.00063366,0.00031736,-0.00036553,0.00305060,0.00643737,-0.00111755,
 0.00068524,0.00010155,-0.00071564,0.00343619,0.00330578,-0.00245245,-0
 .03215481,0.03400193,-0.00396332,0.00249765,-0.00141971,-0.00157994,0.
 01579713,-0.02387589,-0.05968723,0.02050014,0.00053168,0.04213573,-0.0
 0001724,0.00053052,-0.00016746,0.00069603,0.00054001,0.00008271,0.0000
 2581,-0.00012098,0.00067699,0.00064705,-0.04071670,-0.03312568,-0.2787
 2078,-0.04856515,-0.09398470,0.00093725,0.00287654,0.00260675,-0.00740
 626,0.00797810,0.00452055,-0.00218964,0.00019127,0.00155756,0.56689907
 ,-0.00010550,-0.00015661,0.00002839,-0.00071331,-0.00097346,0.00011154
 ,-0.00031545,0.00012978,0.00035499,-0.00055161,-0.00341325,-0.00116867
 ,0.01683494,-0.01876555,0.00722059,-0.00144862,0.00063491,0.00105016,0
 .00173514,0.01640839,0.02292495,-0.01321541,-0.00407485,-0.03363779,-0
 .00043585,-0.00025572,-0.00009821,0.00022764,-0.00119012,0.00123087,-0
 .00041525,0.00048608,-0.00001595,-0.00861639,0.02351930,0.02500796,-0.
 05518058,-0.06024441,-0.01995196,-0.00072084,0.00325558,0.00226379,0.0
 0199441,-0.00445681,-0.00145509,0.00235924,-0.00197990,-0.00216179,0.2
 2329098,0.21853036,0.00012917,0.00024799,0.00002962,0.00054833,0.00103
 378,0.00026960,0.00044297,0.00024030,-0.00022819,0.00002240,0.00113839
 ,-0.00029128,-0.00950899,0.00373013,0.00080443,0.00116986,-0.00069878,
 -0.00056017,-0.02609585,-0.00955441,-0.04000002,0.00201518,-0.00123863
 ,-0.00307714,-0.00043207,-0.00030556,-0.00005769,-0.00022303,0.0001811
 3,-0.00066102,0.00000543,-0.00022204,0.00001831,-0.00240383,0.00380715
 ,-0.00669727,-0.14797319,-0.00133477,-0.19319032,-0.00040214,0.0023943
 8,-0.00486195,0.00199298,-0.00209346,-0.00161486,-0.00205116,0.0015795
 9,0.00157715,0.09257347,-0.11633624,0.63912172,0.00007023,-0.00005433,
 -0.00001636,0.00047993,-0.00004850,-0.00038318,0.00005249,-0.00007840,
 -0.00005892,0.00228836,-0.00203577,-0.00081875,0.00086818,-0.00032039,
 -0.00002612,-0.00011363,0.00010193,0.00008516,0.00081116,-0.00018400,0
 .00007797,-0.00001588,-0.00013161,-0.00039545,-0.00046175,-0.00010373,
 0.00023542,-0.00002992,0.00008049,-0.00002001,-0.00003259,0.00033923,0
 .00010043,0.00015678,0.00022279,-0.00015305,-0.22791295,-0.09634692,0.
 08101186,0.00075595,0.00200363,0.00066016,0.00013207,-0.00012742,-0.00
 009371,-0.00007729,0.00007075,0.00002305,-0.02060660,-0.01467144,0.010
 30138,0.24481075,-0.00022476,0.00020652,0.00013538,-0.00135667,0.00001
 628,0.00100288,-0.00014210,0.00014634,0.00016022,-0.00122642,0.0063567
 4,0.00152906,-0.00122056,0.00035620,0.00048908,0.00008695,-0.00007259,
 0.00000179,-0.00431217,-0.00076921,-0.00031824,-0.00039664,-0.00018701
 ,0.00085290,0.00052885,0.00029560,-0.00009352,0.00028835,0.00023223,-0
 .00056037,0.00040579,-0.00025516,-0.00025056,-0.00044573,-0.00028764,0
 .00007434,-0.10056051,-0.09264625,0.05138694,0.00144512,-0.00337356,-0
 .00120979,0.00007495,0.00029839,0.00001152,0.00000262,-0.00000802,-0.0
 0003629,-0.00234889,0.00259724,0.00160619,0.11038317,0.08491269,-0.000
 02288,-0.00013594,0.00001130,-0.00021867,0.00017131,0.00016761,0.00003
 343,-0.00014138,-0.00001509,-0.00295044,0.00037001,-0.00364116,0.00025
 607,-0.00037774,0.00019045,-0.00001695,-0.00007338,-0.00004033,0.02784
 475,0.01734904,-0.01308805,-0.00043983,0.00002959,-0.00016860,0.001046
 86,0.00048487,-0.00078699,-0.00011789,-0.00002906,0.00027347,0.0001238
 6,-0.00022834,0.00000885,-0.00007456,0.00043359,0.00057256,0.08147328,
 0.04731765,-0.09495861,-0.00006422,-0.00091043,0.00070959,0.00012302,-
 0.00002962,-0.00012876,0.00001969,-0.00000922,-0.00002702,-0.01660607,
 -0.00933659,0.00867966,-0.08708952,-0.05498410,0.10232939,-0.00002811,
 0.00001384,0.00005792,0.00013271,-0.00035051,0.00002352,-0.00017946,-0
 .00005345,-0.00004835,0.00044927,-0.00049432,0.00044569,0.00123525,-0.
 00186137,0.00082828,-0.00013310,0.00007671,0.00009486,-0.00086236,0.00
 306886,0.00445276,-0.00119992,0.00017976,-0.00256901,0.00029784,0.0002
 1556,0.00038236,0.00050640,0.00057361,-0.00043877,0.00017917,-0.000100
 58,-0.00021304,-0.00112350,0.00552794,0.00294697,-0.02046474,-0.014821
 19,0.00543391,0.00004209,0.00009866,-0.00016995,0.00067868,0.00212032,
 0.00026913,-0.00006455,0.00028501,-0.00001110,-0.22236168,-0.13474095,
 0.05762992,-0.00181784,-0.00294492,-0.00418939,0.24382903,0.00022292,-
 0.00001595,-0.00004051,0.00010714,0.00053198,-0.00064733,0.00028250,0.
 00004653,-0.00018110,0.00111674,-0.00034890,-0.00006162,-0.00330045,0.
 00320844,-0.00150025,0.00036695,-0.00013130,-0.00015364,0.00197698,-0.
 00544952,-0.00412176,0.00276005,0.00031765,0.00450151,0.00013859,0.000
 27640,0.00006689,0.00009524,0.00014096,0.00103947,0.00016354,0.0000410
 2,0.00019511,-0.00047737,-0.01020212,-0.00378576,0.00414999,0.00217162
 ,0.00685469,0.00012452,0.00006084,-0.00000034,0.00015617,0.00025889,-0
 .00017250,0.00032245,-0.00027301,-0.00024805,-0.14639262,-0.12121868,0
 .04893828,-0.00105265,0.00599931,0.00162836,0.14326242,0.12595736,0.00
 005535,0.00012894,0.00002184,0.00027244,0.00017617,-0.00001487,0.00029
 248,-0.00001451,-0.00010553,-0.00077292,-0.00069834,-0.00149796,-0.001
 54621,0.00156536,-0.00071713,0.00018178,-0.00001102,-0.00009873,0.0012
 4682,-0.00217232,-0.00235217,0.00124271,-0.00022748,0.00220812,0.00001
 941,0.00011630,0.00012013,0.00017341,0.00090825,-0.00095151,-0.0000874
 1,0.00008295,0.00008150,0.00035576,-0.00432719,-0.00248262,-0.01105326
 ,-0.01117202,0.01336942,0.00014475,0.00071395,0.00033027,-0.00011320,-
 0.00099344,0.00061262,0.00016749,-0.00006887,0.00002309,0.05511241,0.0
 5158206,-0.07693030,-0.00363888,0.00164423,-0.00078267,-0.06398855,-0.
 05288999,0.07358243,0.00000665,0.00001843,0.00000899,0.00006616,0.0000
 5699,-0.00006815,0.00008564,-0.00003711,-0.00003253,-0.00042679,-0.000
 76400,0.00000146,-0.00007579,0.00017881,0.00017774,0.00000970,0.000067
 77,0.00000813,-0.00372177,-0.00246306,-0.00177052,0.00006694,-0.000030
 46,0.00004546,0.00018044,0.00018000,0.00007163,0.00036788,0.00032735,0
 .00032303,-0.00000316,0.00003662,0.00002063,-0.00086022,-0.00059568,0.
 00144494,0.00492600,0.00535201,-0.02899044,-0.00013733,0.00023140,-0.0
 0113440,-0.00005699,0.00021399,0.00019927,0.00034545,0.00019212,-0.000
 11571,-0.05234882,-0.01531115,0.02225915,0.00064257,0.00196358,0.00086
 945,0.00088484,-0.00402310,0.02193560,0.05004860,0.00006040,0.00009414
 ,0.00003321,0.00001682,-0.00018626,0.00009163,0.00005515,0.00003078,-0
 .00013575,0.00022146,0.00013905,0.00012756,-0.00181656,0.00103910,-0.0
 0022888,0.00012313,-0.00008827,-0.00008713,-0.00138254,0.00398565,-0.0
 0163613,0.00140706,0.00010352,0.00118178,0.00018747,0.00018153,0.00024
 061,0.00008061,0.00048377,-0.00033246,-0.00000779,-0.00009682,-0.00003
 080,0.00051963,-0.00096875,-0.00493279,0.00100008,0.00225573,0.0013845
 7,-0.00011112,0.00048704,-0.00037314,0.00039968,-0.00024724,-0.0002173
 0,-0.00039360,0.00038810,0.00043809,-0.01666316,-0.04883229,0.06688659
 ,0.00195317,-0.00381810,-0.00152861,-0.00005539,-0.00137153,0.01565699
 ,0.01440551,0.04642083,0.00001344,-0.00001220,-0.00001863,-0.00009423,
 -0.00002107,0.00005416,-0.00000449,0.00000331,-0.00000781,-0.00013833,
 -0.00002228,0.00035909,-0.00011099,-0.00000189,0.00020584,-0.00001328,
 -0.00000990,0.00001346,-0.00362025,0.00115075,0.00010644,-0.00000018,-
 0.00004380,-0.00009473,0.00000022,-0.00000998,-0.00002103,-0.00007059,
 -0.00009395,-0.00000134,-0.00004703,-0.00003798,-0.00001588,0.00023163
 ,0.00038706,-0.00064264,0.00506329,0.00416788,-0.01283468,0.00011645,0
 .00009936,-0.00100181,0.00005163,-0.00025087,-0.00003958,0.00011566,-0
 .00029031,0.00033955,0.01449941,0.07238701,-0.32233027,0.00019852,-0.0
 0144163,0.00069438,-0.00093717,0.00057853,-0.00441594,-0.01525372,-0.0
 7653802,0.33965143\\-0.00014546,-0.00006755,0.00000028,0.00014765,-0.0
 0004039,-0.00000075,0.00000008,0.00010597,0.00000010,-0.00000115,0.000
 00077,0.00000033,-0.00000025,-0.00000136,0.00000090,0.00000056,-0.0000
 0039,-0.00000008,-0.00000226,0.00000010,0.00000054,0.00000127,-0.00000
 134,-0.00000265,0.,0.00000005,0.00000036,0.00000057,0.00000085,0.00000
 033,-0.00000006,0.00000004,0.00000005,-0.00000077,0.00000104,-0.000000
 04,-0.00000092,0.00000377,0.00000275,-0.00000010,0.00000005,0.00000019
 ,0.00000042,-0.00000021,-0.00000013,0.00000035,-0.00000020,-0.00000036
 ,0.00000142,-0.00000169,-0.00000093,-0.00000002,-0.00000017,0.,-0.0000
 0111,0.00000017,-0.00000097,-0.00000019,0.00000049,0.00000008\\\@


 TOWERING GENIUS DISDAINS A BEATEN PATH.  IT SEEKS 
 REGIONS HITHERTO UNEXPLORED.

                                -- ABRAHAM LINCOLN
 Job cpu time:       0 days  1 hours 53 minutes 11.0 seconds.
 Elapsed time:       0 days  0 hours  9 minutes 26.8 seconds.
 File lengths (MBytes):  RWF=    163 Int=      0 D2E=      0 Chk=     32 Scr=      1
 Normal termination of Gaussian 16 at Fri Jun 10 22:45:46 2022.
