 Entering Gaussian System, Link 0=g16
 Input=int_zmat_field_N75.gjf
 Output=int_zmat_field_N75.out
 Initial command:
 /software/gaussian/g16-a03/l1.exe "/local_scratch/9923038/Gau-17262.inp" -scrdir="/local_scratch/9923038/"
 Entering Link 1 = /software/gaussian/g16-a03/l1.exe PID=     17263.
  
 Copyright (c) 1988,1990,1992,1993,1995,1998,2003,2009,2016,
            Gaussian, Inc.  All Rights Reserved.
  
 This is part of the Gaussian(R) 16 program.  It is based on
 the Gaussian(R) 09 system (copyright 2009, Gaussian, Inc.),
 the Gaussian(R) 03 system (copyright 2003, Gaussian, Inc.),
 the Gaussian(R) 98 system (copyright 1998, Gaussian, Inc.),
 the Gaussian(R) 94 system (copyright 1995, Gaussian, Inc.),
 the Gaussian 92(TM) system (copyright 1992, Gaussian, Inc.),
 the Gaussian 90(TM) system (copyright 1990, Gaussian, Inc.),
 the Gaussian 88(TM) system (copyright 1988, Gaussian, Inc.),
 the Gaussian 86(TM) system (copyright 1986, Carnegie Mellon
 University), and the Gaussian 82(TM) system (copyright 1983,
 Carnegie Mellon University). Gaussian is a federally registered
 trademark of Gaussian, Inc.
  
 This software contains proprietary and confidential information,
 including trade secrets, belonging to Gaussian, Inc.
  
 This software is provided under written license and may be
 used, copied, transmitted, or stored only in accord with that
 written license.
  
 The following legend is applicable only to US Government
 contracts under FAR:
  
                    RESTRICTED RIGHTS LEGEND
  
 Use, reproduction and disclosure by the US Government is
 subject to restrictions as set forth in subparagraphs (a)
 and (c) of the Commercial Computer Software - Restricted
 Rights clause in FAR 52.227-19.
  
 Gaussian, Inc.
 340 Quinnipiac St., Bldg. 40, Wallingford CT 06492
  
  
 ---------------------------------------------------------------
 Warning -- This program may not be used in any manner that
 competes with the business of Gaussian, Inc. or will provide
 assistance to any competitor of Gaussian, Inc.  The licensee
 of this program is prohibited from giving any competitor of
 Gaussian, Inc. access to this program.  By using this program,
 the user acknowledges that Gaussian, Inc. is engaged in the
 business of creating and licensing software in the field of
 computational chemistry and represents and warrants to the
 licensee that it is not a competitor of Gaussian, Inc. and that
 it will not use this program in any manner prohibited above.
 ---------------------------------------------------------------
  

 Cite this work as:
 Gaussian 16, Revision A.03,
 M. J. Frisch, G. W. Trucks, H. B. Schlegel, G. E. Scuseria, 
 M. A. Robb, J. R. Cheeseman, G. Scalmani, V. Barone, 
 G. A. Petersson, H. Nakatsuji, X. Li, M. Caricato, A. V. Marenich, 
 J. Bloino, B. G. Janesko, R. Gomperts, B. Mennucci, H. P. Hratchian, 
 J. V. Ortiz, A. F. Izmaylov, J. L. Sonnenberg, D. Williams-Young, 
 F. Ding, F. Lipparini, F. Egidi, J. Goings, B. Peng, A. Petrone, 
 T. Henderson, D. Ranasinghe, V. G. Zakrzewski, J. Gao, N. Rega, 
 G. Zheng, W. Liang, M. Hada, M. Ehara, K. Toyota, R. Fukuda, 
 J. Hasegawa, M. Ishida, T. Nakajima, Y. Honda, O. Kitao, H. Nakai, 
 T. Vreven, K. Throssell, J. A. Montgomery, Jr., J. E. Peralta, 
 F. Ogliaro, M. J. Bearpark, J. J. Heyd, E. N. Brothers, K. N. Kudin, 
 V. N. Staroverov, T. A. Keith, R. Kobayashi, J. Normand, 
 K. Raghavachari, A. P. Rendell, J. C. Burant, S. S. Iyengar, 
 J. Tomasi, M. Cossi, J. M. Millam, M. Klene, C. Adamo, R. Cammi, 
 J. W. Ochterski, R. L. Martin, K. Morokuma, O. Farkas, 
 J. B. Foresman, and D. J. Fox, Gaussian, Inc., Wallingford CT, 2016.
 
 ******************************************
 Gaussian 16:  ES64L-G16RevA.03 25-Dec-2016
                21-Mar-2022 
 ******************************************
 %nprocshared=12
 Will use up to   12 processors via shared memory.
 %chk=checkpoint.chk
 %mem=12GB
 ----------------------------------------------------------------------
 # Opt=(Z-matrix, MaxStep=10) B3LYP/Def2TZVP geom=allcheckpoint guess=r
 ead Field=read NoSymm
 ----------------------------------------------------------------------
 1/8=10,10=7,18=40,26=3,29=7,38=1/1,3;
 2/12=2,15=1,29=3,40=1/2;
 3/5=44,7=101,11=2,14=-6,25=1,30=1,71=1,74=-5,116=-2/1,2,3;
 4/5=1/1;
 5/5=2,38=6/2;
 6/7=2,8=2,9=2,10=2,28=1/1;
 7/29=1,30=1/1,2,3,16;
 1/8=10,10=7,18=40,26=3/3(2);
 2/15=1,29=3/2;
 99//99;
 2/15=1,29=3/2;
 3/5=44,7=101,11=2,14=-2,25=1,30=1,71=1,74=-5/1,2,3;
 4/5=5,16=3,69=1/1;
 5/5=2,38=5/2;
 7/30=1/1,2,3,16;
 1/8=10,18=40,26=3/3(-5);
 2/15=1,29=3/2;
 6/7=2,8=2,9=2,10=2,19=2,28=1/1;
 99/9=1/99;
 Structure from the checkpoint file:  "checkpoint.chk"
 ------------------
 int_zmat_initalOpt
 ------------------
 Charge =  0 Multiplicity = 1
 Z-Matrix found in chk file.
 H
 C,1,R2
 C,2,R3,1,A3
 C,2,R4,1,A4,3,D4,0
 H,3,R5,2,A5,1,D5,0
 O,3,R6,2,A6,5,D6,0
 C,4,R7,2,A7,1,D7,0
 H,4,R8,2,A8,7,D8,0
 C,6,R9,3,A9,2,D9,0
 H,7,R10,4,A10,2,D10,0
 H,9,R11,6,A11,3,D11,0
 H,9,R12,6,A12,11,D12,0
      Variables:
 R2=1.07996014
 R3=1.34100407
 R4=1.4544948
 R5=1.082493
 R6=1.35393902
 R7=1.33588529
 R8=1.08257564
 R9=1.44493929
 R10=1.08186649
 R11=1.08883327
 R12=1.10321922
 A3=119.71860991
 A4=121.43843606
 A5=124.33912259
 A6=123.43525691
 A7=119.20232654
 A8=119.28176252
 A9=115.42931468
 A10=122.64493072
 A11=105.37529358
 A12=107.38940314
 D4=169.75023792
 D5=2.62874022
 D6=174.33870009
 D7=174.92722758
 D8=174.90960671
 D9=22.27211459
 D10=174.29641203
 D11=-163.47889433
 D12=-115.13365991
 Recover connectivity data from disk.

 GradGradGradGradGradGradGradGradGradGradGradGradGradGradGradGradGradGrad
 Berny optimization.
 Initialization pass.
                       ----------------------------
                       !    Initial Parameters    !
                       ! (Angstroms and Degrees)  !
 ----------------------                            ----------------------
 !      Name          Value   Derivative information (Atomic Units)     !
 ------------------------------------------------------------------------
 !       R2          1.08     estimate D2E/DX2                          !
 !       R3          1.341    estimate D2E/DX2                          !
 !       R4          1.4545   estimate D2E/DX2                          !
 !       R5          1.0825   estimate D2E/DX2                          !
 !       R6          1.3539   estimate D2E/DX2                          !
 !       R7          1.3359   estimate D2E/DX2                          !
 !       R8          1.0826   estimate D2E/DX2                          !
 !       R9          1.4449   estimate D2E/DX2                          !
 !       R10         1.0819   estimate D2E/DX2                          !
 !       R11         1.0888   estimate D2E/DX2                          !
 !       R12         1.1032   estimate D2E/DX2                          !
 !       A3        119.7186   estimate D2E/DX2                          !
 !       A4        121.4384   estimate D2E/DX2                          !
 !       A5        124.3391   estimate D2E/DX2                          !
 !       A6        123.4353   estimate D2E/DX2                          !
 !       A7        119.2023   estimate D2E/DX2                          !
 !       A8        119.2818   estimate D2E/DX2                          !
 !       A9        115.4293   estimate D2E/DX2                          !
 !       A10       122.6449   estimate D2E/DX2                          !
 !       A11       105.3753   estimate D2E/DX2                          !
 !       A12       107.3894   estimate D2E/DX2                          !
 !       D4        169.7502   estimate D2E/DX2                          !
 !       D5          2.6287   estimate D2E/DX2                          !
 !       D6        174.3387   estimate D2E/DX2                          !
 !       D7        174.9272   estimate D2E/DX2                          !
 !       D8        174.9096   estimate D2E/DX2                          !
 !       D9         22.2721   estimate D2E/DX2                          !
 !       D10       174.2964   estimate D2E/DX2                          !
 !       D11      -163.4789   estimate D2E/DX2                          !
 !       D12      -115.1337   estimate D2E/DX2                          !
 ------------------------------------------------------------------------
 Trust Radius=1.00D-01 FncErr=1.00D-07 GrdErr=1.00D-06 EigMax=2.50D+02 EigMin=1.00D-04
 Number of steps in this run=     40 maximum allowed number of steps=    100.
 GradGradGradGradGradGradGradGradGradGradGradGradGradGradGradGradGradGrad

 ---------------------------------------------------------------------------------------------------
                            Z-MATRIX (ANGSTROMS AND DEGREES)
   CD    Cent   Atom    N1       Length/X        N2       Alpha/Y        N3        Beta/Z          J
 ---------------------------------------------------------------------------------------------------
      1      1  H 
      2      2  C        1   1.079960(     1)
      3      3  C        2   1.341004(     2)      1  119.719(    12)
      4      4  C        2   1.454495(     3)      1  121.438(    13)      3  169.750(    22)      0
      5      5  H        3   1.082493(     4)      2  124.339(    14)      1    2.629(    23)      0
      6      6  O        3   1.353939(     5)      2  123.435(    15)      5  174.339(    24)      0
      7      7  C        4   1.335885(     6)      2  119.202(    16)      1  174.927(    25)      0
      8      8  H        4   1.082576(     7)      2  119.282(    17)      7  174.910(    26)      0
      9      9  C        6   1.444939(     8)      3  115.429(    18)      2   22.272(    27)      0
     10     10  H        7   1.081866(     9)      4  122.645(    19)      2  174.296(    28)      0
     11     11  H        9   1.088833(    10)      6  105.375(    20)      3 -163.479(    29)      0
     12     12  H        9   1.103219(    11)      6  107.389(    21)     11 -115.134(    30)      0
 ---------------------------------------------------------------------------------------------------
                         Z-Matrix orientation:                         
 ---------------------------------------------------------------------
 Center     Atomic      Atomic             Coordinates (Angstroms)
 Number     Number       Type             X           Y           Z
 ---------------------------------------------------------------------
      1          1           0        0.000000    0.000000    0.000000
      2          6           0        0.000000    0.000000    1.079960
      3          6           0        1.164623    0.000000    1.744751
      4          6           0       -1.221172    0.220819    1.838599
      5          1           0        2.137572    0.040995    1.272014
      6          8           0        1.253172    0.059774    3.094468
      7          6           0       -1.190572    0.110506    3.169570
      8          1           0       -2.113119    0.551422    1.321779
      9          6           0        0.076191   -0.371523    3.813179
     10          1           0       -2.040511    0.349802    3.794691
     11          1           0        0.198114    0.013540    4.824327
     12          1           0        0.103418   -1.473438    3.859384
 ---------------------------------------------------------------------
                    Distance matrix (angstroms):
                    1          2          3          4          5
     1  H    0.000000
     2  C    1.079960   0.000000
     3  C    2.097737   1.341004   0.000000
     4  C    2.218213   1.454495   2.397829   0.000000
     5  H    2.487753   2.146574   1.082493   3.410941   0.000000
     6  O    3.339123   2.373237   1.353939   2.779483   2.025797
     7  C    3.387602   2.407518   2.754862   1.335885   3.831722
     8  H    2.552731   2.197229   3.350606   1.082576   4.281517
     9  C    3.831993   2.759406   2.366667   2.435773   3.298027
    10  H    4.322699   3.414061   3.820667   2.124676   4.890362
    11  H    4.828412   3.749629   3.227710   3.312388   4.047366
    12  H    4.132380   3.147525   2.787266   2.951037   3.622951
                    6          7          8          9         10
     6  O    0.000000
     7  C    2.445425   0.000000
     8  H    3.836152   2.111831   0.000000
     9  C    1.444939   1.500424   3.442671   0.000000
    10  H    3.379760   1.081866   2.482180   2.236309   0.000000
    11  H    2.026745   2.162423   4.230716   1.088833   2.486899
    12  H    2.063437   2.158503   3.930971   1.103219   2.815106
                   11         12
    11  H    0.000000
    12  H    1.775158   0.000000
 Symmetry turned off by external request.
 Stoichiometry    C5H6O
 Framework group  C1[X(C5H6O)]
 Deg. of freedom    30
 Full point group                 C1      NOp   1
 Rotational constants (GHZ):           5.5842512           5.3705736           2.8555674
 Standard basis: def2TZVP (5D, 7F)
 The following finite field(s) will be applied:
 An electric field of              0.0040 -0.0064 -0.0002
   222 basis functions,   354 primitive gaussians,   252 cartesian basis functions
    22 alpha electrons       22 beta electrons
       nuclear repulsion energy       223.5828649231 Hartrees.
 NAtoms=   12 NActive=   12 NUniq=   12 SFac= 1.00D+00 NAtFMM=   60 NAOKFM=F Big=F
 Integral buffers will be    131072 words long.
 Raffenetti 2 integral format.
 Two-electron integral symmetry is turned off.
 One-electron integrals computed using PRISM.
   1 Symmetry operations used in ECPInt.
 ECPInt:  NShTT=    4095 NPrTT=   12396 LenC2=    4075 LenP2D=   10419.
 LDataN:  DoStor=T MaxTD1= 6 Len=  172
 NBasis=   222 RedAO= T EigKep=  9.71D-05  NBF=   222
 NBsUse=   222 1.00D-06 EigRej= -1.00D+00 NBFU=   222
 The nuclear repulsion energy is now       223.5446126010 hartrees.
 Initial guess from the checkpoint file:  "checkpoint.chk"
 B after Tr=     0.000000   -0.000000    0.000000
         Rot=    1.000000    0.000000    0.000000   -0.000000 Ang=   0.00 deg.
 Keep R1 ints in memory in canonical form, NReq=319363885.
 Requested convergence on RMS density matrix=1.00D-08 within 128 cycles.
 Requested convergence on MAX density matrix=1.00D-06.
 Requested convergence on             energy=1.00D-06.
 No special actions if energy rises.
 SCF Done:  E(RB3LYP) =  -269.424433280     A.U. after   10 cycles
            NFock= 10  Conv=0.93D-08     -V/T= 2.0050

 **********************************************************************

            Population analysis using the SCF density.

 **********************************************************************

 Alpha  occ. eigenvalues --  -19.16327 -10.23460 -10.23223 -10.17234 -10.16731
 Alpha  occ. eigenvalues --  -10.16700  -1.07216  -0.81062  -0.77516  -0.66443
 Alpha  occ. eigenvalues --   -0.62506  -0.53285  -0.51059  -0.48488  -0.46292
 Alpha  occ. eigenvalues --   -0.43569  -0.40792  -0.37684  -0.36096  -0.32988
 Alpha  occ. eigenvalues --   -0.29963  -0.20984
 Alpha virt. eigenvalues --   -0.03119   0.04152   0.05442   0.07641   0.07909
 Alpha virt. eigenvalues --    0.09527   0.09644   0.11361   0.13800   0.16220
 Alpha virt. eigenvalues --    0.17609   0.19392   0.21255   0.22340   0.23147
 Alpha virt. eigenvalues --    0.24786   0.25974   0.27507   0.28522   0.30023
 Alpha virt. eigenvalues --    0.30880   0.33414   0.34941   0.36308   0.37418
 Alpha virt. eigenvalues --    0.38049   0.39217   0.40824   0.41415   0.43970
 Alpha virt. eigenvalues --    0.44153   0.45597   0.46597   0.49308   0.50955
 Alpha virt. eigenvalues --    0.53275   0.55503   0.57864   0.59900   0.62972
 Alpha virt. eigenvalues --    0.65376   0.66603   0.68863   0.72338   0.73933
 Alpha virt. eigenvalues --    0.78024   0.82032   0.84984   0.85692   0.89435
 Alpha virt. eigenvalues --    0.90916   0.93059   0.95901   0.97379   0.99713
 Alpha virt. eigenvalues --    1.05559   1.07364   1.09093   1.11354   1.12230
 Alpha virt. eigenvalues --    1.15480   1.18203   1.20168   1.23780   1.26615
 Alpha virt. eigenvalues --    1.30453   1.33622   1.36847   1.40288   1.43098
 Alpha virt. eigenvalues --    1.44916   1.45590   1.48758   1.51544   1.52629
 Alpha virt. eigenvalues --    1.56136   1.59848   1.63017   1.65294   1.67674
 Alpha virt. eigenvalues --    1.70191   1.72463   1.74704   1.77944   1.80325
 Alpha virt. eigenvalues --    1.85671   1.87298   1.90595   1.91699   1.96916
 Alpha virt. eigenvalues --    2.00060   2.00903   2.05899   2.10643   2.12900
 Alpha virt. eigenvalues --    2.15141   2.17636   2.20957   2.23279   2.26758
 Alpha virt. eigenvalues --    2.27584   2.36754   2.38296   2.45587   2.45964
 Alpha virt. eigenvalues --    2.51235   2.52093   2.53080   2.57607   2.59928
 Alpha virt. eigenvalues --    2.61868   2.62293   2.65815   2.68076   2.70939
 Alpha virt. eigenvalues --    2.72009   2.74173   2.77307   2.79139   2.80878
 Alpha virt. eigenvalues --    2.83540   2.84331   2.88032   2.88767   2.91010
 Alpha virt. eigenvalues --    2.93967   2.97777   3.02189   3.02366   3.07679
 Alpha virt. eigenvalues --    3.08190   3.11466   3.13246   3.15998   3.16427
 Alpha virt. eigenvalues --    3.18989   3.20051   3.22911   3.24625   3.25356
 Alpha virt. eigenvalues --    3.29131   3.29932   3.33000   3.36446   3.38601
 Alpha virt. eigenvalues --    3.40248   3.41363   3.45062   3.46169   3.48879
 Alpha virt. eigenvalues --    3.54726   3.58886   3.62766   3.67806   3.69679
 Alpha virt. eigenvalues --    3.78464   3.84002   3.87695   3.91245   3.94079
 Alpha virt. eigenvalues --    3.97913   4.03530   4.04651   4.12562   4.17304
 Alpha virt. eigenvalues --    4.20213   4.25251   4.28951   4.36826   4.40035
 Alpha virt. eigenvalues --    4.45460   4.52737   4.58114   4.63671   4.66741
 Alpha virt. eigenvalues --    4.68137   4.79267   4.84299   4.91282   4.95141
 Alpha virt. eigenvalues --    5.12774   5.18203   5.36439   5.45212   5.74948
 Alpha virt. eigenvalues --    5.85147   5.89950   6.23294   6.32326   6.65480
 Alpha virt. eigenvalues --    6.76312   6.86430   7.14861   7.24970  22.06726
 Alpha virt. eigenvalues --   22.31908  22.42607  22.74764  22.92537  44.04797
          Condensed to atoms (all electrons):
               1          2          3          4          5          6
     1  H    0.553809   0.400157  -0.031422  -0.037839  -0.004388   0.005401
     2  C    0.400157   5.084447   0.590187   0.379202  -0.074069  -0.072880
     3  C   -0.031422   0.590187   4.764630  -0.057597   0.430962   0.327161
     4  C   -0.037839   0.379202  -0.057597   4.824417   0.006434  -0.013426
     5  H   -0.004388  -0.074069   0.430962   0.006434   0.578513  -0.041852
     6  O    0.005401  -0.072880   0.327161  -0.013426  -0.041852   7.918520
     7  C    0.005299  -0.065461  -0.032227   0.663537  -0.001373  -0.029173
     8  H   -0.004211  -0.046040   0.004189   0.415957  -0.000291  -0.000948
     9  C   -0.000312  -0.035828  -0.056700  -0.044422   0.004104   0.283732
    10  H   -0.000202   0.004631   0.002156  -0.026090   0.000158   0.003280
    11  H    0.000133   0.004341  -0.001572   0.001693  -0.000613  -0.028718
    12  H   -0.000353  -0.000798   0.039039  -0.010523   0.002350  -0.075241
               7          8          9         10         11         12
     1  H    0.005299  -0.004211  -0.000312  -0.000202   0.000133  -0.000353
     2  C   -0.065461  -0.046040  -0.035828   0.004631   0.004341  -0.000798
     3  C   -0.032227   0.004189  -0.056700   0.002156  -0.001572   0.039039
     4  C    0.663537   0.415957  -0.044422  -0.026090   0.001693  -0.010523
     5  H   -0.001373  -0.000291   0.004104   0.000158  -0.000613   0.002350
     6  O   -0.029173  -0.000948   0.283732   0.003280  -0.028718  -0.075241
     7  C    5.011145  -0.027994   0.368995   0.400537  -0.031348  -0.083557
     8  H   -0.027994   0.514998   0.007492  -0.006629  -0.000274  -0.000184
     9  C    0.368995   0.007492   4.693429  -0.040097   0.416284   0.354854
    10  H    0.400537  -0.006629  -0.040097   0.520227  -0.005126   0.007681
    11  H   -0.031348  -0.000274   0.416284  -0.005126   0.589473  -0.064618
    12  H   -0.083557  -0.000184   0.354854   0.007681  -0.064618   0.795296
 Mulliken charges:
               1
     1  H    0.113929
     2  C   -0.167891
     3  C    0.021194
     4  C   -0.101340
     5  H    0.100064
     6  O   -0.275856
     7  C   -0.178380
     8  H    0.143936
     9  C    0.048469
    10  H    0.139475
    11  H    0.120346
    12  H    0.036054
 Sum of Mulliken charges =  -0.00000
 Mulliken charges with hydrogens summed into heavy atoms:
               1
     2  C   -0.053962
     3  C    0.121259
     4  C    0.042596
     6  O   -0.275856
     7  C   -0.038906
     9  C    0.204869
 Electronic spatial extent (au):  <R**2>=           1438.1885
 Charge=             -0.0000 electrons
 Dipole moment (field-independent basis, Debye):
    X=             -1.3703    Y=              0.5333    Z=             -0.0084  Tot=              1.4704
 Quadrupole moment (field-independent basis, Debye-Ang):
   XX=            -34.7528   YY=            -38.3941   ZZ=            -31.9031
   XY=             -1.0701   XZ=             -5.2862   YZ=              0.4644
 Traceless Quadrupole moment (field-independent basis, Debye-Ang):
   XX=              0.2639   YY=             -3.3775   ZZ=              3.1136
   XY=             -1.0701   XZ=             -5.2862   YZ=              0.4644
 Octapole moment (field-independent basis, Debye-Ang**2):
  XXX=             -2.9880  YYY=              1.5388  ZZZ=           -234.2568  XYY=              0.6704
  XXY=              4.1397  XXZ=            -90.4835  XZZ=            -20.0964  YZZ=              1.4252
  YYZ=            -92.6494  XYZ=             -2.5487
 Hexadecapole moment (field-independent basis, Debye-Ang**3):
 XXXX=           -262.0907 YYYY=            -63.3026 ZZZZ=          -1411.6557 XXXY=              3.4612
 XXXZ=            -12.1470 YYYX=             10.8148 YYYZ=             15.8925 ZZZX=            -68.0375
 ZZZY=             24.2886 XXYY=            -59.5490 XXZZ=           -323.3333 YYZZ=           -286.1023
 XXYZ=             13.2185 YYXZ=              4.7080 ZZXY=             -4.3836
 N-N= 2.235446126010D+02 E-N=-1.074923985491D+03  KE= 2.680817076476D+02
   1 Symmetry operations used in ECPInt.
 ECPInt:  NShTT=    4095 NPrTT=   12396 LenC2=    4075 LenP2D=   10419.
 LDataN:  DoStor=T MaxTD1= 7 Len=  274
 Calling FoFJK, ICntrl=      2127 FMM=F ISym2X=0 I1Cent= 0 IOpClX= 0 NMat=1 NMatS=1 NMatT=0.
 -------------------------------------------------------------------
 Center     Atomic                   Forces (Hartrees/Bohr)
 Number     Number              X              Y              Z
 -------------------------------------------------------------------
      1        1          -0.000084694   -0.000136294   -0.000051525
      2        6           0.000399483    0.000765271    0.000203581
      3        6          -0.000360343   -0.001052346   -0.000413967
      4        6          -0.000413323    0.000005486    0.000049349
      5        1           0.000080697    0.000280917   -0.000092159
      6        8           0.000428611   -0.000429619    0.000544309
      7        6          -0.000034139   -0.000432815   -0.000060594
      8        1           0.000103425    0.000167558    0.000098282
      9        6          -0.000178484    0.001121612   -0.000129233
     10        1           0.000084188    0.000196781   -0.000061306
     11        1          -0.000070286    0.000115257   -0.000042322
     12        1           0.000044865   -0.000601806   -0.000044415
 -------------------------------------------------------------------
 Cartesian Forces:  Max     0.001121612 RMS     0.000377801
 -----------------------------------------------------------------------------------------------
                       Internal Coordinate Forces (Hartree/Bohr or radian)
  Cent   Atom   N1       Length/X         N2         Alpha/Y        N3         Beta/Z          J
 -----------------------------------------------------------------------------------------------
      1  H 
      2  C        1   0.000052(     1)
      3  C        2  -0.000136(     2)      1  -0.000062(    12)
      4  C        2   0.000222(     3)      1   0.000009(    13)      3  -0.000451(    22)     0
      5  H        3   0.000123(     4)      2  -0.000112(    14)      1  -0.001355(    23)     0
      6  O        3   0.000351(     5)      2  -0.000325(    15)      5  -0.001820(    24)     0
      7  C        4  -0.000101(     6)      2  -0.000183(    16)      1  -0.000828(    25)     0
      8  H        4  -0.000081(     7)      2   0.000069(    17)      7  -0.000360(    26)     0
      9  C        6  -0.000131(     8)      3  -0.000512(    18)      2  -0.001525(    27)     0
     10  H        7  -0.000058(     9)      4  -0.000107(    19)      2  -0.000359(    28)     0
     11  H        9  -0.000006(    10)      6   0.000007(    20)      3   0.000191(    29)     0
     12  H        9   0.000600(    11)      6  -0.000128(    21)     11  -0.000089(    30)     0
 -----------------------------------------------------------------------------------------------
 Internal  Forces:  Max     0.001819802 RMS     0.000569214

 GradGradGradGradGradGradGradGradGradGradGradGradGradGradGradGradGradGrad
 Berny optimization.
 Search for a local minimum.
 Step number   1 out of a maximum of   40
 All quantities printed in internal units (Hartrees-Bohrs-Radians)
 Second derivative matrix not updated -- first step.
 ITU=  0
     Eigenvalues ---    0.03318   0.04755   0.05136   0.07270   0.11540
     Eigenvalues ---    0.15300   0.17060   0.17322   0.18223   0.22004
     Eigenvalues ---    0.24611   0.27952   0.31440   0.33329   0.34948
     Eigenvalues ---    0.35685   0.35695   0.35770   0.35999   0.36824
     Eigenvalues ---    0.38354   0.41499   0.46396   0.54179   0.57430
     Eigenvalues ---    0.57739   0.60065   2.31453   3.91172  24.89737
 RFO step:  Lambda=-2.41808110D-05 EMin= 3.31821571D-02
 Linear search not attempted -- first point.
 Variable       Old X    -DE/DX   Delta X   Delta X   Delta X     New X
                                 (Linear)    (Quad)   (Total)
    R2        2.04083   0.00005   0.00000   0.00014   0.00014   2.04097
    R3        2.53413  -0.00014   0.00000  -0.00020  -0.00020   2.53393
    R4        2.74860   0.00022   0.00000   0.00040   0.00040   2.74900
    R5        2.04562   0.00012   0.00000   0.00035   0.00035   2.04596
    R6        2.55857   0.00035   0.00000   0.00087   0.00087   2.55944
    R7        2.52446  -0.00010   0.00000  -0.00044  -0.00044   2.52401
    R8        2.04577  -0.00008   0.00000  -0.00023  -0.00023   2.04554
    R9        2.73054  -0.00013   0.00000   0.00021   0.00021   2.73075
   R10        2.04443  -0.00006   0.00000  -0.00015  -0.00015   2.04429
   R11        2.05760  -0.00001   0.00000   0.00001   0.00001   2.05761
   R12        2.08478   0.00060   0.00000   0.00181   0.00181   2.08659
    A3        2.08948  -0.00006   0.00000  -0.00064  -0.00064   2.08885
    A4        2.11950   0.00001   0.00000  -0.00138  -0.00138   2.11812
    A5        2.17013  -0.00011   0.00000  -0.00088  -0.00088   2.16925
    A6        2.15435  -0.00032   0.00000   0.00092   0.00092   2.15527
    A7        2.08047  -0.00018   0.00000  -0.00037  -0.00037   2.08011
    A8        2.08186   0.00007   0.00000   0.00042   0.00042   2.08228
    A9        2.01462  -0.00051   0.00000   0.00023   0.00023   2.01486
   A10        2.14056  -0.00011   0.00000  -0.00055  -0.00055   2.14000
   A11        1.83915   0.00001   0.00000  -0.00012  -0.00012   1.83903
   A12        1.87430  -0.00013   0.00000  -0.00072  -0.00072   1.87358
    D4        2.96270  -0.00045   0.00000  -0.01009  -0.01009   2.95261
    D5        0.04588  -0.00136   0.00000  -0.00290  -0.00290   0.04298
    D6        3.04278  -0.00182   0.00000  -0.00340  -0.00340   3.03938
    D7        3.05306  -0.00083   0.00000   0.01019   0.01019   3.06325
    D8        3.05275  -0.00036   0.00000  -0.00456  -0.00456   3.04818
    D9        0.38872  -0.00152   0.00000  -0.00782  -0.00782   0.38090
   D10        3.04205  -0.00036   0.00000  -0.00384  -0.00384   3.03821
   D11       -2.85324   0.00019   0.00000   0.00754   0.00754  -2.84570
   D12       -2.00946  -0.00009   0.00000  -0.00001  -0.00001  -2.00947
         Item               Value     Threshold  Converged?
 Maximum Force            0.001820     0.000450     NO 
 RMS     Force            0.000569     0.000300     NO 
 Maximum Displacement     0.010195     0.001800     NO 
 RMS     Displacement     0.003602     0.001200     NO 
 Predicted change in Energy=-1.209040D-05
 GradGradGradGradGradGradGradGradGradGradGradGradGradGradGradGradGradGrad

 ---------------------------------------------------------------------------------------------------
                            Z-MATRIX (ANGSTROMS AND DEGREES)
   CD    Cent   Atom    N1       Length/X        N2       Alpha/Y        N3        Beta/Z          J
 ---------------------------------------------------------------------------------------------------
      1      1  H 
      2      2  C        1   1.080036(     1)
      3      3  C        2   1.340897(     2)      1  119.682(    12)
      4      4  C        2   1.454706(     3)      1  121.359(    13)      3  169.172(    22)      0
      5      5  H        3   1.082676(     4)      2  124.289(    14)      1    2.462(    23)      0
      6      6  O        3   1.354398(     5)      2  123.488(    15)      5  174.144(    24)      0
      7      7  C        4   1.335650(     6)      2  119.181(    16)      1  175.511(    25)      0
      8      8  H        4   1.082455(     7)      2  119.306(    17)      7  174.648(    26)      0
      9      9  C        6   1.445051(     8)      3  115.443(    18)      2   21.824(    27)      0
     10     10  H        7   1.081789(     9)      4  122.613(    19)      2  174.076(    28)      0
     11     11  H        9   1.088838(    10)      6  105.369(    20)      3 -163.047(    29)      0
     12     12  H        9   1.104175(    11)      6  107.348(    21)     11 -115.134(    30)      0
 ---------------------------------------------------------------------------------------------------
                         Z-Matrix orientation:                         
 ---------------------------------------------------------------------
 Center     Atomic      Atomic             Coordinates (Angstroms)
 Number     Number       Type             X           Y           Z
 ---------------------------------------------------------------------
      1          1           0        0.000000    0.000000    0.000000
      2          6           0        0.000000    0.000000    1.080036
      3          6           0        1.164953    0.000000    1.744031
      4          6           0       -1.220085    0.233365    1.837070
      5          1           0        2.137405    0.038432    1.269639
      6          8           0        1.255837    0.066867    3.093721
      7          6           0       -1.189201    0.134540    3.168701
      8          1           0       -2.109532    0.567736    1.318620
      9          6           0        0.075147   -0.347174    3.816710
     10          1           0       -2.036730    0.386748    3.791881
     11          1           0        0.199198    0.049367    4.823156
     12          1           0        0.095091   -1.449574    3.876021
 ---------------------------------------------------------------------
                    Distance matrix (angstroms):
                    1          2          3          4          5
     1  H    0.000000
     2  C    1.080036   0.000000
     3  C    2.097322   1.340897   0.000000
     4  C    2.217633   1.454706   2.398233   0.000000
     5  H    2.486355   2.146142   1.082676   3.410677   0.000000
     6  O    3.339566   2.374136   1.354398   2.781561   2.026140
     7  C    3.387177   2.407244   2.754964   1.335650   3.831707
     8  H    2.551707   2.197583   3.350455   1.082455   4.280074
     9  C    3.833204   2.759631   2.367321   2.435904   3.299875
    10  H    4.321597   3.413495   3.820214   2.124081   4.889420
    11  H    4.827521   3.748742   3.227404   3.311334   4.047747
    12  H    4.139305   3.150847   2.791281   2.952845   3.630211
                    6          7          8          9         10
     6  O    0.000000
     7  C    2.447122   0.000000
     8  H    3.837650   2.111272   0.000000
     9  C    1.445051   1.500179   3.442432   0.000000
    10  H    3.380939   1.081789   2.480943   2.235907   0.000000
    11  H    2.026756   2.161510   4.228559   1.088838   2.485302
    12  H    2.063715   2.158500   3.933218   1.104175   2.814928
                   11         12
    11  H    0.000000
    12  H    1.776156   0.000000
 Symmetry turned off by external request.
 Stoichiometry    C5H6O
 Framework group  C1[X(C5H6O)]
 Deg. of freedom    30
 Full point group                 C1      NOp   1
 Rotational constants (GHZ):           5.5844708           5.3675449           2.8538071
 Standard basis: def2TZVP (5D, 7F)
 The following finite field(s) will be applied:
 An electric field of              0.0040 -0.0064 -0.0002
   222 basis functions,   354 primitive gaussians,   252 cartesian basis functions
    22 alpha electrons       22 beta electrons
       nuclear repulsion energy       223.5519297625 Hartrees.
 NAtoms=   12 NActive=   12 NUniq=   12 SFac= 1.00D+00 NAtFMM=   60 NAOKFM=F Big=F
 Integral buffers will be    131072 words long.
 Raffenetti 2 integral format.
 Two-electron integral symmetry is turned off.
 One-electron integrals computed using PRISM.
   1 Symmetry operations used in ECPInt.
 ECPInt:  NShTT=    4095 NPrTT=   12396 LenC2=    4075 LenP2D=   10419.
 LDataN:  DoStor=T MaxTD1= 6 Len=  172
 NBasis=   222 RedAO= T EigKep=  9.75D-05  NBF=   222
 NBsUse=   222 1.00D-06 EigRej= -1.00D+00 NBFU=   222
 The nuclear repulsion energy is now       223.5075000061 hartrees.
 Initial guess from the checkpoint file:  "checkpoint.chk"
 B after Tr=    -0.000682   -0.015426    0.000257
         Rot=    0.999987    0.004099   -0.000213    0.002898 Ang=   0.58 deg.
 Keep R1 ints in memory in canonical form, NReq=319363885.
 Requested convergence on RMS density matrix=1.00D-08 within 128 cycles.
 Requested convergence on MAX density matrix=1.00D-06.
 Requested convergence on             energy=1.00D-06.
 No special actions if energy rises.
 SCF Done:  E(RB3LYP) =  -269.424450804     A.U. after    9 cycles
            NFock=  9  Conv=0.24D-08     -V/T= 2.0050
   1 Symmetry operations used in ECPInt.
 ECPInt:  NShTT=    4095 NPrTT=   12396 LenC2=    4075 LenP2D=   10419.
 LDataN:  DoStor=T MaxTD1= 7 Len=  274
 Calling FoFJK, ICntrl=      2127 FMM=F ISym2X=0 I1Cent= 0 IOpClX= 0 NMat=1 NMatS=1 NMatT=0.
 -------------------------------------------------------------------
 Center     Atomic                   Forces (Hartrees/Bohr)
 Number     Number              X              Y              Z
 -------------------------------------------------------------------
      1        1          -0.000042738   -0.000383806   -0.000024396
      2        6           0.000202267    0.001224422    0.000033288
      3        6          -0.000095052   -0.000899645   -0.000054844
      4        6          -0.000179520    0.000059198    0.000049049
      5        1          -0.000005327    0.000093906    0.000032277
      6        8           0.000167068   -0.000282004   -0.000136466
      7        6           0.000032959   -0.000164958   -0.000043092
      8        1           0.000029981    0.000024267   -0.000020043
      9        6          -0.000178964    0.000202287    0.000145629
     10        1           0.000054148    0.000134466    0.000013439
     11        1          -0.000049598    0.000016069   -0.000007337
     12        1           0.000064778   -0.000024203    0.000012495
 -------------------------------------------------------------------
 Cartesian Forces:  Max     0.001224422 RMS     0.000280948
 -----------------------------------------------------------------------------------------------
                       Internal Coordinate Forces (Hartree/Bohr or radian)
  Cent   Atom   N1       Length/X         N2         Alpha/Y        N3         Beta/Z          J
 -----------------------------------------------------------------------------------------------
      1  H 
      2  C        1   0.000024(     1)
      3  C        2  -0.000088(     2)      1   0.000125(    12)
      4  C        2   0.000061(     3)      1   0.000124(    13)      3  -0.000381(    22)     0
      5  H        3  -0.000016(     4)      2   0.000050(    14)      1  -0.000226(    23)     0
      6  O        3   0.000010(     5)      2   0.000047(    15)      5  -0.000387(    24)     0
      7  C        4  -0.000025(     6)      2  -0.000267(    16)      1  -0.000061(    25)     0
      8  H        4  -0.000008(     7)      2  -0.000066(    17)      7  -0.000051(    26)     0
      9  C        6   0.000154(     8)      3   0.000186(    18)      2  -0.000413(    27)     0
     10  H        7  -0.000003(     9)      4   0.000016(    19)      2  -0.000250(    28)     0
     11  H        9  -0.000007(    10)      6   0.000073(    20)      3   0.000161(    29)     0
     12  H        9   0.000026(    11)      6  -0.000104(    21)     11   0.000084(    30)     0
 -----------------------------------------------------------------------------------------------
 Internal  Forces:  Max     0.000413404 RMS     0.000165213

 GradGradGradGradGradGradGradGradGradGradGradGradGradGradGradGradGradGrad
 Berny optimization.
 Search for a local minimum.
 Step number   2 out of a maximum of   40
 All quantities printed in internal units (Hartrees-Bohrs-Radians)
 Update second derivatives using D2CorN and points    1    2
 DE= -1.75D-05 DEPred=-1.21D-05 R= 1.45D+00
 TightC=F SS=  1.41D+00  RLast= 1.97D-02 DXNew= 1.6818D-01 5.9188D-02
 Trust test= 1.45D+00 RLast= 1.97D-02 DXMaxT set to 1.00D-01
 ITU=  1  0
     Eigenvalues ---    0.01704   0.04421   0.04999   0.06947   0.11411
     Eigenvalues ---    0.15283   0.17051   0.17308   0.18224   0.22009
     Eigenvalues ---    0.24607   0.27949   0.31422   0.33318   0.34948
     Eigenvalues ---    0.35685   0.35696   0.35770   0.35998   0.36815
     Eigenvalues ---    0.38317   0.41398   0.46380   0.54193   0.57425
     Eigenvalues ---    0.57741   0.60065   2.31476   3.91114  24.89734
 RFO step:  Lambda=-5.21749964D-06 EMin= 1.70375999D-02
 Quartic linear search produced a step of  0.82769.
 Variable       Old X    -DE/DX   Delta X   Delta X   Delta X     New X
                                 (Linear)    (Quad)   (Total)
    R2        2.04097   0.00002   0.00012   0.00002   0.00014   2.04111
    R3        2.53393  -0.00009  -0.00017  -0.00012  -0.00029   2.53364
    R4        2.74900   0.00006   0.00033   0.00018   0.00051   2.74950
    R5        2.04596  -0.00002   0.00029  -0.00037  -0.00008   2.04588
    R6        2.55944   0.00001   0.00072  -0.00073  -0.00001   2.55943
    R7        2.52401  -0.00003  -0.00037   0.00031  -0.00005   2.52396
    R8        2.04554  -0.00001  -0.00019   0.00014  -0.00005   2.04549
    R9        2.73075   0.00015   0.00017   0.00064   0.00082   2.73157
   R10        2.04429  -0.00000  -0.00012   0.00012  -0.00000   2.04428
   R11        2.05761  -0.00001   0.00001  -0.00002  -0.00001   2.05760
   R12        2.08659   0.00003   0.00149  -0.00129   0.00020   2.08679
    A3        2.08885   0.00013  -0.00053  -0.00025  -0.00078   2.08807
    A4        2.11812   0.00012  -0.00114   0.00009  -0.00105   2.11707
    A5        2.16925   0.00005  -0.00073   0.00049  -0.00024   2.16901
    A6        2.15527   0.00005   0.00076   0.00041   0.00118   2.15645
    A7        2.08011  -0.00027  -0.00030   0.00021  -0.00009   2.08001
    A8        2.08228  -0.00007   0.00035  -0.00071  -0.00037   2.08191
    A9        2.01486   0.00019   0.00019   0.00181   0.00200   2.01686
   A10        2.14000   0.00002  -0.00046   0.00011  -0.00034   2.13966
   A11        1.83903   0.00007  -0.00010   0.00061   0.00052   1.83954
   A12        1.87358  -0.00010  -0.00059  -0.00009  -0.00069   1.87290
    D4        2.95261  -0.00038  -0.00836  -0.00409  -0.01244   2.94017
    D5        0.04298  -0.00023  -0.00240  -0.00314  -0.00554   0.03744
    D6        3.03938  -0.00039  -0.00281   0.00222  -0.00059   3.03879
    D7        3.06325  -0.00006   0.00844   0.00533   0.01377   3.07702
    D8        3.04818  -0.00005  -0.00378  -0.00096  -0.00473   3.04345
    D9        0.38090  -0.00041  -0.00647  -0.00496  -0.01143   0.36947
   D10        3.03821  -0.00025  -0.00318  -0.00326  -0.00644   3.03177
   D11       -2.84570   0.00016   0.00624   0.00378   0.01002  -2.83568
   D12       -2.00947   0.00008  -0.00001   0.00043   0.00042  -2.00905
         Item               Value     Threshold  Converged?
 Maximum Force            0.000413     0.000450     YES
 RMS     Force            0.000165     0.000300     YES
 Maximum Displacement     0.013769     0.001800     NO 
 RMS     Displacement     0.004760     0.001200     NO 
 Predicted change in Energy=-6.982895D-06
 GradGradGradGradGradGradGradGradGradGradGradGradGradGradGradGradGradGrad

 ---------------------------------------------------------------------------------------------------
                            Z-MATRIX (ANGSTROMS AND DEGREES)
   CD    Cent   Atom    N1       Length/X        N2       Alpha/Y        N3        Beta/Z          J
 ---------------------------------------------------------------------------------------------------
      1      1  H 
      2      2  C        1   1.080111(     1)
      3      3  C        2   1.340744(     2)      1  119.637(    12)
      4      4  C        2   1.454974(     3)      1  121.299(    13)      3  168.459(    22)      0
      5      5  H        3   1.082631(     4)      2  124.275(    14)      1    2.145(    23)      0
      6      6  O        3   1.354393(     5)      2  123.555(    15)      5  174.110(    24)      0
      7      7  C        4   1.335622(     6)      2  119.176(    16)      1  176.300(    25)      0
      8      8  H        4   1.082429(     7)      2  119.285(    17)      7  174.377(    26)      0
      9      9  C        6   1.445483(     8)      3  115.557(    18)      2   21.169(    27)      0
     10     10  H        7   1.081789(     9)      4  122.593(    19)      2  173.708(    28)      0
     11     11  H        9   1.088834(    10)      6  105.398(    20)      3 -162.472(    29)      0
     12     12  H        9   1.104282(    11)      6  107.309(    21)     11 -115.110(    30)      0
 ---------------------------------------------------------------------------------------------------
                         Z-Matrix orientation:                         
 ---------------------------------------------------------------------
 Center     Atomic      Atomic             Coordinates (Angstroms)
 Number     Number       Type             X           Y           Z
 ---------------------------------------------------------------------
      1          1           0        0.000000    0.000000    0.000000
      2          6           0        0.000000    0.000000    1.080111
      3          6           0        1.165337    0.000000    1.743122
      4          6           0       -1.218090    0.248729    1.835982
      5          1           0        2.137362    0.033486    1.267584
      6          8           0        1.259074    0.073720    3.092255
      7          6           0       -1.185899    0.165353    3.168611
      8          1           0       -2.104960    0.585921    1.315007
      9          6           0        0.074529   -0.318352    3.822017
     10          1           0       -2.029466    0.434924    3.789893
     11          1           0        0.202366    0.091769    4.822525
     12          1           0        0.084915   -1.419982    3.897796
 ---------------------------------------------------------------------
                    Distance matrix (angstroms):
                    1          2          3          4          5
     1  H    0.000000
     2  C    1.080111   0.000000
     3  C    2.096779   1.340744   0.000000
     4  C    2.217304   1.454974   2.398168   0.000000
     5  H    2.485197   2.145829   1.082631   3.410053   0.000000
     6  O    3.339572   2.374747   1.354393   2.783018   2.025446
     7  C    3.387299   2.407391   2.754573   1.335622   3.830843
     8  H    2.550177   2.197575   3.349840   1.082429   4.278403
     9  C    3.835976   2.761331   2.369180   2.436550   3.302150
    10  H    4.321017   3.413329   3.819058   2.123857   4.887295
    11  H    4.827641   3.749004   3.227763   3.310856   4.047865
    12  H    4.149262   3.156407   2.797549   2.955248   3.639110
                    6          7          8          9         10
     6  O    0.000000
     7  C    2.447881   0.000000
     8  H    3.838969   2.111255   0.000000
     9  C    1.445483   1.499863   3.442815   0.000000
    10  H    3.381075   1.081789   2.480637   2.235006   0.000000
    11  H    2.027509   2.160585   4.227366   1.088834   2.482974
    12  H    2.063660   2.158696   3.935734   1.104282   2.814770
                   11         12
    11  H    0.000000
    12  H    1.776037   0.000000
 Symmetry turned off by external request.
 Stoichiometry    C5H6O
 Framework group  C1[X(C5H6O)]
 Deg. of freedom    30
 Full point group                 C1      NOp   1
 Rotational constants (GHZ):           5.5816780           5.3673669           2.8517946
 Standard basis: def2TZVP (5D, 7F)
 The following finite field(s) will be applied:
 An electric field of              0.0040 -0.0064 -0.0002
   222 basis functions,   354 primitive gaussians,   252 cartesian basis functions
    22 alpha electrons       22 beta electrons
       nuclear repulsion energy       223.5216878826 Hartrees.
 NAtoms=   12 NActive=   12 NUniq=   12 SFac= 1.00D+00 NAtFMM=   60 NAOKFM=F Big=F
 Integral buffers will be    131072 words long.
 Raffenetti 2 integral format.
 Two-electron integral symmetry is turned off.
 One-electron integrals computed using PRISM.
   1 Symmetry operations used in ECPInt.
 ECPInt:  NShTT=    4095 NPrTT=   12396 LenC2=    4075 LenP2D=   10418.
 LDataN:  DoStor=T MaxTD1= 6 Len=  172
 NBasis=   222 RedAO= T EigKep=  9.80D-05  NBF=   222
 NBsUse=   222 1.00D-06 EigRej= -1.00D+00 NBFU=   222
 The nuclear repulsion energy is now       223.4700212354 hartrees.
 Initial guess from the checkpoint file:  "checkpoint.chk"
 B after Tr=    -0.001898   -0.019138    0.001318
         Rot=    0.999980    0.004988   -0.000451    0.003902 Ang=   0.73 deg.
 Keep R1 ints in memory in canonical form, NReq=319363885.
 Requested convergence on RMS density matrix=1.00D-08 within 128 cycles.
 Requested convergence on MAX density matrix=1.00D-06.
 Requested convergence on             energy=1.00D-06.
 No special actions if energy rises.
 SCF Done:  E(RB3LYP) =  -269.424458349     A.U. after    9 cycles
            NFock=  9  Conv=0.29D-08     -V/T= 2.0050
   1 Symmetry operations used in ECPInt.
 ECPInt:  NShTT=    4095 NPrTT=   12396 LenC2=    4075 LenP2D=   10418.
 LDataN:  DoStor=T MaxTD1= 7 Len=  274
 Calling FoFJK, ICntrl=      2127 FMM=F ISym2X=0 I1Cent= 0 IOpClX= 0 NMat=1 NMatS=1 NMatT=0.
 -------------------------------------------------------------------
 Center     Atomic                   Forces (Hartrees/Bohr)
 Number     Number              X              Y              Z
 -------------------------------------------------------------------
      1        1          -0.000047257   -0.000665685    0.000009199
      2        6          -0.000023574    0.001732432   -0.000099554
      3        6           0.000049975   -0.001026839    0.000300856
      4        6           0.000056602    0.000114422    0.000104472
      5        1           0.000021815   -0.000015056    0.000019019
      6        8           0.000101414   -0.000078847   -0.000343587
      7        6          -0.000120528   -0.000031780   -0.000076260
      8        1          -0.000007351   -0.000039416   -0.000016824
      9        6          -0.000095339   -0.000101809    0.000109121
     10        1          -0.000005961    0.000009524   -0.000005701
     11        1           0.000030896    0.000002988    0.000007161
     12        1           0.000039308    0.000100065   -0.000007901
 -------------------------------------------------------------------
 Cartesian Forces:  Max     0.001732432 RMS     0.000366473
 -----------------------------------------------------------------------------------------------
                       Internal Coordinate Forces (Hartree/Bohr or radian)
  Cent   Atom   N1       Length/X         N2         Alpha/Y        N3         Beta/Z          J
 -----------------------------------------------------------------------------------------------
      1  H 
      2  C        1  -0.000009(     1)
      3  C        2   0.000171(     2)      1  -0.000451(    12)
      4  C        2   0.000077(     3)      1  -0.000452(    13)      3  -0.000048(    22)     0
      5  H        3   0.000011(     4)      2   0.000055(    14)      1   0.000056(    23)     0
      6  O        3  -0.000233(     5)      2   0.000507(    15)      5   0.000081(    24)     0
      7  C        4  -0.000083(     6)      2   0.000309(    16)      1  -0.000045(    25)     0
      8  H        4   0.000002(     7)      2  -0.000024(    17)      7   0.000075(    26)     0
      9  C        6   0.000075(     8)      3   0.000280(    18)      2   0.000048(    27)     0
     10  H        7   0.000004(     9)      4  -0.000020(    19)      2  -0.000011(    28)     0
     11  H        9   0.000011(    10)      6  -0.000054(    20)      3   0.000012(    29)     0
     12  H        9  -0.000100(    11)      6  -0.000073(    21)     11   0.000039(    30)     0
 -----------------------------------------------------------------------------------------------
 Internal  Forces:  Max     0.000507373 RMS     0.000181485

 GradGradGradGradGradGradGradGradGradGradGradGradGradGradGradGradGradGrad
 Berny optimization.
 Search for a local minimum.
 Step number   3 out of a maximum of   40
 All quantities printed in internal units (Hartrees-Bohrs-Radians)
 Update second derivatives using D2CorN and points    1    2    3
 DE= -7.55D-06 DEPred=-6.98D-06 R= 1.08D+00
 TightC=F SS=  1.41D+00  RLast= 2.61D-02 DXNew= 1.6818D-01 7.8213D-02
 Trust test= 1.08D+00 RLast= 2.61D-02 DXMaxT set to 1.00D-01
 ITU=  1  1  0
     Eigenvalues ---    0.01683   0.04436   0.05022   0.06890   0.11371
     Eigenvalues ---    0.15266   0.17053   0.17305   0.18220   0.22014
     Eigenvalues ---    0.24608   0.27947   0.31415   0.33331   0.34948
     Eigenvalues ---    0.35685   0.35696   0.35770   0.35998   0.36813
     Eigenvalues ---    0.38295   0.41372   0.46383   0.54211   0.57428
     Eigenvalues ---    0.57741   0.60066   2.31478   3.91095  24.89739
 RFO step:  Lambda=-5.66388292D-07 EMin= 1.68265959D-02
 Quartic linear search produced a step of  0.07069.
 Variable       Old X    -DE/DX   Delta X   Delta X   Delta X     New X
                                 (Linear)    (Quad)   (Total)
    R2        2.04111  -0.00001   0.00001  -0.00003  -0.00002   2.04109
    R3        2.53364   0.00017  -0.00002   0.00015   0.00013   2.53377
    R4        2.74950   0.00008   0.00004   0.00004   0.00007   2.74958
    R5        2.04588   0.00001  -0.00001   0.00004   0.00003   2.04591
    R6        2.55943  -0.00023  -0.00000  -0.00054  -0.00054   2.55889
    R7        2.52396  -0.00008  -0.00000  -0.00008  -0.00009   2.52387
    R8        2.04549   0.00000  -0.00000   0.00001   0.00000   2.04550
    R9        2.73157   0.00007   0.00006   0.00033   0.00039   2.73196
   R10        2.04428   0.00000  -0.00000   0.00001   0.00001   2.04430
   R11        2.05760   0.00001  -0.00000   0.00004   0.00004   2.05763
   R12        2.08679  -0.00010   0.00001  -0.00033  -0.00031   2.08648
    A3        2.08807  -0.00045  -0.00006   0.00002  -0.00004   2.08803
    A4        2.11707  -0.00045  -0.00007   0.00005  -0.00003   2.11705
    A5        2.16901   0.00006  -0.00002   0.00014   0.00012   2.16913
    A6        2.15645   0.00051   0.00008   0.00014   0.00022   2.15667
    A7        2.08001   0.00031  -0.00001   0.00021   0.00020   2.08022
    A8        2.08191  -0.00002  -0.00003  -0.00014  -0.00017   2.08174
    A9        2.01686   0.00028   0.00014   0.00027   0.00041   2.01727
   A10        2.13966  -0.00002  -0.00002  -0.00002  -0.00004   2.13961
   A11        1.83954  -0.00005   0.00004  -0.00018  -0.00015   1.83940
   A12        1.87290  -0.00007  -0.00005  -0.00042  -0.00047   1.87243
    D4        2.94017  -0.00005  -0.00088  -0.00023  -0.00111   2.93906
    D5        0.03744   0.00006  -0.00039  -0.00048  -0.00088   0.03656
    D6        3.03879   0.00008  -0.00004   0.00081   0.00077   3.03956
    D7        3.07702  -0.00005   0.00097  -0.00017   0.00080   3.07782
    D8        3.04345   0.00007  -0.00033   0.00090   0.00057   3.04402
    D9        0.36947   0.00005  -0.00081  -0.00087  -0.00168   0.36779
   D10        3.03177  -0.00001  -0.00045   0.00033  -0.00012   3.03165
   D11       -2.83568   0.00001   0.00071   0.00068   0.00139  -2.83429
   D12       -2.00905   0.00004   0.00003   0.00031   0.00034  -2.00870
         Item               Value     Threshold  Converged?
 Maximum Force            0.000507     0.000450     NO 
 RMS     Force            0.000181     0.000300     YES
 Maximum Displacement     0.001682     0.001800     YES
 RMS     Displacement     0.000565     0.001200     YES
 Predicted change in Energy=-3.019421D-07
 GradGradGradGradGradGradGradGradGradGradGradGradGradGradGradGradGradGrad

 ---------------------------------------------------------------------------------------------------
                            Z-MATRIX (ANGSTROMS AND DEGREES)
   CD    Cent   Atom    N1       Length/X        N2       Alpha/Y        N3        Beta/Z          J
 ---------------------------------------------------------------------------------------------------
      1      1  H 
      2      2  C        1   1.080100(     1)
      3      3  C        2   1.340813(     2)      1  119.635(    12)
      4      4  C        2   1.455013(     3)      1  121.298(    13)      3  168.395(    22)      0
      5      5  H        3   1.082647(     4)      2  124.282(    14)      1    2.095(    23)      0
      6      6  O        3   1.354105(     5)      2  123.568(    15)      5  174.154(    24)      0
      7      7  C        4   1.335576(     6)      2  119.188(    16)      1  176.346(    25)      0
      8      8  H        4   1.082430(     7)      2  119.275(    17)      7  174.409(    26)      0
      9      9  C        6   1.445689(     8)      3  115.581(    18)      2   21.073(    27)      0
     10     10  H        7   1.081795(     9)      4  122.591(    19)      2  173.701(    28)      0
     11     11  H        9   1.088853(    10)      6  105.390(    20)      3 -162.393(    29)      0
     12     12  H        9   1.104117(    11)      6  107.282(    21)     11 -115.090(    30)      0
 ---------------------------------------------------------------------------------------------------
                         Z-Matrix orientation:                         
 ---------------------------------------------------------------------
 Center     Atomic      Atomic             Coordinates (Angstroms)
 Number     Number       Type             X           Y           Z
 ---------------------------------------------------------------------
      1          1           0        0.000000    0.000000    0.000000
      2          6           0        0.000000    0.000000    1.080100
      3          6           0        1.165421    0.000000    1.743103
      4          6           0       -1.217864    0.250092    1.835959
      5          1           0        2.137515    0.032701    1.267615
      6          8           0        1.259489    0.073815    3.091918
      7          6           0       -1.185845    0.167660    3.168604
      8          1           0       -2.104618    0.587035    1.314622
      9          6           0        0.074493   -0.315989    3.822569
     10          1           0       -2.029265    0.438394    3.789592
     11          1           0        0.203080    0.095544    4.822422
     12          1           0        0.084364   -1.417342    3.900012
 ---------------------------------------------------------------------
                    Distance matrix (angstroms):
                    1          2          3          4          5
     1  H    0.000000
     2  C    1.080100   0.000000
     3  C    2.096810   1.340813   0.000000
     4  C    2.217315   1.455013   2.398169   0.000000
     5  H    2.485335   2.145973   1.082647   3.410109   0.000000
     6  O    3.339419   2.374695   1.354105   2.783125   2.025019
     7  C    3.387387   2.407528   2.754745   1.335576   3.831017
     8  H    2.549953   2.197505   3.349830   1.082430   4.278456
     9  C    3.836331   2.761619   2.369421   2.436648   3.302338
    10  H    4.321008   3.413423   3.819205   2.123796   4.887434
    11  H    4.827642   3.749046   3.227606   3.310880   4.047548
    12  H    4.150430   3.157195   2.798178   2.955748   3.639721
                    6          7          8          9         10
     6  O    0.000000
     7  C    2.448336   0.000000
     8  H    3.839192   2.111225   0.000000
     9  C    1.445689   1.500012   3.442931   0.000000
    10  H    3.381652   1.081795   2.480574   2.235168   0.000000
    11  H    2.027590   2.160885   4.227493   1.088853   2.483475
    12  H    2.063367   2.158847   3.936167   1.104117   2.814849
                   11         12
    11  H    0.000000
    12  H    1.775882   0.000000
 Symmetry turned off by external request.
 Stoichiometry    C5H6O
 Framework group  C1[X(C5H6O)]
 Deg. of freedom    30
 Full point group                 C1      NOp   1
 Rotational constants (GHZ):           5.5814591           5.3669124           2.8513671
 Standard basis: def2TZVP (5D, 7F)
 The following finite field(s) will be applied:
 An electric field of              0.0040 -0.0064 -0.0002
   222 basis functions,   354 primitive gaussians,   252 cartesian basis functions
    22 alpha electrons       22 beta electrons
       nuclear repulsion energy       223.5158520064 Hartrees.
 NAtoms=   12 NActive=   12 NUniq=   12 SFac= 1.00D+00 NAtFMM=   60 NAOKFM=F Big=F
 Integral buffers will be    131072 words long.
 Raffenetti 2 integral format.
 Two-electron integral symmetry is turned off.
 One-electron integrals computed using PRISM.
   1 Symmetry operations used in ECPInt.
 ECPInt:  NShTT=    4095 NPrTT=   12396 LenC2=    4075 LenP2D=   10418.
 LDataN:  DoStor=T MaxTD1= 6 Len=  172
 NBasis=   222 RedAO= T EigKep=  9.80D-05  NBF=   222
 NBsUse=   222 1.00D-06 EigRej= -1.00D+00 NBFU=   222
 The nuclear repulsion energy is now       223.4636626352 hartrees.
 Initial guess from the checkpoint file:  "checkpoint.chk"
 B after Tr=    -0.000187   -0.001682    0.000111
         Rot=    1.000000    0.000398   -0.000045    0.000340 Ang=   0.06 deg.
 Keep R1 ints in memory in canonical form, NReq=319363885.
 Requested convergence on RMS density matrix=1.00D-08 within 128 cycles.
 Requested convergence on MAX density matrix=1.00D-06.
 Requested convergence on             energy=1.00D-06.
 No special actions if energy rises.
 SCF Done:  E(RB3LYP) =  -269.424458764     A.U. after    7 cycles
            NFock=  7  Conv=0.55D-08     -V/T= 2.0050
   1 Symmetry operations used in ECPInt.
 ECPInt:  NShTT=    4095 NPrTT=   12396 LenC2=    4075 LenP2D=   10418.
 LDataN:  DoStor=T MaxTD1= 7 Len=  274
 Calling FoFJK, ICntrl=      2127 FMM=F ISym2X=0 I1Cent= 0 IOpClX= 0 NMat=1 NMatS=1 NMatT=0.
 -------------------------------------------------------------------
 Center     Atomic                   Forces (Hartrees/Bohr)
 Number     Number              X              Y              Z
 -------------------------------------------------------------------
      1        1          -0.000050916   -0.000679651    0.000005232
      2        6           0.000034679    0.001808214   -0.000050161
      3        6           0.000010077   -0.001102870    0.000144368
      4        6           0.000046109    0.000048832    0.000033726
      5        1           0.000005092   -0.000009615   -0.000011420
      6        8           0.000042151   -0.000011936   -0.000157937
      7        6          -0.000019527   -0.000015985   -0.000014571
      8        1          -0.000008999   -0.000022854   -0.000005586
      9        6          -0.000072567   -0.000040275    0.000059529
     10        1           0.000004616   -0.000002256    0.000001342
     11        1           0.000005674    0.000008549   -0.000006209
     12        1           0.000003610    0.000019845    0.000001690
 -------------------------------------------------------------------
 Cartesian Forces:  Max     0.001808214 RMS     0.000373438
 -----------------------------------------------------------------------------------------------
                       Internal Coordinate Forces (Hartree/Bohr or radian)
  Cent   Atom   N1       Length/X         N2         Alpha/Y        N3         Beta/Z          J
 -----------------------------------------------------------------------------------------------
      1  H 
      2  C        1  -0.000005(     1)
      3  C        2   0.000010(     2)      1   0.000044(    12)
      4  C        2  -0.000010(     3)      1   0.000040(    13)      3   0.000014(    22)     0
      5  H        3   0.000009(     4)      2  -0.000016(    14)      1  -0.000029(    23)     0
      6  O        3  -0.000105(     5)      2   0.000014(    15)      5  -0.000012(    24)     0
      7  C        4  -0.000012(     6)      2   0.000016(    16)      1  -0.000005(    25)     0
      8  H        4   0.000003(     7)      2  -0.000002(    17)      7   0.000045(    26)     0
      9  C        6   0.000083(     8)      3   0.000063(    18)      2  -0.000015(    27)     0
     10  H        7  -0.000003(     9)      4   0.000008(    19)      2   0.000001(    28)     0
     11  H        9  -0.000002(    10)      6  -0.000021(    20)      3   0.000022(    29)     0
     12  H        9  -0.000020(    11)      6  -0.000004(    21)     11   0.000009(    30)     0
 -----------------------------------------------------------------------------------------------
 Internal  Forces:  Max     0.000105292 RMS     0.000032438

 GradGradGradGradGradGradGradGradGradGradGradGradGradGradGradGradGradGrad
 Berny optimization.
 Search for a local minimum.
 Step number   4 out of a maximum of   40
 All quantities printed in internal units (Hartrees-Bohrs-Radians)
 Update second derivatives using D2CorN and points    1    2    3    4
 DE= -4.15D-07 DEPred=-3.02D-07 R= 1.37D+00
 Trust test= 1.37D+00 RLast= 3.10D-03 DXMaxT set to 1.00D-01
 ITU=  0  1  1  0
     Eigenvalues ---    0.01196   0.04355   0.04886   0.06693   0.11435
     Eigenvalues ---    0.15193   0.17036   0.17275   0.18079   0.21990
     Eigenvalues ---    0.24596   0.27953   0.31413   0.33274   0.34949
     Eigenvalues ---    0.35684   0.35694   0.35771   0.35997   0.36813
     Eigenvalues ---    0.38160   0.41367   0.46282   0.53743   0.57373
     Eigenvalues ---    0.57738   0.60041   2.31483   3.91082  24.89748
 RFO step:  Lambda=-7.56249969D-08 EMin= 1.19558724D-02
 Quartic linear search produced a step of  0.52199.
 Variable       Old X    -DE/DX   Delta X   Delta X   Delta X     New X
                                 (Linear)    (Quad)   (Total)
    R2        2.04109  -0.00001  -0.00001  -0.00001  -0.00002   2.04107
    R3        2.53377   0.00001   0.00007  -0.00004   0.00003   2.53380
    R4        2.74958  -0.00001   0.00004  -0.00004   0.00000   2.74958
    R5        2.04591   0.00001   0.00002   0.00003   0.00004   2.04595
    R6        2.55889  -0.00011  -0.00028  -0.00007  -0.00036   2.55853
    R7        2.52387  -0.00001  -0.00005   0.00002  -0.00003   2.52384
    R8        2.04550   0.00000   0.00000   0.00001   0.00001   2.04551
    R9        2.73196   0.00008   0.00020   0.00017   0.00037   2.73233
   R10        2.04430  -0.00000   0.00001  -0.00002  -0.00001   2.04428
   R11        2.05763  -0.00000   0.00002  -0.00002  -0.00000   2.05763
   R12        2.08648  -0.00002  -0.00016   0.00006  -0.00011   2.08637
    A3        2.08803   0.00004  -0.00002   0.00008   0.00006   2.08809
    A4        2.11705   0.00004  -0.00001   0.00001  -0.00001   2.11704
    A5        2.16913  -0.00002   0.00006  -0.00019  -0.00012   2.16901
    A6        2.15667   0.00001   0.00012   0.00004   0.00016   2.15683
    A7        2.08022   0.00002   0.00011   0.00010   0.00021   2.08042
    A8        2.08174  -0.00000  -0.00009  -0.00002  -0.00011   2.08163
    A9        2.01727   0.00006   0.00021   0.00015   0.00036   2.01763
   A10        2.13961   0.00001  -0.00002   0.00003   0.00001   2.13963
   A11        1.83940  -0.00002  -0.00008  -0.00003  -0.00011   1.83929
   A12        1.87243  -0.00000  -0.00024   0.00019  -0.00006   1.87237
    D4        2.93906   0.00001  -0.00058  -0.00008  -0.00066   2.93840
    D5        0.03656  -0.00003  -0.00046  -0.00027  -0.00073   0.03583
    D6        3.03956  -0.00001   0.00040   0.00015   0.00055   3.04011
    D7        3.07782  -0.00000   0.00042   0.00016   0.00058   3.07840
    D8        3.04402   0.00004   0.00030   0.00025   0.00055   3.04457
    D9        0.36779  -0.00002  -0.00088  -0.00015  -0.00103   0.36676
   D10        3.03165   0.00000  -0.00006   0.00003  -0.00004   3.03161
   D11       -2.83429   0.00002   0.00073   0.00056   0.00129  -2.83300
   D12       -2.00870   0.00001   0.00018  -0.00015   0.00003  -2.00867
         Item               Value     Threshold  Converged?
 Maximum Force            0.000105     0.000450     YES
 RMS     Force            0.000032     0.000300     YES
 Maximum Displacement     0.001289     0.001800     YES
 RMS     Displacement     0.000415     0.001200     YES
 Predicted change in Energy=-8.601824D-08
 Optimization completed.
    -- Stationary point found.
                       ----------------------------
                       !   Optimized Parameters   !
                       ! (Angstroms and Degrees)  !
 ----------------------                            ----------------------
 !      Name          Value   Derivative information (Atomic Units)     !
 ------------------------------------------------------------------------
 !       R2          1.0801   -DE/DX =    0.0                           !
 !       R3          1.3408   -DE/DX =    0.0                           !
 !       R4          1.455    -DE/DX =    0.0                           !
 !       R5          1.0826   -DE/DX =    0.0                           !
 !       R6          1.3541   -DE/DX =   -0.0001                        !
 !       R7          1.3356   -DE/DX =    0.0                           !
 !       R8          1.0824   -DE/DX =    0.0                           !
 !       R9          1.4457   -DE/DX =    0.0001                        !
 !       R10         1.0818   -DE/DX =    0.0                           !
 !       R11         1.0889   -DE/DX =    0.0                           !
 !       R12         1.1041   -DE/DX =    0.0                           !
 !       A3        119.6353   -DE/DX =    0.0                           !
 !       A4        121.2978   -DE/DX =    0.0                           !
 !       A5        124.2818   -DE/DX =    0.0                           !
 !       A6        123.5681   -DE/DX =    0.0                           !
 !       A7        119.1876   -DE/DX =    0.0                           !
 !       A8        119.275    -DE/DX =    0.0                           !
 !       A9        115.5809   -DE/DX =    0.0001                        !
 !       A10       122.5909   -DE/DX =    0.0                           !
 !       A11       105.3898   -DE/DX =    0.0                           !
 !       A12       107.2821   -DE/DX =    0.0                           !
 !       D4        168.3955   -DE/DX =    0.0                           !
 !       D5          2.0949   -DE/DX =    0.0                           !
 !       D6        174.154    -DE/DX =    0.0                           !
 !       D7        176.3462   -DE/DX =    0.0                           !
 !       D8        174.4094   -DE/DX =    0.0                           !
 !       D9         21.0729   -DE/DX =    0.0                           !
 !       D10       173.7006   -DE/DX =    0.0                           !
 !       D11      -162.3928   -DE/DX =    0.0                           !
 !       D12      -115.0902   -DE/DX =    0.0                           !
 ------------------------------------------------------------------------
 GradGradGradGradGradGradGradGradGradGradGradGradGradGradGradGradGradGrad

 ---------------------------------------------------------------------------------------------------
                            Z-MATRIX (ANGSTROMS AND DEGREES)
   CD    Cent   Atom    N1       Length/X        N2       Alpha/Y        N3        Beta/Z          J
 ---------------------------------------------------------------------------------------------------
      1      1  H 
      2      2  C        1   1.080100(     1)
      3      3  C        2   1.340813(     2)      1  119.635(    12)
      4      4  C        2   1.455013(     3)      1  121.298(    13)      3  168.395(    22)      0
      5      5  H        3   1.082647(     4)      2  124.282(    14)      1    2.095(    23)      0
      6      6  O        3   1.354105(     5)      2  123.568(    15)      5  174.154(    24)      0
      7      7  C        4   1.335576(     6)      2  119.188(    16)      1  176.346(    25)      0
      8      8  H        4   1.082430(     7)      2  119.275(    17)      7  174.409(    26)      0
      9      9  C        6   1.445689(     8)      3  115.581(    18)      2   21.073(    27)      0
     10     10  H        7   1.081795(     9)      4  122.591(    19)      2  173.701(    28)      0
     11     11  H        9   1.088853(    10)      6  105.390(    20)      3 -162.393(    29)      0
     12     12  H        9   1.104117(    11)      6  107.282(    21)     11 -115.090(    30)      0
 ---------------------------------------------------------------------------------------------------
                         Z-Matrix orientation:                         
 ---------------------------------------------------------------------
 Center     Atomic      Atomic             Coordinates (Angstroms)
 Number     Number       Type             X           Y           Z
 ---------------------------------------------------------------------
      1          1           0        0.000000    0.000000    0.000000
      2          6           0        0.000000    0.000000    1.080100
      3          6           0        1.165421    0.000000    1.743103
      4          6           0       -1.217864    0.250092    1.835959
      5          1           0        2.137515    0.032701    1.267615
      6          8           0        1.259489    0.073815    3.091918
      7          6           0       -1.185845    0.167660    3.168604
      8          1           0       -2.104618    0.587035    1.314622
      9          6           0        0.074493   -0.315989    3.822569
     10          1           0       -2.029265    0.438394    3.789592
     11          1           0        0.203080    0.095544    4.822422
     12          1           0        0.084364   -1.417342    3.900012
 ---------------------------------------------------------------------
                    Distance matrix (angstroms):
                    1          2          3          4          5
     1  H    0.000000
     2  C    1.080100   0.000000
     3  C    2.096810   1.340813   0.000000
     4  C    2.217315   1.455013   2.398169   0.000000
     5  H    2.485335   2.145973   1.082647   3.410109   0.000000
     6  O    3.339419   2.374695   1.354105   2.783125   2.025019
     7  C    3.387387   2.407528   2.754745   1.335576   3.831017
     8  H    2.549953   2.197505   3.349830   1.082430   4.278456
     9  C    3.836331   2.761619   2.369421   2.436648   3.302338
    10  H    4.321008   3.413423   3.819205   2.123796   4.887434
    11  H    4.827642   3.749046   3.227606   3.310880   4.047548
    12  H    4.150430   3.157195   2.798178   2.955748   3.639721
                    6          7          8          9         10
     6  O    0.000000
     7  C    2.448336   0.000000
     8  H    3.839192   2.111225   0.000000
     9  C    1.445689   1.500012   3.442931   0.000000
    10  H    3.381652   1.081795   2.480574   2.235168   0.000000
    11  H    2.027590   2.160885   4.227493   1.088853   2.483475
    12  H    2.063367   2.158847   3.936167   1.104117   2.814849
                   11         12
    11  H    0.000000
    12  H    1.775882   0.000000
 Symmetry turned off by external request.
 Stoichiometry    C5H6O
 Framework group  C1[X(C5H6O)]
 Deg. of freedom    30
 Full point group                 C1      NOp   1
 Rotational constants (GHZ):           5.5814591           5.3669124           2.8513671

 **********************************************************************

            Population analysis using the SCF density.

 **********************************************************************

 Alpha  occ. eigenvalues --  -19.16330 -10.23418 -10.23226 -10.17194 -10.16675
 Alpha  occ. eigenvalues --  -10.16664  -1.07175  -0.81031  -0.77492  -0.66415
 Alpha  occ. eigenvalues --   -0.62487  -0.53245  -0.50962  -0.48460  -0.46265
 Alpha  occ. eigenvalues --   -0.43533  -0.40764  -0.37610  -0.36044  -0.33000
 Alpha  occ. eigenvalues --   -0.29980  -0.20924
 Alpha virt. eigenvalues --   -0.03068   0.04208   0.05453   0.07679   0.07924
 Alpha virt. eigenvalues --    0.09536   0.09706   0.11437   0.13871   0.16295
 Alpha virt. eigenvalues --    0.17649   0.19372   0.21250   0.22349   0.23219
 Alpha virt. eigenvalues --    0.24855   0.26036   0.27517   0.28460   0.29975
 Alpha virt. eigenvalues --    0.30872   0.33417   0.35005   0.36321   0.37432
 Alpha virt. eigenvalues --    0.38148   0.39338   0.40874   0.41424   0.44048
 Alpha virt. eigenvalues --    0.44293   0.45650   0.46663   0.49320   0.50862
 Alpha virt. eigenvalues --    0.53299   0.55443   0.57958   0.59745   0.63011
 Alpha virt. eigenvalues --    0.65299   0.66665   0.68939   0.72096   0.74004
 Alpha virt. eigenvalues --    0.77857   0.82212   0.85195   0.85511   0.89397
 Alpha virt. eigenvalues --    0.90999   0.93202   0.95932   0.97306   0.99700
 Alpha virt. eigenvalues --    1.05592   1.07411   1.09079   1.11370   1.12438
 Alpha virt. eigenvalues --    1.15594   1.18215   1.20189   1.23774   1.26622
 Alpha virt. eigenvalues --    1.30542   1.33455   1.36956   1.40308   1.43021
 Alpha virt. eigenvalues --    1.45036   1.45677   1.48848   1.51653   1.52812
 Alpha virt. eigenvalues --    1.56097   1.59870   1.63033   1.65318   1.67765
 Alpha virt. eigenvalues --    1.70099   1.72623   1.74778   1.77974   1.80201
 Alpha virt. eigenvalues --    1.85741   1.87281   1.90555   1.91702   1.97135
 Alpha virt. eigenvalues --    1.99941   2.01028   2.05866   2.10515   2.12865
 Alpha virt. eigenvalues --    2.15487   2.17705   2.21142   2.23309   2.26567
 Alpha virt. eigenvalues --    2.27600   2.36604   2.38076   2.45531   2.46114
 Alpha virt. eigenvalues --    2.51305   2.52017   2.52993   2.57756   2.59780
 Alpha virt. eigenvalues --    2.61467   2.62311   2.65832   2.68025   2.70958
 Alpha virt. eigenvalues --    2.72473   2.74404   2.77391   2.79261   2.81013
 Alpha virt. eigenvalues --    2.83537   2.84534   2.88098   2.88686   2.90764
 Alpha virt. eigenvalues --    2.93947   2.97882   3.01862   3.02287   3.07775
 Alpha virt. eigenvalues --    3.08212   3.11641   3.13154   3.15794   3.16596
 Alpha virt. eigenvalues --    3.18962   3.20103   3.23040   3.24747   3.25385
 Alpha virt. eigenvalues --    3.29099   3.29706   3.32852   3.36241   3.39006
 Alpha virt. eigenvalues --    3.40523   3.40867   3.45104   3.46294   3.48698
 Alpha virt. eigenvalues --    3.54743   3.58823   3.62385   3.67713   3.69825
 Alpha virt. eigenvalues --    3.78454   3.83781   3.88381   3.91292   3.94204
 Alpha virt. eigenvalues --    3.97699   4.03571   4.04897   4.12409   4.17323
 Alpha virt. eigenvalues --    4.20399   4.25352   4.28945   4.36815   4.40136
 Alpha virt. eigenvalues --    4.45570   4.52791   4.58446   4.63469   4.66701
 Alpha virt. eigenvalues --    4.68060   4.79344   4.84262   4.91233   4.94977
 Alpha virt. eigenvalues --    5.12853   5.18122   5.36106   5.45062   5.74705
 Alpha virt. eigenvalues --    5.85120   5.89822   6.23328   6.32497   6.65337
 Alpha virt. eigenvalues --    6.76324   6.86426   7.14796   7.25150  22.06594
 Alpha virt. eigenvalues --   22.31799  22.42562  22.74846  22.92564  44.04613
          Condensed to atoms (all electrons):
               1          2          3          4          5          6
     1  H    0.553869   0.400106  -0.031399  -0.037903  -0.004478   0.005408
     2  C    0.400106   5.089509   0.588244   0.376678  -0.073668  -0.072355
     3  C   -0.031399   0.588244   4.764231  -0.056475   0.430632   0.327475
     4  C   -0.037903   0.376678  -0.056475   4.826224   0.006464  -0.013603
     5  H   -0.004478  -0.073668   0.430632   0.006464   0.578160  -0.041666
     6  O    0.005408  -0.072355   0.327475  -0.013603  -0.041666   7.918503
     7  C    0.005236  -0.065255  -0.032261   0.663409  -0.001404  -0.028837
     8  H   -0.004240  -0.046242   0.004189   0.415913  -0.000292  -0.000944
     9  C   -0.000252  -0.035123  -0.055467  -0.045188   0.004339   0.282658
    10  H   -0.000203   0.004649   0.002064  -0.026027   0.000156   0.003249
    11  H    0.000136   0.004325  -0.001524   0.001608  -0.000594  -0.028786
    12  H   -0.000378  -0.001431   0.037975  -0.009429   0.002156  -0.075085
               7          8          9         10         11         12
     1  H    0.005236  -0.004240  -0.000252  -0.000203   0.000136  -0.000378
     2  C   -0.065255  -0.046242  -0.035123   0.004649   0.004325  -0.001431
     3  C   -0.032261   0.004189  -0.055467   0.002064  -0.001524   0.037975
     4  C    0.663409   0.415913  -0.045188  -0.026027   0.001608  -0.009429
     5  H   -0.001404  -0.000292   0.004339   0.000156  -0.000594   0.002156
     6  O   -0.028837  -0.000944   0.282658   0.003249  -0.028786  -0.075085
     7  C    5.011304  -0.027809   0.369159   0.400565  -0.031318  -0.084222
     8  H   -0.027809   0.515016   0.007460  -0.006618  -0.000276  -0.000159
     9  C    0.369159   0.007460   4.691973  -0.039686   0.416417   0.357423
    10  H    0.400565  -0.006618  -0.039686   0.518930  -0.005148   0.007544
    11  H   -0.031318  -0.000276   0.416417  -0.005148   0.588846  -0.064530
    12  H   -0.084222  -0.000159   0.357423   0.007544  -0.064530   0.792705
 Mulliken charges:
               1
     1  H    0.114098
     2  C   -0.169437
     3  C    0.022314
     4  C   -0.101671
     5  H    0.100194
     6  O   -0.276018
     7  C   -0.178567
     8  H    0.144002
     9  C    0.046287
    10  H    0.140524
    11  H    0.120843
    12  H    0.037431
 Sum of Mulliken charges =  -0.00000
 Mulliken charges with hydrogens summed into heavy atoms:
               1
     2  C   -0.055339
     3  C    0.122508
     4  C    0.042331
     6  O   -0.276018
     7  C   -0.038043
     9  C    0.204561
 Electronic spatial extent (au):  <R**2>=           1439.0516
 Charge=             -0.0000 electrons
 Dipole moment (field-independent basis, Debye):
    X=             -1.3707    Y=              0.5934    Z=              0.0092  Tot=              1.4937
 Quadrupole moment (field-independent basis, Debye-Ang):
   XX=            -34.8144   YY=            -38.3401   ZZ=            -31.7958
   XY=             -1.1712   XZ=             -5.2826   YZ=              0.7317
 Traceless Quadrupole moment (field-independent basis, Debye-Ang):
   XX=              0.1690   YY=             -3.3567   ZZ=              3.1877
   XY=             -1.1712   XZ=             -5.2826   YZ=              0.7317
 Octapole moment (field-independent basis, Debye-Ang**2):
  XXX=             -3.1183  YYY=             -1.5578  ZZZ=           -233.8555  XYY=              0.4247
  XXY=              3.2540  XXZ=            -90.7280  XZZ=            -20.1039  YZZ=              1.6652
  YYZ=            -92.4633  XYZ=             -2.8550
 Hexadecapole moment (field-independent basis, Debye-Ang**3):
 XXXX=           -262.2963 YYYY=            -62.8761 ZZZZ=          -1412.2200 XXXY=              4.5343
 XXXZ=            -12.4892 YYYX=             12.5889 YYYZ=              5.9766 ZZZX=            -68.1459
 ZZZY=             20.3792 XXYY=            -58.9822 XXZZ=           -324.3322 YYZZ=           -285.3652
 XXYZ=             10.4999 YYXZ=              4.0119 ZZXY=             -4.9629
 N-N= 2.234636626352D+02 E-N=-1.074774653541D+03  KE= 2.680794803530D+02
 1\1\GINC-BHC0032\FOpt\RB3LYP\def2TZVP\C5H6O1\DHANAWAY\21-Mar-2022\1\\#
  Opt=(Z-matrix, MaxStep=10) B3LYP/Def2TZVP geom=allcheckpoint guess=re
 ad Field=read NoSymm\\int_zmat_initalOpt\\0,1\H\C,1,R2\C,2,R3,1,A3\C,2
 ,R4,1,A4,3,D4,0\H,3,R5,2,A5,1,D5,0\O,3,R6,2,A6,5,D6,0\C,4,R7,2,A7,1,D7
 ,0\H,4,R8,2,A8,7,D8,0\C,6,R9,3,A9,2,D9,0\H,7,R10,4,A10,2,D10,0\H,9,R11
 ,6,A11,3,D11,0\H,9,R12,6,A12,11,D12,0\\R2=1.08009983\R3=1.340813\R4=1.
 45501284\R5=1.08264669\R6=1.35410494\R7=1.33557593\R8=1.08243042\R9=1.
 44568865\R10=1.08179481\R11=1.08885274\R12=1.10411651\A3=119.63534818\
 A4=121.29781811\A5=124.28183033\A6=123.56813445\A7=119.1876411\A8=119.
 27504941\A9=115.58094767\A10=122.59090848\A11=105.3897573\A12=107.2821
 4482\D4=168.3954518\D5=2.09492087\D6=174.1539712\D7=176.34617198\D8=17
 4.40939866\D9=21.0728735\D10=173.70061267\D11=-162.39275035\D12=-115.0
 9019517\\Version=ES64L-G16RevA.03\HF=-269.4244588\RMSD=5.491e-09\RMSF=
 3.734e-04\Dipole=-0.5392894,0.2334727,0.0036108\Quadrupole=0.1256783,-
 2.495621,2.3699427,-0.8707412,-3.9274558,0.5439741\PG=C01 [X(C5H6O1)]\
 \@


 POCKETA-POCKETA
 BARON VON RICHTOFEN
 SLAUGHTERED THE ALLIES WITH
 HARDLY A CARE.
 KILLED EIGHTY-ONE WITH HIS
 BLOOD-COLORED TRIPLANE, THEN
 UN-AEROBATICALLY
 PLUNGED FROM THE AIR.
   -- TONY HOFFMAN
 Job cpu time:       0 days  0 hours 15 minutes 27.5 seconds.
 Elapsed time:       0 days  0 hours  1 minutes 39.2 seconds.
 File lengths (MBytes):  RWF=     24 Int=      0 D2E=      0 Chk=     32 Scr=      1
 Normal termination of Gaussian 16 at Mon Mar 21 08:07:07 2022.
