 Entering Gaussian System, Link 0=g16
 Input=ts_zmat_field_N100.gjf
 Output=ts_zmat_field_N100.out
 Initial command:
 /software/gaussian/g16-a03/l1.exe "/local_scratch/9886874/Gau-2242.inp" -scrdir="/local_scratch/9886874/"
 Entering Link 1 = /software/gaussian/g16-a03/l1.exe PID=      2243.
  
 Copyright (c) 1988,1990,1992,1993,1995,1998,2003,2009,2016,
            Gaussian, Inc.  All Rights Reserved.
  
 This is part of the Gaussian(R) 16 program.  It is based on
 the Gaussian(R) 09 system (copyright 2009, Gaussian, Inc.),
 the Gaussian(R) 03 system (copyright 2003, Gaussian, Inc.),
 the Gaussian(R) 98 system (copyright 1998, Gaussian, Inc.),
 the Gaussian(R) 94 system (copyright 1995, Gaussian, Inc.),
 the Gaussian 92(TM) system (copyright 1992, Gaussian, Inc.),
 the Gaussian 90(TM) system (copyright 1990, Gaussian, Inc.),
 the Gaussian 88(TM) system (copyright 1988, Gaussian, Inc.),
 the Gaussian 86(TM) system (copyright 1986, Carnegie Mellon
 University), and the Gaussian 82(TM) system (copyright 1983,
 Carnegie Mellon University). Gaussian is a federally registered
 trademark of Gaussian, Inc.
  
 This software contains proprietary and confidential information,
 including trade secrets, belonging to Gaussian, Inc.
  
 This software is provided under written license and may be
 used, copied, transmitted, or stored only in accord with that
 written license.
  
 The following legend is applicable only to US Government
 contracts under FAR:
  
                    RESTRICTED RIGHTS LEGEND
  
 Use, reproduction and disclosure by the US Government is
 subject to restrictions as set forth in subparagraphs (a)
 and (c) of the Commercial Computer Software - Restricted
 Rights clause in FAR 52.227-19.
  
 Gaussian, Inc.
 340 Quinnipiac St., Bldg. 40, Wallingford CT 06492
  
  
 ---------------------------------------------------------------
 Warning -- This program may not be used in any manner that
 competes with the business of Gaussian, Inc. or will provide
 assistance to any competitor of Gaussian, Inc.  The licensee
 of this program is prohibited from giving any competitor of
 Gaussian, Inc. access to this program.  By using this program,
 the user acknowledges that Gaussian, Inc. is engaged in the
 business of creating and licensing software in the field of
 computational chemistry and represents and warrants to the
 licensee that it is not a competitor of Gaussian, Inc. and that
 it will not use this program in any manner prohibited above.
 ---------------------------------------------------------------
  

 Cite this work as:
 Gaussian 16, Revision A.03,
 M. J. Frisch, G. W. Trucks, H. B. Schlegel, G. E. Scuseria, 
 M. A. Robb, J. R. Cheeseman, G. Scalmani, V. Barone, 
 G. A. Petersson, H. Nakatsuji, X. Li, M. Caricato, A. V. Marenich, 
 J. Bloino, B. G. Janesko, R. Gomperts, B. Mennucci, H. P. Hratchian, 
 J. V. Ortiz, A. F. Izmaylov, J. L. Sonnenberg, D. Williams-Young, 
 F. Ding, F. Lipparini, F. Egidi, J. Goings, B. Peng, A. Petrone, 
 T. Henderson, D. Ranasinghe, V. G. Zakrzewski, J. Gao, N. Rega, 
 G. Zheng, W. Liang, M. Hada, M. Ehara, K. Toyota, R. Fukuda, 
 J. Hasegawa, M. Ishida, T. Nakajima, Y. Honda, O. Kitao, H. Nakai, 
 T. Vreven, K. Throssell, J. A. Montgomery, Jr., J. E. Peralta, 
 F. Ogliaro, M. J. Bearpark, J. J. Heyd, E. N. Brothers, K. N. Kudin, 
 V. N. Staroverov, T. A. Keith, R. Kobayashi, J. Normand, 
 K. Raghavachari, A. P. Rendell, J. C. Burant, S. S. Iyengar, 
 J. Tomasi, M. Cossi, J. M. Millam, M. Klene, C. Adamo, R. Cammi, 
 J. W. Ochterski, R. L. Martin, K. Morokuma, O. Farkas, 
 J. B. Foresman, and D. J. Fox, Gaussian, Inc., Wallingford CT, 2016.
 
 ******************************************
 Gaussian 16:  ES64L-G16RevA.03 25-Dec-2016
                18-Mar-2022 
 ******************************************
 %nprocshared=12
 Will use up to   12 processors via shared memory.
 %chk=checkpoint.chk
 %mem=12GB
 ----------------------------------------------------------------------
 # Opt=(TS, CalcFC, noeigentest, Z-matrix, MaxStep=10) geom=allcheckpoi
 nt guess=read Field=read NoSymm B3LYP/Def2TZVP
 ----------------------------------------------------------------------
 1/5=1,8=10,10=4,11=1,18=40,26=3,29=7,38=1/1,3;
 2/12=2,15=1,29=3,40=1/2;
 3/5=44,7=101,11=2,14=-6,25=1,30=1,71=2,74=-5,116=-2,140=1/1,2,3;
 4/5=1/1;
 5/5=2,38=6/2;
 8/6=4,10=90,11=11/1;
 11/6=1,8=1,9=11,15=111,16=1,31=1/1,2,10;
 10/6=1,13=1,31=1/2;
 6/7=2,8=2,9=2,10=2,28=1/1;
 7/10=1,18=20,25=1,30=1/1,2,3,16;
 1/5=1,8=10,10=4,11=1,18=40,26=3/3(2);
 2/15=1,29=3/2;
 99//99;
 2/15=1,29=3/2;
 3/5=44,7=101,11=2,14=-2,25=1,30=1,71=1,74=-5/1,2,3;
 4/5=5,16=3,69=1/1;
 5/5=2,38=5/2;
 7/30=1/1,2,3,16;
 1/5=1,8=10,11=1,18=40,26=3/3(-5);
 2/15=1,29=3/2;
 6/7=2,8=2,9=2,10=2,19=2,28=1/1;
 99/9=1/99;
 Structure from the checkpoint file:  "checkpoint.chk"
 -----------------
 ts_zmat_initalOpt
 -----------------
 Charge =  0 Multiplicity = 1
 Z-Matrix found in chk file.
 H
 C,1,R2
 C,2,R3,1,A3
 C,2,R4,1,A4,3,D4,0
 H,3,R5,2,A5,1,D5,0
 C,3,R6,2,A6,5,D6,0
 H,4,R7,2,A7,1,D7,0
 H,4,R8,2,A8,7,D8,0
 H,6,R9,3,A9,2,D9,0
 C,6,R10,3,A10,9,D10,0
 H,10,R11,6,A11,3,D11,0
 O,10,R12,6,A12,11,D12,0
      Variables:
 R2=1.08256057
 R3=1.38323712
 R4=1.39437691
 R5=1.0851119
 R6=1.40564116
 R7=1.08293695
 R8=1.08163282
 R9=1.08184937
 R10=1.40471156
 R11=1.09721333
 R12=1.26445278
 A3=120.4332842
 A4=121.39570792
 A5=119.82418666
 A6=120.9462266
 A7=120.37407051
 A8=118.32093554
 A9=119.05053988
 A10=119.11440404
 A11=115.69746306
 A12=128.21919511
 D4=171.81057581
 D5=-16.58503135
 D6=167.36816188
 D7=-9.13033783
 D8=151.23814964
 D9=-174.56495063
 D10=153.18376952
 D11=-142.78279574
 D12=171.31701448
 Recover connectivity data from disk.

 GradGradGradGradGradGradGradGradGradGradGradGradGradGradGradGradGradGrad
 Berny optimization.
 Initialization pass.
                       ----------------------------
                       !    Initial Parameters    !
                       ! (Angstroms and Degrees)  !
 ----------------------                            ----------------------
 !      Name          Value   Derivative information (Atomic Units)     !
 ------------------------------------------------------------------------
 !       R2          1.0826   calculate D2E/DX2 analytically            !
 !       R3          1.3832   calculate D2E/DX2 analytically            !
 !       R4          1.3944   calculate D2E/DX2 analytically            !
 !       R5          1.0851   calculate D2E/DX2 analytically            !
 !       R6          1.4056   calculate D2E/DX2 analytically            !
 !       R7          1.0829   calculate D2E/DX2 analytically            !
 !       R8          1.0816   calculate D2E/DX2 analytically            !
 !       R9          1.0818   calculate D2E/DX2 analytically            !
 !       R10         1.4047   calculate D2E/DX2 analytically            !
 !       R11         1.0972   calculate D2E/DX2 analytically            !
 !       R12         1.2645   calculate D2E/DX2 analytically            !
 !       A3        120.4333   calculate D2E/DX2 analytically            !
 !       A4        121.3957   calculate D2E/DX2 analytically            !
 !       A5        119.8242   calculate D2E/DX2 analytically            !
 !       A6        120.9462   calculate D2E/DX2 analytically            !
 !       A7        120.3741   calculate D2E/DX2 analytically            !
 !       A8        118.3209   calculate D2E/DX2 analytically            !
 !       A9        119.0505   calculate D2E/DX2 analytically            !
 !       A10       119.1144   calculate D2E/DX2 analytically            !
 !       A11       115.6975   calculate D2E/DX2 analytically            !
 !       A12       128.2192   calculate D2E/DX2 analytically            !
 !       D4        171.8106   calculate D2E/DX2 analytically            !
 !       D5        -16.585    calculate D2E/DX2 analytically            !
 !       D6        167.3682   calculate D2E/DX2 analytically            !
 !       D7         -9.1303   calculate D2E/DX2 analytically            !
 !       D8        151.2381   calculate D2E/DX2 analytically            !
 !       D9       -174.565    calculate D2E/DX2 analytically            !
 !       D10       153.1838   calculate D2E/DX2 analytically            !
 !       D11      -142.7828   calculate D2E/DX2 analytically            !
 !       D12       171.317    calculate D2E/DX2 analytically            !
 ------------------------------------------------------------------------
 Trust Radius=1.00D-01 FncErr=1.00D-07 GrdErr=1.00D-06 EigMax=2.50D+02 EigMin=1.00D-04
 Number of steps in this run=     40 maximum allowed number of steps=    100.
 Search for a saddle point of order  1.
 GradGradGradGradGradGradGradGradGradGradGradGradGradGradGradGradGradGrad

 ---------------------------------------------------------------------------------------------------
                            Z-MATRIX (ANGSTROMS AND DEGREES)
   CD    Cent   Atom    N1       Length/X        N2       Alpha/Y        N3        Beta/Z          J
 ---------------------------------------------------------------------------------------------------
      1      1  H 
      2      2  C        1   1.082561(     1)
      3      3  C        2   1.383237(     2)      1  120.433(    12)
      4      4  C        2   1.394377(     3)      1  121.396(    13)      3  171.811(    22)      0
      5      5  H        3   1.085112(     4)      2  119.824(    14)      1  -16.585(    23)      0
      6      6  C        3   1.405641(     5)      2  120.946(    15)      5  167.368(    24)      0
      7      7  H        4   1.082937(     6)      2  120.374(    16)      1   -9.130(    25)      0
      8      8  H        4   1.081633(     7)      2  118.321(    17)      7  151.238(    26)      0
      9      9  H        6   1.081849(     8)      3  119.051(    18)      2 -174.565(    27)      0
     10     10  C        6   1.404712(     9)      3  119.114(    19)      9  153.184(    28)      0
     11     11  H       10   1.097213(    10)      6  115.697(    20)      3 -142.783(    29)      0
     12     12  O       10   1.264453(    11)      6  128.219(    21)     11  171.317(    30)      0
 ---------------------------------------------------------------------------------------------------
                         Z-Matrix orientation:                         
 ---------------------------------------------------------------------
 Center     Atomic      Atomic             Coordinates (Angstroms)
 Number     Number       Type             X           Y           Z
 ---------------------------------------------------------------------
      1          1           0        0.000000    0.000000    0.000000
      2          6           0        0.000000    0.000000    1.082561
      3          6           0        1.192654    0.000000    1.783218
      4          6           0       -1.178089    0.169543    1.808955
      5          1           0        2.114979   -0.268710    1.278659
      6          6           0        1.282926    0.588448    3.056563
      7          1           0       -2.095263    0.451319    1.306814
      8          1           0       -1.307477   -0.402660    2.717675
      9          1           0        2.249066    0.650229    3.539424
     10          6           0        0.332593    1.551902    3.433176
     11          1           0        0.713706    2.386030    4.035556
     12          8           0       -0.866148    1.661380    3.046039
 ---------------------------------------------------------------------
                    Distance matrix (angstroms):
                    1          2          3          4          5
     1  H    0.000000
     2  C    1.082561   0.000000
     3  C    2.145295   1.383237   0.000000
     4  C    2.165400   1.394377   2.376937   0.000000
     5  H    2.486023   2.140980   1.085112   3.364160   0.000000
     6  C    3.366712   2.426697   1.405641   2.790806   2.141956
     7  H    2.510294   2.155019   3.352767   1.082937   4.271460
     8  H    3.042596   2.131955   2.699259   1.081633   3.715093
     9  H    4.243656   3.393711   2.150131   3.869234   2.444072
    10  C    3.782290   2.836267   2.422905   2.613651   3.336686
    11  H    4.742175   3.862990   3.315955   3.667349   4.075744
    12  O    3.576136   2.713972   2.931479   1.962972   3.966863
                    6          7          8          9         10
     6  C    0.000000
     7  H    3.806913   0.000000
     8  H    2.794160   1.827681   0.000000
     9  H    1.081849   4.888487   3.799058   0.000000
    10  C    1.404712   3.409866   2.649921   2.120654   0.000000
    11  H    2.124556   4.368002   3.687652   2.369912   1.097213
    12  O    2.402044   2.449464   2.136084   3.312162   1.264453
                   11         12
    11  H    0.000000
    12  O    2.000050   0.000000
 Symmetry turned off by external request.
 Stoichiometry    C5H6O
 Framework group  C1[X(C5H6O)]
 Deg. of freedom    30
 Full point group                 C1      NOp   1
 Rotational constants (GHZ):           5.5336964           4.6774601           2.6969576
 Standard basis: def2TZVP (5D, 7F)
 The following finite field(s) will be applied:
 An electric field of             -0.0047  0.0006  0.0088
   222 basis functions,   354 primitive gaussians,   252 cartesian basis functions
    22 alpha electrons       22 beta electrons
       nuclear repulsion energy       217.7619809204 Hartrees.
 NAtoms=   12 NActive=   12 NUniq=   12 SFac= 1.00D+00 NAtFMM=   60 NAOKFM=F Big=F
 Integral buffers will be    131072 words long.
 Raffenetti 2 integral format.
 Two-electron integral symmetry is turned off.
 One-electron integrals computed using PRISM.
   1 Symmetry operations used in ECPInt.
 ECPInt:  NShTT=    4095 NPrTT=   12396 LenC2=    4075 LenP2D=   10359.
 LDataN:  DoStor=T MaxTD1= 6 Len=  172
 NBasis=   222 RedAO= T EigKep=  1.15D-04  NBF=   222
 NBsUse=   222 1.00D-06 EigRej= -1.00D+00 NBFU=   222
 The nuclear repulsion energy is now       219.4860469591 hartrees.
 Initial guess from the checkpoint file:  "checkpoint.chk"
 B after Tr=     0.000000   -0.000000    0.000000
         Rot=    1.000000    0.000000    0.000000    0.000000 Ang=   0.00 deg.
 Keep R1 ints in memory in canonical form, NReq=319363861.
 Requested convergence on RMS density matrix=1.00D-08 within 128 cycles.
 Requested convergence on MAX density matrix=1.00D-06.
 Requested convergence on             energy=1.00D-06.
 No special actions if energy rises.
 SCF Done:  E(RB3LYP) =  -269.398449735     A.U. after   11 cycles
            NFock= 11  Conv=0.54D-08     -V/T= 2.0050
 DoSCS=F DFT=T ScalE2(SS,OS)=  1.000000  1.000000
 Range of M.O.s used for correlation:     1   222
 NBasis=   222 NAE=    22 NBE=    22 NFC=     0 NFV=     0
 NROrb=    222 NOA=    22 NOB=    22 NVA=   200 NVB=   200

 **** Warning!!: The largest alpha MO coefficient is  0.19372700D+02

   1 Symmetry operations used in ECPInt.
 ECPInt:  NShTT=    4095 NPrTT=   12396 LenC2=    4075 LenP2D=   10359.
 LDataN:  DoStor=T MaxTD1= 7 Len=  274
 Symmetrizing basis deriv contribution to polar:
 IMax=3 JMax=2 DiffMx= 0.00D+00
 G2DrvN: will do    13 centers at a time, making    1 passes.
 Calling FoFCou, ICntrl=  3107 FMM=F I1Cent=   0 AccDes= 0.00D+00.
 End of G2Drv F.D. properties file   721 does not exist.
 End of G2Drv F.D. properties file   722 does not exist.
 End of G2Drv F.D. properties file   788 does not exist.
          IDoAtm=111111111111
          Differentiating once with respect to nuclear coordinates.
 Keep R1 ints in memory in canonical form, NReq=319333990.
          There are    39 degrees of freedom in the 1st order CPHF.  IDoFFX=6 NUNeed=     0.
     33 vectors produced by pass  0 Test12= 1.13D-14 2.56D-09 XBig12= 1.91D-01 2.62D-01.
 AX will form    33 AO Fock derivatives at one time.
     33 vectors produced by pass  1 Test12= 1.13D-14 2.56D-09 XBig12= 3.53D-02 4.70D-02.
     33 vectors produced by pass  2 Test12= 1.13D-14 2.56D-09 XBig12= 4.90D-04 3.58D-03.
     33 vectors produced by pass  3 Test12= 1.13D-14 2.56D-09 XBig12= 2.06D-06 2.16D-04.
     33 vectors produced by pass  4 Test12= 1.13D-14 2.56D-09 XBig12= 4.19D-09 9.96D-06.
     33 vectors produced by pass  5 Test12= 1.13D-14 2.56D-09 XBig12= 7.58D-12 3.42D-07.
      6 vectors produced by pass  6 Test12= 1.13D-14 2.56D-09 XBig12= 1.07D-14 1.62D-08.
 InvSVY:  IOpt=1 It=  1 EMax= 2.66D-15
 Solved reduced A of dimension   204 with    33 vectors.
 End of Minotr F.D. properties file   721 does not exist.
 End of Minotr F.D. properties file   722 does not exist.
 End of Minotr F.D. properties file   788 does not exist.

 **********************************************************************

            Population analysis using the SCF density.

 **********************************************************************

 Alpha  occ. eigenvalues --  -19.18339 -10.29251 -10.26176 -10.22882 -10.20941
 Alpha  occ. eigenvalues --  -10.20090  -1.08618  -0.86351  -0.79577  -0.70497
 Alpha  occ. eigenvalues --   -0.64571  -0.56421  -0.54548  -0.50959  -0.49746
 Alpha  occ. eigenvalues --   -0.48164  -0.43343  -0.41924  -0.41100  -0.36469
 Alpha  occ. eigenvalues --   -0.32802  -0.25307
 Alpha virt. eigenvalues --   -0.10685  -0.04082   0.00883   0.01292   0.03244
 Alpha virt. eigenvalues --    0.04361   0.05896   0.08566   0.09779   0.11349
 Alpha virt. eigenvalues --    0.14101   0.15707   0.16527   0.17144   0.19313
 Alpha virt. eigenvalues --    0.20043   0.21248   0.24053   0.24357   0.25373
 Alpha virt. eigenvalues --    0.27072   0.29783   0.30621   0.32548   0.34291
 Alpha virt. eigenvalues --    0.35651   0.37077   0.38089   0.38778   0.40161
 Alpha virt. eigenvalues --    0.40767   0.41941   0.42560   0.44793   0.45876
 Alpha virt. eigenvalues --    0.49121   0.50445   0.50753   0.53409   0.54627
 Alpha virt. eigenvalues --    0.58161   0.61851   0.64922   0.65764   0.70938
 Alpha virt. eigenvalues --    0.76136   0.78827   0.83207   0.83724   0.86170
 Alpha virt. eigenvalues --    0.89506   0.90093   0.92682   0.93141   0.93958
 Alpha virt. eigenvalues --    0.97366   1.00156   1.03392   1.07019   1.08520
 Alpha virt. eigenvalues --    1.11313   1.13584   1.15858   1.19946   1.20177
 Alpha virt. eigenvalues --    1.25312   1.27522   1.31329   1.35363   1.36057
 Alpha virt. eigenvalues --    1.39609   1.40487   1.42693   1.44408   1.47828
 Alpha virt. eigenvalues --    1.49304   1.53978   1.56580   1.59781   1.60904
 Alpha virt. eigenvalues --    1.63480   1.65131   1.69745   1.74103   1.75100
 Alpha virt. eigenvalues --    1.77874   1.79269   1.81583   1.85520   1.87642
 Alpha virt. eigenvalues --    1.90455   1.93449   2.01057   2.03338   2.07175
 Alpha virt. eigenvalues --    2.11341   2.11698   2.15480   2.17422   2.22272
 Alpha virt. eigenvalues --    2.24347   2.28481   2.33591   2.37326   2.40675
 Alpha virt. eigenvalues --    2.45916   2.47688   2.48981   2.51222   2.52611
 Alpha virt. eigenvalues --    2.54923   2.58062   2.59385   2.62153   2.65204
 Alpha virt. eigenvalues --    2.66487   2.67219   2.73553   2.74464   2.75872
 Alpha virt. eigenvalues --    2.78449   2.80281   2.81624   2.82884   2.85634
 Alpha virt. eigenvalues --    2.88239   2.91497   2.92008   2.94476   2.98118
 Alpha virt. eigenvalues --    2.99311   3.01079   3.02969   3.08182   3.10167
 Alpha virt. eigenvalues --    3.11179   3.13090   3.15828   3.19722   3.19866
 Alpha virt. eigenvalues --    3.21117   3.24041   3.25473   3.31520   3.31944
 Alpha virt. eigenvalues --    3.35735   3.38288   3.39738   3.42381   3.44288
 Alpha virt. eigenvalues --    3.45987   3.48868   3.54897   3.60053   3.60349
 Alpha virt. eigenvalues --    3.65355   3.81640   3.86918   3.88700   3.90157
 Alpha virt. eigenvalues --    3.94290   3.98374   3.99800   4.04202   4.07810
 Alpha virt. eigenvalues --    4.12625   4.14422   4.22179   4.27267   4.29263
 Alpha virt. eigenvalues --    4.35657   4.40409   4.44430   4.50759   4.61139
 Alpha virt. eigenvalues --    4.63310   4.68204   4.77370   4.82394   4.83137
 Alpha virt. eigenvalues --    5.02657   5.11793   5.20859   5.24666   5.47183
 Alpha virt. eigenvalues --    5.56833   5.94063   6.16244   6.28640   6.46512
 Alpha virt. eigenvalues --    6.68512   6.74137   6.93117   7.03936  22.02175
 Alpha virt. eigenvalues --   22.30652  22.46061  22.66630  22.84046  43.76503
          Condensed to atoms (all electrons):
               1          2          3          4          5          6
     1  H    0.494402   0.416563  -0.036301  -0.037408  -0.003967   0.007162
     2  C    0.416563   4.945955   0.506551   0.516063  -0.025602  -0.023791
     3  C   -0.036301   0.506551   4.877470  -0.083936   0.412112   0.438564
     4  C   -0.037408   0.516063  -0.083936   4.825046   0.008383  -0.019881
     5  H   -0.003967  -0.025602   0.412112   0.008383   0.493573  -0.042640
     6  C    0.007162  -0.023791   0.438564  -0.019881  -0.042640   5.324438
     7  H   -0.005558  -0.030793   0.009311   0.394146  -0.000214  -0.000933
     8  H    0.006855  -0.021978  -0.042533   0.401433   0.000076   0.043776
     9  H   -0.000169   0.006669  -0.037109   0.000193  -0.005862   0.393284
    10  C   -0.002165  -0.047556  -0.031319  -0.042563   0.002022   0.418958
    11  H   -0.000019  -0.008122   0.007702   0.005616  -0.000588  -0.121854
    12  O    0.000286  -0.040052   0.005144   0.094618  -0.000772  -0.145581
               7          8          9         10         11         12
     1  H   -0.005558   0.006855  -0.000169  -0.002165  -0.000019   0.000286
     2  C   -0.030793  -0.021978   0.006669  -0.047556  -0.008122  -0.040052
     3  C    0.009311  -0.042533  -0.037109  -0.031319   0.007702   0.005144
     4  C    0.394146   0.401433   0.000193  -0.042563   0.005616   0.094618
     5  H   -0.000214   0.000076  -0.005862   0.002022  -0.000588  -0.000772
     6  C   -0.000933   0.043776   0.393284   0.418958  -0.121854  -0.145581
     7  H    0.541234  -0.043490   0.000021   0.000968   0.000050   0.001255
     8  H   -0.043490   0.643552  -0.000080  -0.011503  -0.002322  -0.064829
     9  H    0.000021  -0.000080   0.566798  -0.034381  -0.000920   0.006106
    10  C    0.000968  -0.011503  -0.034381   4.682990   0.419953   0.502067
    11  H    0.000050  -0.002322  -0.000920   0.419953   0.650495  -0.037597
    12  O    0.001255  -0.064829   0.006106   0.502067  -0.037597   8.011011
 Mulliken charges:
               1
     1  H    0.160318
     2  C   -0.193907
     3  C   -0.025657
     4  C   -0.061709
     5  H    0.163479
     6  C   -0.271502
     7  H    0.134003
     8  H    0.091043
     9  H    0.105451
    10  C    0.142528
    11  H    0.087606
    12  O   -0.331656
 Sum of Mulliken charges =  -0.00000
 Mulliken charges with hydrogens summed into heavy atoms:
               1
     2  C   -0.033589
     3  C    0.137822
     4  C    0.163338
     6  C   -0.166050
    10  C    0.230135
    12  O   -0.331656
 APT charges:
               1
     1  H    0.108554
     2  C   -0.464077
     3  C   -0.322679
     4  C   -0.535762
     5  H    0.340736
     6  C   -0.577388
     7  H    0.327953
     8  H    0.505055
     9  H    0.666699
    10  C   -0.426167
    11  H    0.725061
    12  O   -0.347986
 Sum of APT charges =  -0.00000
 APT charges with hydrogens summed into heavy atoms:
               1
     2  C   -0.355523
     3  C    0.018058
     4  C    0.297246
     6  C    0.089311
    10  C    0.298894
    12  O   -0.347986
 Electronic spatial extent (au):  <R**2>=           1447.3827
 Charge=             -0.0000 electrons
 Dipole moment (field-independent basis, Debye):
    X=              1.5512    Y=             -0.9790    Z=             -2.0221  Tot=              2.7301
 Quadrupole moment (field-independent basis, Debye-Ang):
   XX=            -32.9540   YY=            -39.6919   ZZ=            -43.3055
   XY=              2.8728   XZ=              5.1007   YZ=             -2.3961
 Traceless Quadrupole moment (field-independent basis, Debye-Ang):
   XX=              5.6965   YY=             -1.0414   ZZ=             -4.6550
   XY=              2.8728   XZ=              5.1007   YZ=             -2.3961
 Octapole moment (field-independent basis, Debye-Ang**2):
  XXX=             -9.9998  YYY=            -73.3808  ZZZ=           -281.1679  XYY=              1.1836
  XXY=            -26.1815  XXZ=            -82.6208  XZZ=             12.3518  YZZ=            -27.4776
  YYZ=            -91.5919  XYZ=             12.5069
 Hexadecapole moment (field-independent basis, Debye-Ang**3):
 XXXX=           -251.0612 YYYY=           -255.1565 ZZZZ=          -1528.1541 XXXY=              0.2749
 XXXZ=            -36.3721 YYYX=             15.4116 YYYZ=           -230.5920 ZZZX=              5.5113
 ZZZY=           -224.9609 XXYY=            -95.3673 XXZZ=           -284.8073 YYZZ=           -289.2727
 XXYZ=            -83.3545 YYXZ=              4.2115 ZZXY=             46.3774
 N-N= 2.194860469591D+02 E-N=-1.065189784566D+03  KE= 2.680551270598D+02
  Exact polarizability:   0.000   0.000   0.000   0.000   0.000   0.000
 Approx polarizability: 126.513 -11.427  93.894   9.717  33.388 112.210
   1 Symmetry operations used in ECPInt.
 ECPInt:  NShTT=    4095 NPrTT=   12396 LenC2=    4075 LenP2D=   10359.
 LDataN:  DoStor=T MaxTD1= 8 Len=  415
 Calling FoFJK, ICntrl=    100147 FMM=F ISym2X=0 I1Cent= 0 IOpClX= 0 NMat=1 NMatS=1 NMatT=0.
 -------------------------------------------------------------------
 Center     Atomic                   Forces (Hartrees/Bohr)
 Number     Number              X              Y              Z
 -------------------------------------------------------------------
      1        1          -0.000529699    0.001135426   -0.000027852
      2        6           0.000465672   -0.001405253    0.000260194
      3        6          -0.000012057   -0.000246259   -0.000815420
      4        6           0.000356635   -0.000397213   -0.000966568
      5        1          -0.000075655    0.000110608   -0.000104425
      6        6          -0.000718824    0.000648891    0.001112332
      7        1           0.000040421   -0.000010775   -0.000206051
      8        1           0.000092068   -0.000070400    0.000205313
      9        1           0.000159456    0.000156739   -0.000221807
     10        6           0.001499895   -0.000886817    0.000054946
     11        1           0.000305251    0.000228363   -0.000011676
     12        8          -0.001583165    0.000736690    0.000721014
 -------------------------------------------------------------------
 Cartesian Forces:  Max     0.001583165 RMS     0.000644016
 -----------------------------------------------------------------------------------------------
                       Internal Coordinate Forces (Hartree/Bohr or radian)
  Cent   Atom   N1       Length/X         N2         Alpha/Y        N3         Beta/Z          J
 -----------------------------------------------------------------------------------------------
      1  H 
      2  C        1   0.000028(     1)
      3  C        2   0.000006(     2)      1  -0.002169(    12)
      4  C        2  -0.000975(     3)      1  -0.001634(    13)      3   0.001022(    22)     0
      5  H        3  -0.000043(     4)      2  -0.000228(    14)      1   0.000613(    23)     0
      6  C        3   0.001847(     5)      2   0.004520(    15)      5   0.000398(    24)     0
      7  H        4   0.000059(     6)      2  -0.000409(    16)      1   0.000223(    25)     0
      8  H        4   0.000199(     7)      2  -0.000171(    17)      7   0.000172(    26)     0
      9  H        6   0.000052(     8)      3  -0.000352(    18)      2   0.000537(    27)     0
     10  C        6   0.000108(     9)      3   0.005216(    19)      9   0.000075(    28)     0
     11  H       10   0.000273(    10)      6  -0.000395(    20)      3   0.001437(    29)     0
     12  O       10   0.001344(    11)      6   0.002853(    21)     11   0.001089(    30)     0
 -----------------------------------------------------------------------------------------------
 Internal  Forces:  Max     0.005216000 RMS     0.001583209

 GradGradGradGradGradGradGradGradGradGradGradGradGradGradGradGradGradGrad
 Berny optimization.
 Search for a saddle point.
 Step number   1 out of a maximum of   40
 All quantities printed in internal units (Hartrees-Bohrs-Radians)
 Swapping is turned off.
 Second derivative matrix not updated -- analytic derivatives used.
 ITU=  0
     Eigenvalues ---   -0.90054   0.01748   0.02758   0.04029   0.04333
     Eigenvalues ---    0.06248   0.08586   0.11091   0.12818   0.15398
     Eigenvalues ---    0.18735   0.20234   0.23568   0.27865   0.29398
     Eigenvalues ---    0.31988   0.34706   0.35021   0.35286   0.35583
     Eigenvalues ---    0.36261   0.39359   0.41559   0.44880   0.47564
     Eigenvalues ---    0.54425   0.57637   0.67416   1.07186   3.08362
 Eigenvectors required to have negative eigenvalues:
                          A10       A6        R4        D8        R12
   1                    0.47327   0.42316  -0.27239   0.26901  -0.24779
                          A12       D4        R10       A3        D7
   1                    0.24296   0.22816   0.21856  -0.20477   0.19243
 RFO step:  Lambda0=4.382569260D-05 Lambda=-1.03349319D-04.
 Linear search not attempted -- option 19 set.
 Variable       Old X    -DE/DX   Delta X   Delta X   Delta X     New X
                                 (Linear)    (Quad)   (Total)
    R2        2.04574   0.00003   0.00000   0.00006   0.00006   2.04581
    R3        2.61394   0.00001   0.00000  -0.00359  -0.00359   2.61035
    R4        2.63499  -0.00098   0.00000   0.00214   0.00214   2.63713
    R5        2.05056  -0.00004   0.00000  -0.00033  -0.00033   2.05024
    R6        2.65628   0.00185   0.00000   0.00455   0.00455   2.66083
    R7        2.04645   0.00006   0.00000   0.00032   0.00032   2.04678
    R8        2.04399   0.00020   0.00000   0.00039   0.00039   2.04438
    R9        2.04440   0.00005   0.00000   0.00018   0.00018   2.04458
   R10        2.65452   0.00011   0.00000  -0.00537  -0.00537   2.64915
   R11        2.07343   0.00027   0.00000   0.00042   0.00042   2.07385
   R12        2.38947   0.00134   0.00000   0.00544   0.00544   2.39491
    A3        2.10196  -0.00217   0.00000  -0.00072  -0.00072   2.10123
    A4        2.11875  -0.00163   0.00000   0.00071   0.00071   2.11947
    A5        2.09133  -0.00023   0.00000  -0.00088  -0.00088   2.09045
    A6        2.11091   0.00452   0.00000  -0.00001  -0.00001   2.11090
    A7        2.10092  -0.00041   0.00000  -0.00295  -0.00295   2.09798
    A8        2.06509  -0.00017   0.00000  -0.00081  -0.00081   2.06428
    A9        2.07782  -0.00035   0.00000  -0.00341  -0.00341   2.07442
   A10        2.07894   0.00522   0.00000   0.00199   0.00199   2.08093
   A11        2.01930  -0.00039   0.00000   0.00030   0.00030   2.01960
   A12        2.23785   0.00285   0.00000   0.00094   0.00094   2.23878
    D4        2.99866   0.00102   0.00000   0.02069   0.02069   3.01935
    D5       -0.28946   0.00061   0.00000   0.02448   0.02448  -0.26498
    D6        2.92113   0.00040   0.00000  -0.00645  -0.00645   2.91467
    D7       -0.15935   0.00022   0.00000  -0.02115  -0.02115  -0.18050
    D8        2.63960   0.00017   0.00000  -0.00833  -0.00833   2.63127
    D9       -3.04673   0.00054   0.00000   0.01192   0.01192  -3.03481
   D10        2.67356   0.00008   0.00000  -0.00219  -0.00219   2.67138
   D11       -2.49203   0.00144   0.00000  -0.00168  -0.00168  -2.49371
   D12        2.99005   0.00109   0.00000  -0.00095  -0.00095   2.98910
         Item               Value     Threshold  Converged?
 Maximum Force            0.005216     0.000450     NO 
 RMS     Force            0.001583     0.000300     NO 
 Maximum Displacement     0.024483     0.001800     NO 
 RMS     Displacement     0.007877     0.001200     NO 
 Predicted change in Energy=-2.985459D-05
 GradGradGradGradGradGradGradGradGradGradGradGradGradGradGradGradGradGrad

 ---------------------------------------------------------------------------------------------------
                            Z-MATRIX (ANGSTROMS AND DEGREES)
   CD    Cent   Atom    N1       Length/X        N2       Alpha/Y        N3        Beta/Z          J
 ---------------------------------------------------------------------------------------------------
      1      1  H 
      2      2  C        1   1.082595(     1)
      3      3  C        2   1.381337(     2)      1  120.392(    12)
      4      4  C        2   1.395512(     3)      1  121.436(    13)      3  172.996(    22)      0
      5      5  H        3   1.084938(     4)      2  119.774(    14)      1  -15.182(    23)      0
      6      6  C        3   1.408051(     5)      2  120.946(    15)      5  166.998(    24)      0
      7      7  H        4   1.083109(     6)      2  120.205(    16)      1  -10.342(    25)      0
      8      8  H        4   1.081840(     7)      2  118.275(    17)      7  150.761(    26)      0
      9      9  H        6   1.081947(     8)      3  118.855(    18)      2 -173.882(    27)      0
     10     10  C        6   1.401868(     9)      3  119.228(    19)      9  153.059(    28)      0
     11     11  H       10   1.097436(    10)      6  115.715(    20)      3 -142.879(    29)      0
     12     12  O       10   1.267333(    11)      6  128.273(    21)     11  171.263(    30)      0
 ---------------------------------------------------------------------------------------------------
                         Z-Matrix orientation:                         
 ---------------------------------------------------------------------
 Center     Atomic      Atomic             Coordinates (Angstroms)
 Number     Number       Type             X           Y           Z
 ---------------------------------------------------------------------
      1          1           0        0.000000    0.000000    0.000000
      2          6           0        0.000000    0.000000    1.082595
      3          6           0        1.191521    0.000000    1.781428
      4          6           0       -1.181793    0.145187    1.810427
      5          1           0        2.116042   -0.246626    1.270030
      6          6           0        1.277564    0.570363    3.065909
      7          1           0       -2.099446    0.427230    1.308941
      8          1           0       -1.309673   -0.450742    2.704235
      9          1           0        2.246712    0.642055    3.541536
     10          6           0        0.315161    1.508694    3.464090
     11          1           0        0.685151    2.338187    4.080055
     12          8           0       -0.889856    1.606820    3.084041
 ---------------------------------------------------------------------
                    Distance matrix (angstroms):
                    1          2          3          4          5
     1  H    0.000000
     2  C    1.082595   0.000000
     3  C    2.143178   1.381337   0.000000
     4  C    2.166877   1.395512   2.377927   0.000000
     5  H    2.480208   2.138595   1.084938   3.364708   0.000000
     6  C    3.370057   2.427143   1.408051   2.793823   2.143758
     7  H    2.510682   2.154398   3.352050   1.083109   4.269184
     8  H    3.038305   2.132634   2.703833   1.081840   3.719426
     9  H    4.242927   3.392100   2.150266   3.872759   2.442656
    10  C    3.791490   2.836724   2.423946   2.614311   3.337397
    11  H    4.752200   3.862813   3.317712   3.666871   4.077371
    12  O    3.589572   2.716524   2.934417   1.960534   3.970054
                    6          7          8          9         10
     6  C    0.000000
     7  H    3.809413   0.000000
     8  H    2.804864   1.827955   0.000000
     9  H    1.081947   4.890780   3.813549   0.000000
    10  C    1.401868   3.412412   2.656473   2.118479   0.000000
    11  H    2.122416   4.368617   3.694635   2.367560   1.097436
    12  O    2.402558   2.450617   2.134025   3.313328   1.267333
                   11         12
    11  H    0.000000
    12  O    2.001897   0.000000
 Symmetry turned off by external request.
 Stoichiometry    C5H6O
 Framework group  C1[X(C5H6O)]
 Deg. of freedom    30
 Full point group                 C1      NOp   1
 Rotational constants (GHZ):           5.5327322           4.6759661           2.6920784
 Standard basis: def2TZVP (5D, 7F)
 The following finite field(s) will be applied:
 An electric field of             -0.0047  0.0006  0.0088
   222 basis functions,   354 primitive gaussians,   252 cartesian basis functions
    22 alpha electrons       22 beta electrons
       nuclear repulsion energy       217.6875395802 Hartrees.
 NAtoms=   12 NActive=   12 NUniq=   12 SFac= 1.00D+00 NAtFMM=   60 NAOKFM=F Big=F
 Integral buffers will be    131072 words long.
 Raffenetti 2 integral format.
 Two-electron integral symmetry is turned off.
 One-electron integrals computed using PRISM.
   1 Symmetry operations used in ECPInt.
 ECPInt:  NShTT=    4095 NPrTT=   12396 LenC2=    4074 LenP2D=   10354.
 LDataN:  DoStor=T MaxTD1= 6 Len=  172
 NBasis=   222 RedAO= T EigKep=  1.14D-04  NBF=   222
 NBsUse=   222 1.00D-06 EigRej= -1.00D+00 NBFU=   222
 The nuclear repulsion energy is now       219.4233762544 hartrees.
 Initial guess from the checkpoint file:  "checkpoint.chk"
 B after Tr=    -0.005480    0.042365   -0.000271
         Rot=    0.999927   -0.010054   -0.000594   -0.006708 Ang=  -1.39 deg.
 ExpMin= 9.52D-02 ExpMax= 2.70D+04 ExpMxC= 9.22D+02 IAcc=2 IRadAn=         4 AccDes= 0.00D+00
 Harris functional with IExCor=  402 and IRadAn=       4 diagonalized for initial guess.
 HarFok:  IExCor=  402 AccDes= 0.00D+00 IRadAn=         4 IDoV= 1 UseB2=F ITyADJ=14
 ICtDFT=  3500011 ScaDFX=  1.000000  1.000000  1.000000  1.000000
 FoFCou: FMM=F IPFlag=           0 FMFlag=      100000 FMFlg1=           0
         NFxFlg=           0 DoJE=T BraDBF=F KetDBF=T FulRan=T
         wScrn=  0.000000 ICntrl=       500 IOpCl=  0 I1Cent=   200000004 NGrid=           0
         NMat0=    1 NMatS0=      1 NMatT0=    0 NMatD0=    1 NMtDS0=    0 NMtDT0=    0
 Symmetry not used in FoFCou.
 Keep R1 ints in memory in canonical form, NReq=319363861.
 Requested convergence on RMS density matrix=1.00D-08 within 128 cycles.
 Requested convergence on MAX density matrix=1.00D-06.
 Requested convergence on             energy=1.00D-06.
 No special actions if energy rises.
 Integral accuracy reduced to 1.0D-05 until final iterations.
 Initial convergence to 1.0D-05 achieved.  Increase integral accuracy.
 SCF Done:  E(RB3LYP) =  -269.398479742     A.U. after   12 cycles
            NFock= 12  Conv=0.35D-08     -V/T= 2.0050
   1 Symmetry operations used in ECPInt.
 ECPInt:  NShTT=    4095 NPrTT=   12396 LenC2=    4074 LenP2D=   10354.
 LDataN:  DoStor=T MaxTD1= 7 Len=  274
 Calling FoFJK, ICntrl=      2127 FMM=F ISym2X=0 I1Cent= 0 IOpClX= 0 NMat=1 NMatS=1 NMatT=0.
 -------------------------------------------------------------------
 Center     Atomic                   Forces (Hartrees/Bohr)
 Number     Number              X              Y              Z
 -------------------------------------------------------------------
      1        1          -0.000731324    0.001792446   -0.000000911
      2        6           0.000731008   -0.002403300    0.000002059
      3        6           0.000026385    0.000634261   -0.000012362
      4        6          -0.000034846   -0.000012448    0.000010474
      5        1           0.000001762   -0.000004038    0.000001098
      6        6           0.000001677   -0.000016142    0.000009435
      7        1          -0.000000936    0.000003953    0.000000027
      8        1           0.000000646   -0.000009191   -0.000005185
      9        1           0.000000661    0.000001275    0.000000223
     10        6           0.000023024    0.000019910    0.000020072
     11        1          -0.000000186   -0.000000227    0.000002553
     12        8          -0.000017869   -0.000006500   -0.000027483
 -------------------------------------------------------------------
 Cartesian Forces:  Max     0.002403300 RMS     0.000539174
 -----------------------------------------------------------------------------------------------
                       Internal Coordinate Forces (Hartree/Bohr or radian)
  Cent   Atom   N1       Length/X         N2         Alpha/Y        N3         Beta/Z          J
 -----------------------------------------------------------------------------------------------
      1  H 
      2  C        1   0.000001(     1)
      3  C        2   0.000027(     2)      1  -0.000018(    12)
      4  C        2   0.000031(     3)      1  -0.000029(    13)      3   0.000046(    22)     0
      5  H        3   0.000002(     4)      2   0.000003(    14)      1  -0.000031(    23)     0
      6  C        3   0.000004(     5)      2  -0.000030(    15)      5  -0.000024(    24)     0
      7  H        4   0.000002(     6)      2   0.000001(    16)      1  -0.000023(    25)     0
      8  H        4   0.000001(     7)      2  -0.000011(    17)      7  -0.000017(    26)     0
      9  H        6   0.000001(     8)      3   0.000001(    18)      2  -0.000036(    27)     0
     10  C        6   0.000004(     9)      3  -0.000050(    19)      9  -0.000038(    28)     0
     11  H       10   0.000001(    10)      6   0.000000(    20)      3  -0.000026(    29)     0
     12  O       10   0.000025(    11)      6  -0.000046(    21)     11  -0.000021(    30)     0
 -----------------------------------------------------------------------------------------------
 Internal  Forces:  Max     0.000050260 RMS     0.000024152

 GradGradGradGradGradGradGradGradGradGradGradGradGradGradGradGradGradGrad
 Berny optimization.
 Search for a saddle point.
 Step number   2 out of a maximum of   40
 All quantities printed in internal units (Hartrees-Bohrs-Radians)
 Swapping is turned off.
 Update second derivatives using D2CorN and points    1    2
 ITU=  0  0
     Eigenvalues ---   -0.90073   0.01720   0.02758   0.04033   0.04337
     Eigenvalues ---    0.06241   0.08586   0.11091   0.12819   0.15398
     Eigenvalues ---    0.18735   0.20238   0.23569   0.27865   0.29398
     Eigenvalues ---    0.31988   0.34706   0.35021   0.35286   0.35583
     Eigenvalues ---    0.36261   0.39359   0.41562   0.44883   0.47567
     Eigenvalues ---    0.54428   0.57640   0.67414   1.07191   3.08362
 Eigenvectors required to have negative eigenvalues:
                          A10       A6        R4        D8        R12
   1                    0.47325   0.42316  -0.27240   0.26908  -0.24784
                          A12       D4        R10       A3        D7
   1                    0.24297   0.22775   0.21857  -0.20473   0.19273
 RFO step:  Lambda0=2.876162919D-09 Lambda=-4.28066710D-08.
 Linear search not attempted -- option 19 set.
 Variable       Old X    -DE/DX   Delta X   Delta X   Delta X     New X
                                 (Linear)    (Quad)   (Total)
    R2        2.04581   0.00000   0.00000   0.00000   0.00000   2.04581
    R3        2.61035   0.00003   0.00000   0.00004   0.00004   2.61039
    R4        2.63713   0.00003   0.00000   0.00000   0.00000   2.63714
    R5        2.05024   0.00000   0.00000  -0.00000  -0.00000   2.05024
    R6        2.66083   0.00000   0.00000   0.00001   0.00001   2.66084
    R7        2.04678   0.00000   0.00000   0.00000   0.00000   2.04678
    R8        2.04438   0.00000   0.00000  -0.00000  -0.00000   2.04438
    R9        2.04458   0.00000   0.00000   0.00001   0.00001   2.04459
   R10        2.64915   0.00000   0.00000   0.00006   0.00006   2.64921
   R11        2.07385   0.00000   0.00000   0.00001   0.00001   2.07386
   R12        2.39491   0.00002   0.00000   0.00002   0.00002   2.39493
    A3        2.10123  -0.00002   0.00000   0.00010   0.00010   2.10133
    A4        2.11947  -0.00003   0.00000  -0.00010  -0.00010   2.11937
    A5        2.09045   0.00000   0.00000   0.00004   0.00004   2.09049
    A6        2.11090  -0.00003   0.00000  -0.00005  -0.00005   2.11084
    A7        2.09798   0.00000   0.00000   0.00001   0.00001   2.09798
    A8        2.06428  -0.00001   0.00000   0.00003   0.00003   2.06431
    A9        2.07442   0.00000   0.00000  -0.00000  -0.00000   2.07442
   A10        2.08093  -0.00005   0.00000  -0.00002  -0.00002   2.08091
   A11        2.01960   0.00000   0.00000   0.00001   0.00001   2.01962
   A12        2.23878  -0.00005   0.00000  -0.00004  -0.00004   2.23874
    D4        3.01935   0.00005   0.00000   0.00081   0.00081   3.02016
    D5       -0.26498  -0.00003   0.00000   0.00039   0.00039  -0.26459
    D6        2.91467  -0.00002   0.00000   0.00017   0.00017   2.91484
    D7       -0.18050  -0.00002   0.00000  -0.00065  -0.00065  -0.18116
    D8        2.63127  -0.00002   0.00000   0.00021   0.00021   2.63148
    D9       -3.03481  -0.00004   0.00000   0.00001   0.00001  -3.03480
   D10        2.67138  -0.00004   0.00000  -0.00008  -0.00008   2.67130
   D11       -2.49371  -0.00003   0.00000   0.00006   0.00006  -2.49365
   D12        2.98910  -0.00002   0.00000   0.00004   0.00004   2.98913
         Item               Value     Threshold  Converged?
 Maximum Force            0.000050     0.000450     YES
 RMS     Force            0.000024     0.000300     YES
 Maximum Displacement     0.000805     0.001800     YES
 RMS     Displacement     0.000211     0.001200     YES
 Predicted change in Energy=-1.996525D-08
 Optimization completed.
    -- Stationary point found.
                       ----------------------------
                       !   Optimized Parameters   !
                       ! (Angstroms and Degrees)  !
 ----------------------                            ----------------------
 !      Name          Value   Derivative information (Atomic Units)     !
 ------------------------------------------------------------------------
 !       R2          1.0826   -DE/DX =    0.0                           !
 !       R3          1.3813   -DE/DX =    0.0                           !
 !       R4          1.3955   -DE/DX =    0.0                           !
 !       R5          1.0849   -DE/DX =    0.0                           !
 !       R6          1.4081   -DE/DX =    0.0                           !
 !       R7          1.0831   -DE/DX =    0.0                           !
 !       R8          1.0818   -DE/DX =    0.0                           !
 !       R9          1.0819   -DE/DX =    0.0                           !
 !       R10         1.4019   -DE/DX =    0.0                           !
 !       R11         1.0974   -DE/DX =    0.0                           !
 !       R12         1.2673   -DE/DX =    0.0                           !
 !       A3        120.3919   -DE/DX =    0.0                           !
 !       A4        121.4364   -DE/DX =    0.0                           !
 !       A5        119.7738   -DE/DX =    0.0                           !
 !       A6        120.9456   -DE/DX =    0.0                           !
 !       A7        120.2052   -DE/DX =    0.0                           !
 !       A8        118.2745   -DE/DX =    0.0                           !
 !       A9        118.8554   -DE/DX =    0.0                           !
 !       A10       119.2282   -DE/DX =   -0.0001                        !
 !       A11       115.7148   -DE/DX =    0.0                           !
 !       A12       128.2729   -DE/DX =    0.0                           !
 !       D4        172.9961   -DE/DX =    0.0                           !
 !       D5        -15.1822   -DE/DX =    0.0                           !
 !       D6        166.9984   -DE/DX =    0.0                           !
 !       D7        -10.3419   -DE/DX =    0.0                           !
 !       D8        150.7606   -DE/DX =    0.0                           !
 !       D9       -173.882    -DE/DX =    0.0                           !
 !       D10       153.0585   -DE/DX =    0.0                           !
 !       D11      -142.8788   -DE/DX =    0.0                           !
 !       D12       171.2626   -DE/DX =    0.0                           !
 ------------------------------------------------------------------------
 GradGradGradGradGradGradGradGradGradGradGradGradGradGradGradGradGradGrad

 ---------------------------------------------------------------------------------------------------
                            Z-MATRIX (ANGSTROMS AND DEGREES)
   CD    Cent   Atom    N1       Length/X        N2       Alpha/Y        N3        Beta/Z          J
 ---------------------------------------------------------------------------------------------------
      1      1  H 
      2      2  C        1   1.082595(     1)
      3      3  C        2   1.381337(     2)      1  120.392(    12)
      4      4  C        2   1.395512(     3)      1  121.436(    13)      3  172.996(    22)      0
      5      5  H        3   1.084938(     4)      2  119.774(    14)      1  -15.182(    23)      0
      6      6  C        3   1.408051(     5)      2  120.946(    15)      5  166.998(    24)      0
      7      7  H        4   1.083109(     6)      2  120.205(    16)      1  -10.342(    25)      0
      8      8  H        4   1.081840(     7)      2  118.275(    17)      7  150.761(    26)      0
      9      9  H        6   1.081947(     8)      3  118.855(    18)      2 -173.882(    27)      0
     10     10  C        6   1.401868(     9)      3  119.228(    19)      9  153.059(    28)      0
     11     11  H       10   1.097436(    10)      6  115.715(    20)      3 -142.879(    29)      0
     12     12  O       10   1.267333(    11)      6  128.273(    21)     11  171.263(    30)      0
 ---------------------------------------------------------------------------------------------------
                         Z-Matrix orientation:                         
 ---------------------------------------------------------------------
 Center     Atomic      Atomic             Coordinates (Angstroms)
 Number     Number       Type             X           Y           Z
 ---------------------------------------------------------------------
      1          1           0        0.000000    0.000000    0.000000
      2          6           0        0.000000    0.000000    1.082595
      3          6           0        1.191521    0.000000    1.781428
      4          6           0       -1.181793    0.145187    1.810427
      5          1           0        2.116042   -0.246626    1.270030
      6          6           0        1.277564    0.570363    3.065909
      7          1           0       -2.099446    0.427230    1.308941
      8          1           0       -1.309673   -0.450742    2.704235
      9          1           0        2.246712    0.642055    3.541536
     10          6           0        0.315161    1.508694    3.464090
     11          1           0        0.685151    2.338187    4.080055
     12          8           0       -0.889856    1.606820    3.084041
 ---------------------------------------------------------------------
                    Distance matrix (angstroms):
                    1          2          3          4          5
     1  H    0.000000
     2  C    1.082595   0.000000
     3  C    2.143178   1.381337   0.000000
     4  C    2.166877   1.395512   2.377927   0.000000
     5  H    2.480208   2.138595   1.084938   3.364708   0.000000
     6  C    3.370057   2.427143   1.408051   2.793823   2.143758
     7  H    2.510682   2.154398   3.352050   1.083109   4.269184
     8  H    3.038305   2.132634   2.703833   1.081840   3.719426
     9  H    4.242927   3.392100   2.150266   3.872759   2.442656
    10  C    3.791490   2.836724   2.423946   2.614311   3.337397
    11  H    4.752200   3.862813   3.317712   3.666871   4.077371
    12  O    3.589572   2.716524   2.934417   1.960534   3.970054
                    6          7          8          9         10
     6  C    0.000000
     7  H    3.809413   0.000000
     8  H    2.804864   1.827955   0.000000
     9  H    1.081947   4.890780   3.813549   0.000000
    10  C    1.401868   3.412412   2.656473   2.118479   0.000000
    11  H    2.122416   4.368617   3.694635   2.367560   1.097436
    12  O    2.402558   2.450617   2.134025   3.313328   1.267333
                   11         12
    11  H    0.000000
    12  O    2.001897   0.000000
 Symmetry turned off by external request.
 Stoichiometry    C5H6O
 Framework group  C1[X(C5H6O)]
 Deg. of freedom    30
 Full point group                 C1      NOp   1
 Rotational constants (GHZ):           5.5327322           4.6759661           2.6920784

 **********************************************************************

            Population analysis using the SCF density.

 **********************************************************************

 Alpha  occ. eigenvalues --  -19.18386 -10.29220 -10.26277 -10.22882 -10.20946
 Alpha  occ. eigenvalues --  -10.20140  -1.08516  -0.86366  -0.79627  -0.70559
 Alpha  occ. eigenvalues --   -0.64591  -0.56431  -0.54530  -0.50994  -0.49752
 Alpha  occ. eigenvalues --   -0.48173  -0.43338  -0.41925  -0.41122  -0.36490
 Alpha  occ. eigenvalues --   -0.32858  -0.25323
 Alpha virt. eigenvalues --   -0.10689  -0.04157   0.00823   0.01285   0.03252
 Alpha virt. eigenvalues --    0.04347   0.05896   0.08543   0.09796   0.11332
 Alpha virt. eigenvalues --    0.14036   0.15683   0.16497   0.17141   0.19389
 Alpha virt. eigenvalues --    0.20019   0.21239   0.24062   0.24303   0.25335
 Alpha virt. eigenvalues --    0.27029   0.29672   0.30633   0.32561   0.34312
 Alpha virt. eigenvalues --    0.35568   0.37011   0.38087   0.38750   0.40135
 Alpha virt. eigenvalues --    0.40724   0.41920   0.42552   0.44725   0.45772
 Alpha virt. eigenvalues --    0.48952   0.50373   0.51000   0.53430   0.54598
 Alpha virt. eigenvalues --    0.58203   0.61832   0.64828   0.65770   0.70821
 Alpha virt. eigenvalues --    0.76075   0.78882   0.83092   0.83908   0.86316
 Alpha virt. eigenvalues --    0.89554   0.90081   0.92562   0.93079   0.93892
 Alpha virt. eigenvalues --    0.97282   1.00169   1.03292   1.07034   1.08507
 Alpha virt. eigenvalues --    1.11324   1.13581   1.15722   1.19928   1.20192
 Alpha virt. eigenvalues --    1.25241   1.27523   1.31489   1.35287   1.35998
 Alpha virt. eigenvalues --    1.39720   1.40502   1.42693   1.44414   1.47728
 Alpha virt. eigenvalues --    1.49298   1.53986   1.56661   1.59887   1.60762
 Alpha virt. eigenvalues --    1.63430   1.65098   1.69623   1.74112   1.75141
 Alpha virt. eigenvalues --    1.77907   1.79437   1.81522   1.85866   1.87477
 Alpha virt. eigenvalues --    1.90270   1.93442   2.00897   2.03229   2.07113
 Alpha virt. eigenvalues --    2.11259   2.11609   2.15391   2.17448   2.22276
 Alpha virt. eigenvalues --    2.24342   2.28472   2.33381   2.37377   2.40770
 Alpha virt. eigenvalues --    2.45818   2.47399   2.48796   2.51358   2.52739
 Alpha virt. eigenvalues --    2.54659   2.58119   2.59280   2.62308   2.65460
 Alpha virt. eigenvalues --    2.66392   2.67232   2.73407   2.74325   2.75749
 Alpha virt. eigenvalues --    2.78508   2.80310   2.81885   2.82898   2.85519
 Alpha virt. eigenvalues --    2.88249   2.91281   2.91729   2.94582   2.97941
 Alpha virt. eigenvalues --    2.99410   3.01110   3.03013   3.08135   3.10292
 Alpha virt. eigenvalues --    3.11152   3.12822   3.15720   3.19660   3.19952
 Alpha virt. eigenvalues --    3.21119   3.23987   3.25594   3.31440   3.31833
 Alpha virt. eigenvalues --    3.35773   3.38323   3.39577   3.42355   3.44018
 Alpha virt. eigenvalues --    3.46059   3.48845   3.54928   3.60253   3.60473
 Alpha virt. eigenvalues --    3.65525   3.81631   3.86983   3.88838   3.90011
 Alpha virt. eigenvalues --    3.94352   3.98156   3.99778   4.04048   4.07727
 Alpha virt. eigenvalues --    4.12491   4.14526   4.22200   4.27259   4.29353
 Alpha virt. eigenvalues --    4.35826   4.40312   4.44794   4.50783   4.61115
 Alpha virt. eigenvalues --    4.63280   4.67862   4.77225   4.82384   4.83222
 Alpha virt. eigenvalues --    5.02908   5.12006   5.20852   5.24617   5.46910
 Alpha virt. eigenvalues --    5.56499   5.93532   6.15673   6.28040   6.46552
 Alpha virt. eigenvalues --    6.68510   6.74076   6.93028   7.03853  22.02072
 Alpha virt. eigenvalues --   22.30788  22.45522  22.66624  22.84177  43.76413
          Condensed to atoms (all electrons):
               1          2          3          4          5          6
     1  H    0.493811   0.415973  -0.035786  -0.037220  -0.004054   0.007025
     2  C    0.415973   4.945964   0.511140   0.513245  -0.025796  -0.026001
     3  C   -0.035786   0.511140   4.874460  -0.083569   0.412197   0.439208
     4  C   -0.037220   0.513245  -0.083569   4.823159   0.008392  -0.019716
     5  H   -0.004054  -0.025796   0.412197   0.008392   0.493353  -0.042470
     6  C    0.007025  -0.026001   0.439208  -0.019716  -0.042470   5.318274
     7  H   -0.005539  -0.031058   0.009286   0.393933  -0.000216  -0.000978
     8  H    0.006801  -0.022316  -0.041903   0.402239   0.000060   0.042746
     9  H   -0.000171   0.006532  -0.037304   0.000191  -0.005861   0.393126
    10  C   -0.002105  -0.046742  -0.032832  -0.042726   0.002064   0.423124
    11  H   -0.000015  -0.008015   0.007537   0.005579  -0.000582  -0.121081
    12  O    0.000320  -0.038773   0.004173   0.096207  -0.000760  -0.144060
               7          8          9         10         11         12
     1  H   -0.005539   0.006801  -0.000171  -0.002105  -0.000015   0.000320
     2  C   -0.031058  -0.022316   0.006532  -0.046742  -0.008015  -0.038773
     3  C    0.009286  -0.041903  -0.037304  -0.032832   0.007537   0.004173
     4  C    0.393933   0.402239   0.000191  -0.042726   0.005579   0.096207
     5  H   -0.000216   0.000060  -0.005861   0.002064  -0.000582  -0.000760
     6  C   -0.000978   0.042746   0.393126   0.423124  -0.121081  -0.144060
     7  H    0.541651  -0.043560   0.000023   0.001009   0.000055   0.001239
     8  H   -0.043560   0.642405  -0.000098  -0.011254  -0.002276  -0.064758
     9  H    0.000023  -0.000098   0.566720  -0.033961  -0.001011   0.006154
    10  C    0.001009  -0.011254  -0.033961   4.683372   0.419746   0.498596
    11  H    0.000055  -0.002276  -0.001011   0.419746   0.651191  -0.037827
    12  O    0.001239  -0.064758   0.006154   0.498596  -0.037827   8.014589
 Mulliken charges:
               1
     1  H    0.160959
     2  C   -0.194152
     3  C   -0.026605
     4  C   -0.059715
     5  H    0.163672
     6  C   -0.269198
     7  H    0.134157
     8  H    0.091912
     9  H    0.105658
    10  C    0.141710
    11  H    0.086700
    12  O   -0.335098
 Sum of Mulliken charges =  -0.00000
 Mulliken charges with hydrogens summed into heavy atoms:
               1
     2  C   -0.033193
     3  C    0.137067
     4  C    0.166354
     6  C   -0.163540
    10  C    0.228410
    12  O   -0.335098
 Electronic spatial extent (au):  <R**2>=           1452.4177
 Charge=             -0.0000 electrons
 Dipole moment (field-independent basis, Debye):
    X=              1.5554    Y=             -0.9715    Z=             -2.0907  Tot=              2.7810
 Quadrupole moment (field-independent basis, Debye-Ang):
   XX=            -33.0160   YY=            -39.5874   ZZ=            -43.6654
   XY=              2.8966   XZ=              5.1913   YZ=             -2.4100
 Traceless Quadrupole moment (field-independent basis, Debye-Ang):
   XX=              5.7403   YY=             -0.8311   ZZ=             -4.9092
   XY=              2.8966   XZ=              5.1913   YZ=             -2.4100
 Octapole moment (field-independent basis, Debye-Ang**2):
  XXX=             -8.9093  YYY=            -70.6411  ZZZ=           -283.9947  XYY=              1.0655
  XXY=            -25.4293  XXZ=            -83.4883  XZZ=             13.2093  YZZ=            -26.7850
  YYZ=            -91.8469  XYZ=             12.5630
 Hexadecapole moment (field-independent basis, Debye-Ang**3):
 XXXX=           -251.4963 YYYY=           -242.6465 ZZZZ=          -1551.3872 XXXY=              1.2623
 XXXZ=            -32.8326 YYYX=             14.6929 YYYZ=           -224.8548 ZZZX=             11.1479
 ZZZY=           -220.0324 XXYY=            -93.6187 XXZZ=           -289.6967 YYZZ=           -290.0273
 XXYZ=            -82.0338 YYXZ=              4.0859 ZZXY=             46.9213
 N-N= 2.194233762544D+02 E-N=-1.065050633495D+03  KE= 2.680479602074D+02
 1\1\GINC-BHC0107\FTS\RB3LYP\def2TZVP\C5H6O1\DHANAWAY\18-Mar-2022\1\\# 
 Opt=(TS, CalcFC, noeigentest, Z-matrix, MaxStep=10) geom=allcheckpoint
  guess=read Field=read NoSymm B3LYP/Def2TZVP\\ts_zmat_initalOpt\\0,1\H
 \C,1,R2\C,2,R3,1,A3\C,2,R4,1,A4,3,D4,0\H,3,R5,2,A5,1,D5,0\C,3,R6,2,A6,
 5,D6,0\H,4,R7,2,A7,1,D7,0\H,4,R8,2,A8,7,D8,0\H,6,R9,3,A9,2,D9,0\C,6,R1
 0,3,A10,9,D10,0\H,10,R11,6,A11,3,D11,0\O,10,R12,6,A12,11,D12,0\\R2=1.0
 8259458\R3=1.38133691\R4=1.39551166\R5=1.08493824\R6=1.40805114\R7=1.0
 8310873\R8=1.08183976\R9=1.08194692\R10=1.40186772\R11=1.09743617\R12=
 1.26733282\A3=120.39186088\A4=121.43642421\A5=119.77382509\A6=120.9455
 5557\A7=120.20515666\A8=118.2745202\A9=118.85544433\A10=119.22823254\A
 11=115.71479004\A12=128.27290469\D4=172.99612172\D5=-15.18223074\D6=16
 6.99844022\D7=-10.34193469\D8=150.7605896\D9=-173.88204268\D10=153.058
 51673\D11=-142.87877687\D12=171.26258064\\Version=ES64L-G16RevA.03\HF=
 -269.3984797\RMSD=3.453e-09\RMSF=5.392e-04\Dipole=0.6119481,-0.382205,
 -0.822551\Quadrupole=4.2677707,-0.6179216,-3.6498491,2.1535241,3.85960
 42,-1.7918001\PG=C01 [X(C5H6O1)]\\@


 THE GREAT THING ABOUT BEING IMPERFECT IS THE JOY IT BRINGS OTHERS.
   -- SIGN OUTSIDE LAKE AGASSIZ JR. HIGH SCHOOL, FARGO, N.D.
 Job cpu time:       0 days  0 hours 36 minutes  1.5 seconds.
 Elapsed time:       0 days  0 hours  3 minutes 12.2 seconds.
 File lengths (MBytes):  RWF=     53 Int=      0 D2E=      0 Chk=     32 Scr=      1
 Normal termination of Gaussian 16 at Fri Mar 18 11:16:36 2022.
