 Entering Gaussian System, Link 0=g16
 Input=ts_initalOpt_zmat_sp.gjf
 Output=ts_initalOpt_zmat_sp.out
 Initial command:
 /software/gaussian/g16-a03/l1.exe "/local_scratch/11174423/Gau-7644.inp" -scrdir="/local_scratch/11174423/"
 Entering Link 1 = /software/gaussian/g16-a03/l1.exe PID=      7645.
  
 Copyright (c) 1988,1990,1992,1993,1995,1998,2003,2009,2016,
            Gaussian, Inc.  All Rights Reserved.
  
 This is part of the Gaussian(R) 16 program.  It is based on
 the Gaussian(R) 09 system (copyright 2009, Gaussian, Inc.),
 the Gaussian(R) 03 system (copyright 2003, Gaussian, Inc.),
 the Gaussian(R) 98 system (copyright 1998, Gaussian, Inc.),
 the Gaussian(R) 94 system (copyright 1995, Gaussian, Inc.),
 the Gaussian 92(TM) system (copyright 1992, Gaussian, Inc.),
 the Gaussian 90(TM) system (copyright 1990, Gaussian, Inc.),
 the Gaussian 88(TM) system (copyright 1988, Gaussian, Inc.),
 the Gaussian 86(TM) system (copyright 1986, Carnegie Mellon
 University), and the Gaussian 82(TM) system (copyright 1983,
 Carnegie Mellon University). Gaussian is a federally registered
 trademark of Gaussian, Inc.
  
 This software contains proprietary and confidential information,
 including trade secrets, belonging to Gaussian, Inc.
  
 This software is provided under written license and may be
 used, copied, transmitted, or stored only in accord with that
 written license.
  
 The following legend is applicable only to US Government
 contracts under FAR:
  
                    RESTRICTED RIGHTS LEGEND
  
 Use, reproduction and disclosure by the US Government is
 subject to restrictions as set forth in subparagraphs (a)
 and (c) of the Commercial Computer Software - Restricted
 Rights clause in FAR 52.227-19.
  
 Gaussian, Inc.
 340 Quinnipiac St., Bldg. 40, Wallingford CT 06492
  
  
 ---------------------------------------------------------------
 Warning -- This program may not be used in any manner that
 competes with the business of Gaussian, Inc. or will provide
 assistance to any competitor of Gaussian, Inc.  The licensee
 of this program is prohibited from giving any competitor of
 Gaussian, Inc. access to this program.  By using this program,
 the user acknowledges that Gaussian, Inc. is engaged in the
 business of creating and licensing software in the field of
 computational chemistry and represents and warrants to the
 licensee that it is not a competitor of Gaussian, Inc. and that
 it will not use this program in any manner prohibited above.
 ---------------------------------------------------------------
  

 Cite this work as:
 Gaussian 16, Revision A.03,
 M. J. Frisch, G. W. Trucks, H. B. Schlegel, G. E. Scuseria, 
 M. A. Robb, J. R. Cheeseman, G. Scalmani, V. Barone, 
 G. A. Petersson, H. Nakatsuji, X. Li, M. Caricato, A. V. Marenich, 
 J. Bloino, B. G. Janesko, R. Gomperts, B. Mennucci, H. P. Hratchian, 
 J. V. Ortiz, A. F. Izmaylov, J. L. Sonnenberg, D. Williams-Young, 
 F. Ding, F. Lipparini, F. Egidi, J. Goings, B. Peng, A. Petrone, 
 T. Henderson, D. Ranasinghe, V. G. Zakrzewski, J. Gao, N. Rega, 
 G. Zheng, W. Liang, M. Hada, M. Ehara, K. Toyota, R. Fukuda, 
 J. Hasegawa, M. Ishida, T. Nakajima, Y. Honda, O. Kitao, H. Nakai, 
 T. Vreven, K. Throssell, J. A. Montgomery, Jr., J. E. Peralta, 
 F. Ogliaro, M. J. Bearpark, J. J. Heyd, E. N. Brothers, K. N. Kudin, 
 V. N. Staroverov, T. A. Keith, R. Kobayashi, J. Normand, 
 K. Raghavachari, A. P. Rendell, J. C. Burant, S. S. Iyengar, 
 J. Tomasi, M. Cossi, J. M. Millam, M. Klene, C. Adamo, R. Cammi, 
 J. W. Ochterski, R. L. Martin, K. Morokuma, O. Farkas, 
 J. B. Foresman, and D. J. Fox, Gaussian, Inc., Wallingford CT, 2016.
 
 ******************************************
 Gaussian 16:  ES64L-G16RevA.03 25-Dec-2016
                10-Jun-2022 
 ******************************************
 %nprocshared=12
 Will use up to   12 processors via shared memory.
 %chk=checkpoint.chk
 %mem=12GB
 --------------------------
 # sp B3LYP/Def2TZVP NoSymm
 --------------------------
 1/38=1,172=1/1;
 2/12=2,15=1,17=6,18=5,40=1/2;
 3/5=44,7=101,11=2,25=1,30=1,74=-5/1,2,3;
 4//1;
 5/5=2,38=5/2;
 6/7=2,8=2,9=2,10=2,28=1/1;
 99/5=1,9=1/99;
 ---------------------------
 ts_initalOpt_zmat_AlignedSp
 ---------------------------
 Symbolic Z-matrix:
 Charge =  0 Multiplicity = 1
 H
 C                    1    R2
 C                    2    R3       1    A3
 C                    2    R4       1    A4       3    D4       0
 H                    3    R5       2    A5       1    D5       0
 C                    3    R6       2    A6       5    D6       0
 C                    4    R3       2    A7       1    D7       0
 H                    4    R2       2    A4       7    D8       0
 C                    6    R9       3    A9       2    D9       0
 C                    6    R10      3    A10      9    D10      0
 H                    7    R5       4    A5       2    D11      0
 H                    9    R12      6    A12      3    D12      0
 C                    10   R9       6    A13      3    D13      0
 H                    9    R14      6    A14      12   D14      0
 H                    13   R12      10   A12      6    D15      0
 H                    13   R14      10   A14      15   D14      0
       Variables:
  R2                    1.08298                  
  R3                    1.38053                  
  R4                    1.41374                  
  R5                    1.08353                  
  R6                    1.40545                  
  R9                    1.42383                  
  R10                   1.41211                  
  R12                   1.07814                  
  R14                   1.0882                   
  A3                  119.65225                  
  A4                  118.80285                  
  A5                  121.06651                  
  A6                  117.09468                  
  A7                  121.49926                  
  A9                  133.35746                  
  A10                 120.32938                  
  A12                 117.95382                  
  A13                 106.24712                  
  A14                 123.04379                  
  D4                 -177.58037                  
  D5                   -1.69594                  
  D6                 -174.74822                  
  D7                 -177.85978                  
  D8                  177.53381                  
  D9                  164.30521                  
  D10                -176.59725                  
  D11                 175.81732                  
  D12                -120.94221                  
  D13                -159.0437                   
  D14                 156.53444                  
  D15                  55.99892                  
 
                          Input orientation:                          
 ---------------------------------------------------------------------
 Center     Atomic      Atomic             Coordinates (Angstroms)
 Number     Number       Type             X           Y           Z
 ---------------------------------------------------------------------
      1          1           0        0.000000    0.000000    0.000000
      2          6           0        0.000000    0.000000    1.082981
      3          6           0        1.199741    0.000000    1.765977
      4          6           0       -1.237734   -0.052301    1.764119
      5          1           0        2.144627   -0.027468    1.236379
      6          6           0        1.138216   -0.077602    3.167937
      7          6           0       -1.304873   -0.011140    3.142400
      8          1           0       -2.151589   -0.085513    1.183933
      9          6           0        2.099237   -0.382929    4.173170
     10          6           0       -0.090164    0.108372    3.839177
     11          1           0       -2.259011    0.015992    3.655162
     12          1           0        1.902275   -1.220429    4.822926
     13          6           0        0.237503    0.460533    5.179287
     14          1           0        3.144881   -0.089857    4.102998
     15          1           0        0.877315    1.314127    5.335495
     16          1           0       -0.377595    0.183108    6.033029
 ---------------------------------------------------------------------
                    Distance matrix (angstroms):
                    1          2          3          4          5
     1  H    0.000000
     2  C    1.082981   0.000000
     3  C    2.134960   1.380529   0.000000
     4  C    2.155652   1.413743   2.438037   0.000000
     5  H    2.475644   2.150282   1.083531   3.423375   0.000000
     6  C    3.367103   2.376678   1.405453   2.759798   2.178599
     7  C    3.402572   2.438037   2.857928   1.380529   3.941096
     8  H    2.457304   2.155652   3.402572   1.082981   4.296928
     9  C    4.687086   3.755355   2.598135   4.128949   2.958573
    10  C    3.841764   2.759798   2.444127   2.376678   3.433264
    11  H    4.296928   3.423375   3.941096   2.150282   5.024384
    12  H    5.326229   4.369815   3.365701   4.536572   3.787508
    13  C    5.205143   4.128949   3.576126   3.755355   4.407016
    14  H    5.170391   4.361061   3.041926   4.967804   3.036759
    15  H    5.564541   4.536572   3.817374   4.369815   4.495410
    16  H    6.047607   4.967804   4.552939   4.361061   5.423450
                    6          7          8          9         10
     6  C    0.000000
     7  C    2.444127   0.000000
     8  H    3.841764   2.134960   0.000000
     9  C    1.423825   3.576126   5.205143   0.000000
    10  C    1.412115   1.405453   3.367103   2.268569   0.000000
    11  H    3.433264   1.083531   2.475644   4.407016   2.178599
    12  H    2.151472   3.817374   5.564541   1.078139   2.589071
    13  C    2.268569   2.598135   4.687086   2.278103   1.423825
    14  H    2.213863   4.552939   6.047607   1.088203   3.251832
    15  H    2.589071   3.365701   5.326229   2.392508   2.151472
    16  H    3.251832   3.041926   5.170391   3.148678   2.213863
                   11         12         13         14         15
    11  H    0.000000
    12  H    4.495410   0.000000
    13  C    2.958573   2.392508   0.000000
    14  H    5.423450   1.827720   3.148678   0.000000
    15  H    3.787508   2.781590   1.078139   2.938039   0.000000
    16  H    3.036759   2.938039   1.088203   4.025837   1.827720
                   16
    16  H    0.000000
 Symmetry turned off by external request.
 Stoichiometry    C8H8
 Framework group  C2[X(C8H8)]
 Deg. of freedom    22
 Full point group                 C2      NOp   2
 Rotational constants (GHZ):           3.8306242           2.2229067           1.4568655
 Standard basis: def2TZVP (5D, 7F)
   296 basis functions,   472 primitive gaussians,   336 cartesian basis functions
    28 alpha electrons       28 beta electrons
       nuclear repulsion energy       329.7208474733 Hartrees.
 NAtoms=   16 NActive=   16 NUniq=   16 SFac= 1.00D+00 NAtFMM=   60 NAOKFM=F Big=F
 Integral buffers will be    131072 words long.
 Raffenetti 2 integral format.
 Two-electron integral symmetry is turned off.
 One-electron integrals computed using PRISM.
   1 Symmetry operations used in ECPInt.
 ECPInt:  NShTT=    7260 NPrTT=   21936 LenC2=    7161 LenP2D=   17614.
 LDataN:  DoStor=T MaxTD1= 6 Len=  172
 NBasis=   296 RedAO= T EigKep=  1.25D-05  NBF=   296
 NBsUse=   296 1.00D-06 EigRej= -1.00D+00 NBFU=   296
 ExpMin= 9.52D-02 ExpMax= 1.36D+04 ExpMxC= 4.63D+02 IAcc=3 IRadAn=         5 AccDes= 0.00D+00
 Harris functional with IExCor=  402 and IRadAn=       5 diagonalized for initial guess.
 HarFok:  IExCor=  402 AccDes= 0.00D+00 IRadAn=         5 IDoV= 1 UseB2=F ITyADJ=14
 ICtDFT=  3500011 ScaDFX=  1.000000  1.000000  1.000000  1.000000
 FoFCou: FMM=F IPFlag=           0 FMFlag=      100000 FMFlg1=           0
         NFxFlg=           0 DoJE=T BraDBF=F KetDBF=T FulRan=T
         wScrn=  0.000000 ICntrl=       500 IOpCl=  0 I1Cent=   200000004 NGrid=           0
         NMat0=    1 NMatS0=      1 NMatT0=    0 NMatD0=    1 NMtDS0=    0 NMtDT0=    0
 Symmetry not used in FoFCou.
 Requested convergence on RMS density matrix=1.00D-08 within 128 cycles.
 Requested convergence on MAX density matrix=1.00D-06.
 Requested convergence on             energy=1.00D-06.
 No special actions if energy rises.
 Integral accuracy reduced to 1.0D-05 until final iterations.
 Initial convergence to 1.0D-05 achieved.  Increase integral accuracy.
 SCF Done:  E(RB3LYP) =  -309.678348250     A.U. after   14 cycles
            NFock= 14  Conv=0.70D-08     -V/T= 2.0053

 **********************************************************************

            Population analysis using the SCF density.

 **********************************************************************

 Alpha  occ. eigenvalues --  -10.19119 -10.19119 -10.18024 -10.17978 -10.17685
 Alpha  occ. eigenvalues --  -10.17684 -10.17570 -10.17525  -0.87271  -0.79379
 Alpha  occ. eigenvalues --   -0.75980  -0.68333  -0.66637  -0.59379  -0.56988
 Alpha  occ. eigenvalues --   -0.51025  -0.47434  -0.45895  -0.44913  -0.42905
 Alpha  occ. eigenvalues --   -0.41364  -0.40141  -0.36344  -0.35282  -0.34451
 Alpha  occ. eigenvalues --   -0.27423  -0.24837  -0.21797
 Alpha virt. eigenvalues --   -0.06621  -0.00702  -0.00261   0.05535   0.05897
 Alpha virt. eigenvalues --    0.07497   0.09649   0.10165   0.11225   0.11310
 Alpha virt. eigenvalues --    0.12560   0.13340   0.14220   0.16656   0.18311
 Alpha virt. eigenvalues --    0.19335   0.19958   0.20341   0.22473   0.22741
 Alpha virt. eigenvalues --    0.24667   0.24851   0.26529   0.26589   0.26861
 Alpha virt. eigenvalues --    0.28936   0.31016   0.31551   0.32202   0.33854
 Alpha virt. eigenvalues --    0.35573   0.36793   0.37649   0.39040   0.40841
 Alpha virt. eigenvalues --    0.40845   0.42193   0.42247   0.42898   0.44142
 Alpha virt. eigenvalues --    0.44482   0.44916   0.45363   0.46981   0.49592
 Alpha virt. eigenvalues --    0.50020   0.50203   0.51039   0.51886   0.53393
 Alpha virt. eigenvalues --    0.55385   0.55668   0.56915   0.61299   0.62020
 Alpha virt. eigenvalues --    0.66885   0.68112   0.68443   0.70922   0.72987
 Alpha virt. eigenvalues --    0.73920   0.76335   0.76961   0.78686   0.81933
 Alpha virt. eigenvalues --    0.84259   0.86059   0.90025   0.90122   0.91504
 Alpha virt. eigenvalues --    0.94384   0.95117   0.96294   0.97796   1.00236
 Alpha virt. eigenvalues --    1.01056   1.04619   1.05466   1.06687   1.09350
 Alpha virt. eigenvalues --    1.09914   1.11944   1.13156   1.13273   1.17759
 Alpha virt. eigenvalues --    1.19211   1.20788   1.22474   1.24220   1.27646
 Alpha virt. eigenvalues --    1.28427   1.30437   1.31505   1.37738   1.39252
 Alpha virt. eigenvalues --    1.39459   1.41575   1.41878   1.44568   1.49694
 Alpha virt. eigenvalues --    1.50949   1.51391   1.51462   1.53781   1.55765
 Alpha virt. eigenvalues --    1.56057   1.58115   1.58891   1.59496   1.59674
 Alpha virt. eigenvalues --    1.65686   1.66875   1.68860   1.71963   1.73052
 Alpha virt. eigenvalues --    1.74029   1.78576   1.81823   1.82284   1.87257
 Alpha virt. eigenvalues --    1.88364   1.88461   1.94316   1.95599   1.97690
 Alpha virt. eigenvalues --    2.00016   2.01307   2.02364   2.08813   2.09239
 Alpha virt. eigenvalues --    2.10657   2.12430   2.12889   2.17231   2.18937
 Alpha virt. eigenvalues --    2.23693   2.24119   2.32570   2.32581   2.35744
 Alpha virt. eigenvalues --    2.39647   2.41514   2.41628   2.43915   2.45695
 Alpha virt. eigenvalues --    2.48425   2.49844   2.53489   2.55722   2.57031
 Alpha virt. eigenvalues --    2.58581   2.58659   2.60113   2.62778   2.64134
 Alpha virt. eigenvalues --    2.64526   2.69155   2.69700   2.69777   2.70500
 Alpha virt. eigenvalues --    2.75072   2.75527   2.76886   2.80466   2.81479
 Alpha virt. eigenvalues --    2.83595   2.84233   2.86715   2.88074   2.88083
 Alpha virt. eigenvalues --    2.89827   2.91180   2.93861   2.94350   2.99424
 Alpha virt. eigenvalues --    3.00601   3.02648   3.03005   3.06852   3.09844
 Alpha virt. eigenvalues --    3.10424   3.11925   3.14247   3.14958   3.16667
 Alpha virt. eigenvalues --    3.17941   3.19306   3.20212   3.20475   3.22517
 Alpha virt. eigenvalues --    3.22546   3.25108   3.27113   3.27425   3.28758
 Alpha virt. eigenvalues --    3.30386   3.35011   3.35867   3.36844   3.37763
 Alpha virt. eigenvalues --    3.38372   3.40038   3.42770   3.43489   3.48843
 Alpha virt. eigenvalues --    3.49925   3.51641   3.51759   3.53327   3.56452
 Alpha virt. eigenvalues --    3.57442   3.58062   3.64855   3.65007   3.71005
 Alpha virt. eigenvalues --    3.71329   3.72049   3.78139   3.80860   3.84811
 Alpha virt. eigenvalues --    3.86144   3.87157   3.89795   3.98558   3.99138
 Alpha virt. eigenvalues --    4.01309   4.03200   4.09325   4.09910   4.13671
 Alpha virt. eigenvalues --    4.14835   4.18600   4.19201   4.24394   4.25432
 Alpha virt. eigenvalues --    4.27539   4.28774   4.32704   4.39008   4.44619
 Alpha virt. eigenvalues --    4.44785   4.49796   4.54265   4.64105   4.64709
 Alpha virt. eigenvalues --    4.67447   4.72979   4.75016   4.77882   4.85358
 Alpha virt. eigenvalues --    4.91202   4.93779   5.02617   5.08125   5.18806
 Alpha virt. eigenvalues --    5.24403   5.27587   5.33672   5.47483   5.68093
 Alpha virt. eigenvalues --   22.04424  22.27754  22.42118  22.56798  22.64426
 Alpha virt. eigenvalues --   22.74463  22.87363  23.46401
          Condensed to atoms (all electrons):
               1          2          3          4          5          6
     1  H    0.566617   0.419475  -0.047439  -0.048106  -0.008020   0.009272
     2  C    0.419475   4.881691   0.522682   0.463825  -0.045799  -0.038485
     3  C   -0.047439   0.522682   5.011872  -0.018020   0.420925   0.437299
     4  C   -0.048106   0.463825  -0.018020   4.881749   0.008912  -0.053216
     5  H   -0.008020  -0.045799   0.420925   0.008912   0.567103  -0.055225
     6  C    0.009272  -0.038485   0.437299  -0.053216  -0.055225   4.961612
     7  C    0.007835  -0.018047  -0.042478   0.522662  -0.002113  -0.037548
     8  H   -0.006201  -0.048100   0.007832   0.419467  -0.000328  -0.000960
     9  C   -0.000528   0.004508  -0.074934  -0.000301  -0.001549   0.413166
    10  C   -0.000963  -0.053190  -0.037538  -0.038450   0.011177   0.457380
    11  H   -0.000328   0.008912  -0.002113  -0.045801   0.000118   0.011177
    12  H    0.000028   0.000331  -0.000315  -0.000144  -0.000100  -0.010429
    13  C    0.000123  -0.000300   0.012915   0.004504  -0.000910  -0.120485
    14  H   -0.000021  -0.000510   0.004700   0.000277   0.002874  -0.069389
    15  H   -0.000007  -0.000144   0.002986   0.000331   0.000022  -0.023961
    16  H   -0.000002   0.000277  -0.001388  -0.000510   0.000031   0.011352
               7          8          9         10         11         12
     1  H    0.007835  -0.006201  -0.000528  -0.000963  -0.000328   0.000028
     2  C   -0.018047  -0.048100   0.004508  -0.053190   0.008912   0.000331
     3  C   -0.042478   0.007832  -0.074934  -0.037538  -0.002113  -0.000315
     4  C    0.522662   0.419467  -0.000301  -0.038450  -0.045801  -0.000144
     5  H   -0.002113  -0.000328  -0.001549   0.011177   0.000118  -0.000100
     6  C   -0.037548  -0.000960   0.413166   0.457380   0.011177  -0.010429
     7  C    5.011823  -0.047431   0.012916   0.437303   0.420916   0.002988
     8  H   -0.047431   0.566616   0.000123   0.009267  -0.008019  -0.000007
     9  C    0.012916   0.000123   5.126270  -0.120467  -0.000911   0.400915
    10  C    0.437303   0.009267  -0.120467   4.961583  -0.055220  -0.023970
    11  H    0.420916  -0.008019  -0.000911  -0.055220   0.567106   0.000022
    12  H    0.002988  -0.000007   0.400915  -0.023970   0.000022   0.540055
    13  C   -0.074933  -0.000528   0.145502   0.413231  -0.001547  -0.018608
    14  H   -0.001388  -0.000002   0.403674   0.011353   0.000031  -0.037004
    15  H   -0.000316   0.000028  -0.018607  -0.010442  -0.000100  -0.002036
    16  H    0.004702  -0.000021   0.000629  -0.069388   0.002874   0.001540
              13         14         15         16
     1  H    0.000123  -0.000021  -0.000007  -0.000002
     2  C   -0.000300  -0.000510  -0.000144   0.000277
     3  C    0.012915   0.004700   0.002986  -0.001388
     4  C    0.004504   0.000277   0.000331  -0.000510
     5  H   -0.000910   0.002874   0.000022   0.000031
     6  C   -0.120485  -0.069389  -0.023961   0.011352
     7  C   -0.074933  -0.001388  -0.000316   0.004702
     8  H   -0.000528  -0.000002   0.000028  -0.000021
     9  C    0.145502   0.403674  -0.018607   0.000629
    10  C    0.413231   0.011353  -0.010442  -0.069388
    11  H   -0.001547   0.000031  -0.000100   0.002874
    12  H   -0.018608  -0.037004  -0.002036   0.001540
    13  C    5.126214   0.000628   0.400919   0.403670
    14  H    0.000628   0.565276   0.001540  -0.000268
    15  H    0.400919   0.001540   0.540058  -0.037006
    16  H    0.403670  -0.000268  -0.037006   0.565281
 Mulliken charges:
               1
     1  H    0.108264
     2  C   -0.097126
     3  C   -0.196987
     4  C   -0.097179
     5  H    0.102882
     6  C    0.108440
     7  C   -0.196892
     8  H    0.108264
     9  C   -0.290407
    10  C    0.108334
    11  H    0.102881
    12  H    0.146733
    13  C   -0.290397
    14  H    0.118230
    15  H    0.146733
    16  H    0.118227
 Sum of Mulliken charges =  -0.00000
 Mulliken charges with hydrogens summed into heavy atoms:
               1
     2  C    0.011137
     3  C   -0.094105
     4  C    0.011085
     6  C    0.108440
     7  C   -0.094011
     9  C   -0.025444
    10  C    0.108334
    13  C   -0.025436
 Electronic spatial extent (au):  <R**2>=           2731.4591
 Charge=             -0.0000 electrons
 Dipole moment (field-independent basis, Debye):
    X=              0.0959    Y=              0.0035    Z=              0.1744  Tot=              0.1991
 Quadrupole moment (field-independent basis, Debye-Ang):
   XX=            -44.1610   YY=            -51.2392   ZZ=            -43.5665
   XY=              0.4065   XZ=             -0.0008   YZ=             -0.0826
 Traceless Quadrupole moment (field-independent basis, Debye-Ang):
   XX=              2.1613   YY=             -4.9170   ZZ=              2.7557
   XY=              0.4065   XZ=             -0.0008   YZ=             -0.0826
 Octapole moment (field-independent basis, Debye-Ang**2):
  XXX=            -38.2210  YYY=             -0.7358  ZZZ=           -410.6217  XYY=            -11.8924
  XXY=              0.1918  XXZ=           -137.0774  XZZ=            -16.5140  YZZ=             -1.4115
  YYZ=           -152.3356  XYZ=              1.2875
 Hexadecapole moment (field-independent basis, Debye-Ang**3):
 XXXX=           -474.2003 YYYY=            -86.8167 ZZZZ=          -3166.2156 XXXY=             18.4436
 XXXZ=           -176.6173 YYYX=             16.5403 YYYZ=            -17.7247 ZZZX=           -216.3737
 ZZZY=            -25.6041 XXYY=           -106.6559 XXZZ=           -609.7551 YYZZ=           -578.3671
 XXYZ=             -4.7760 YYXZ=            -52.5578 ZZXY=              9.6771
 N-N= 3.297208474733D+02 E-N=-1.377168423995D+03  KE= 3.080316107636D+02
 1\1\GINC-BHC0011\SP\RB3LYP\def2TZVP\C8H8\DHANAWAY\10-Jun-2022\0\\# sp 
 B3LYP/Def2TZVP NoSymm\\ts_initalOpt_zmat_AlignedSp\\0,1\H\C,1,1.082981
 36\C,2,1.38052918,1,119.65225245\C,2,1.41374326,1,118.80285074,3,-177.
 58037108,0\H,3,1.08353118,2,121.06651427,1,-1.69593942,0\C,3,1.4054529
 2,2,117.09467541,5,-174.74822037,0\C,4,1.38052918,2,121.49926127,1,-17
 7.85977671,0\H,4,1.08298136,2,118.80285074,7,177.53381085,0\C,6,1.4238
 2546,3,133.35745774,2,164.30520629,0\C,6,1.41211469,3,120.32937964,9,-
 176.59725072,0\H,7,1.08353118,4,121.06651427,2,175.81731673,0\H,9,1.07
 813891,6,117.953817,3,-120.94221345,0\C,10,1.42382546,6,106.2471211,3,
 -159.04370447,0\H,9,1.08820331,6,123.04379355,12,156.53443995,0\H,13,1
 .07813891,10,117.953817,6,55.99892093,0\H,13,1.08820331,10,123.0437935
 5,15,156.53443995,0\\Version=ES64L-G16RevA.03\HF=-309.6783483\RMSD=6.9
 62e-09\Dipole=0.0377194,0.001361,0.0686318\Quadrupole=1.6068439,-3.655
 6606,2.0488167,0.3022097,-0.0006188,-0.0614033\PG=C02 [X(C8H8)]\\@


 THE ONLY DIFFERENCE BETWEEN ECCENTRICS AND JOGGERS
 IS THAT JOGGERS WEAR SWEATBANDS WHEN THEY RUN IN THE RAIN.
 Job cpu time:       0 days  0 hours 11 minutes  5.9 seconds.
 Elapsed time:       0 days  0 hours  0 minutes 56.4 seconds.
 File lengths (MBytes):  RWF=     52 Int=      0 D2E=      0 Chk=     32 Scr=      1
 Normal termination of Gaussian 16 at Fri Jun 10 22:23:01 2022.
