 Entering Gaussian System, Link 0=g16
 Input=ts_initalOptXYZ_aligned_sp.gjf
 Output=ts_initalOptXYZ_aligned_sp.out
 Initial command:
 /software/gaussian/g16-a03/l1.exe "/local_scratch/11171639/Gau-8115.inp" -scrdir="/local_scratch/11171639/"
 Entering Link 1 = /software/gaussian/g16-a03/l1.exe PID=      8116.
  
 Copyright (c) 1988,1990,1992,1993,1995,1998,2003,2009,2016,
            Gaussian, Inc.  All Rights Reserved.
  
 This is part of the Gaussian(R) 16 program.  It is based on
 the Gaussian(R) 09 system (copyright 2009, Gaussian, Inc.),
 the Gaussian(R) 03 system (copyright 2003, Gaussian, Inc.),
 the Gaussian(R) 98 system (copyright 1998, Gaussian, Inc.),
 the Gaussian(R) 94 system (copyright 1995, Gaussian, Inc.),
 the Gaussian 92(TM) system (copyright 1992, Gaussian, Inc.),
 the Gaussian 90(TM) system (copyright 1990, Gaussian, Inc.),
 the Gaussian 88(TM) system (copyright 1988, Gaussian, Inc.),
 the Gaussian 86(TM) system (copyright 1986, Carnegie Mellon
 University), and the Gaussian 82(TM) system (copyright 1983,
 Carnegie Mellon University). Gaussian is a federally registered
 trademark of Gaussian, Inc.
  
 This software contains proprietary and confidential information,
 including trade secrets, belonging to Gaussian, Inc.
  
 This software is provided under written license and may be
 used, copied, transmitted, or stored only in accord with that
 written license.
  
 The following legend is applicable only to US Government
 contracts under FAR:
  
                    RESTRICTED RIGHTS LEGEND
  
 Use, reproduction and disclosure by the US Government is
 subject to restrictions as set forth in subparagraphs (a)
 and (c) of the Commercial Computer Software - Restricted
 Rights clause in FAR 52.227-19.
  
 Gaussian, Inc.
 340 Quinnipiac St., Bldg. 40, Wallingford CT 06492
  
  
 ---------------------------------------------------------------
 Warning -- This program may not be used in any manner that
 competes with the business of Gaussian, Inc. or will provide
 assistance to any competitor of Gaussian, Inc.  The licensee
 of this program is prohibited from giving any competitor of
 Gaussian, Inc. access to this program.  By using this program,
 the user acknowledges that Gaussian, Inc. is engaged in the
 business of creating and licensing software in the field of
 computational chemistry and represents and warrants to the
 licensee that it is not a competitor of Gaussian, Inc. and that
 it will not use this program in any manner prohibited above.
 ---------------------------------------------------------------
  

 Cite this work as:
 Gaussian 16, Revision A.03,
 M. J. Frisch, G. W. Trucks, H. B. Schlegel, G. E. Scuseria, 
 M. A. Robb, J. R. Cheeseman, G. Scalmani, V. Barone, 
 G. A. Petersson, H. Nakatsuji, X. Li, M. Caricato, A. V. Marenich, 
 J. Bloino, B. G. Janesko, R. Gomperts, B. Mennucci, H. P. Hratchian, 
 J. V. Ortiz, A. F. Izmaylov, J. L. Sonnenberg, D. Williams-Young, 
 F. Ding, F. Lipparini, F. Egidi, J. Goings, B. Peng, A. Petrone, 
 T. Henderson, D. Ranasinghe, V. G. Zakrzewski, J. Gao, N. Rega, 
 G. Zheng, W. Liang, M. Hada, M. Ehara, K. Toyota, R. Fukuda, 
 J. Hasegawa, M. Ishida, T. Nakajima, Y. Honda, O. Kitao, H. Nakai, 
 T. Vreven, K. Throssell, J. A. Montgomery, Jr., J. E. Peralta, 
 F. Ogliaro, M. J. Bearpark, J. J. Heyd, E. N. Brothers, K. N. Kudin, 
 V. N. Staroverov, T. A. Keith, R. Kobayashi, J. Normand, 
 K. Raghavachari, A. P. Rendell, J. C. Burant, S. S. Iyengar, 
 J. Tomasi, M. Cossi, J. M. Millam, M. Klene, C. Adamo, R. Cammi, 
 J. W. Ochterski, R. L. Martin, K. Morokuma, O. Farkas, 
 J. B. Foresman, and D. J. Fox, Gaussian, Inc., Wallingford CT, 2016.
 
 ******************************************
 Gaussian 16:  ES64L-G16RevA.03 25-Dec-2016
                10-Jun-2022 
 ******************************************
 %nprocshared=12
 Will use up to   12 processors via shared memory.
 %chk=checkpoint.chk
 %mem=12GB
 --------------------------
 # sp B3LYP/Def2TZVP NoSymm
 --------------------------
 1/38=1,172=1/1;
 2/12=2,15=1,17=6,18=5,40=1/2;
 3/5=44,7=101,11=2,25=1,30=1,74=-5/1,2,3;
 4//1;
 5/5=2,38=5/2;
 6/7=2,8=2,9=2,10=2,28=1/1;
 99/5=1,9=1/99;
 ---------------------------------
 ts_initalOptXYZ_aligned_AlignedSp
 ---------------------------------
 Symbolic Z-matrix:
 Charge =  0 Multiplicity = 1
 7                     0.54663   0.        0.06664 
 6                    -1.24073   0.00001  -0.94409 
 8                     0.10901  -0.00001   1.33472 
 6                    -2.11982  0.         0.15141 
 1                    -1.11731  -0.00001   1.07284 
 1                    -2.67337  -0.91096   0.35688 
 1                    -2.67337   0.91096   0.35689 
 1                    -1.06179   0.90886  -1.50593 
 1                    -1.06179  -0.90883  -1.50595 
 6                     1.27728   1.22542  -0.2606 
 1                     2.20738   1.28017   0.31204 
 1                     0.65181   2.07622  -0.00169 
 1                     1.50343   1.24468  -1.32815 
 6                     1.27727  -1.22542  -0.26061 
 1                     0.6518   -2.07622  -0.0017 
 1                     2.20737  -1.28018   0.31202 
 1                     1.50342  -1.24467  -1.32816 
 
                          Input orientation:                          
 ---------------------------------------------------------------------
 Center     Atomic      Atomic             Coordinates (Angstroms)
 Number     Number       Type             X           Y           Z
 ---------------------------------------------------------------------
      1          7           0        0.546626    0.000000    0.066636
      2          6           0       -1.240726    0.000009   -0.944094
      3          8           0        0.109010   -0.000005    1.334724
      4          6           0       -2.119820   -0.000001    0.151407
      5          1           0       -1.117306   -0.000006    1.072844
      6          1           0       -2.673371   -0.910962    0.356876
      7          1           0       -2.673374    0.910955    0.356890
      8          1           0       -1.061794    0.908861   -1.505931
      9          1           0       -1.061792   -0.908830   -1.505950
     10          6           0        1.277275    1.225415   -0.260596
     11          1           0        2.207380    1.280165    0.312036
     12          1           0        0.651810    2.076223   -0.001687
     13          1           0        1.503426    1.244676   -1.328148
     14          6           0        1.277267   -1.225417   -0.260607
     15          1           0        0.651797   -2.076222   -0.001703
     16          1           0        2.207372   -1.280177    0.312024
     17          1           0        1.503416   -1.244673   -1.328160
 ---------------------------------------------------------------------
                    Distance matrix (angstroms):
                    1          2          3          4          5
     1  N    0.000000
     2  C    2.053339   0.000000
     3  O    1.341475   2.648547   0.000000
     4  C    2.667793   1.404610   2.523474   0.000000
     5  H    1.944511   2.020711   1.253967   1.361646   0.000000
     6  H    3.358939   2.138893   3.086693   1.085581   1.940049
     7  H    3.358941   2.138893   3.086692   1.085581   1.940048
     8  H    2.426110   1.083369   3.204082   2.166153   2.734813
     9  H    2.426109   1.083369   3.204086   2.166155   2.734817
    10  C    1.463752   2.882554   2.326272   3.634783   3.002289
    11  H    2.111196   3.886656   2.662308   4.515450   3.642966
    12  H    2.080008   2.963189   2.528112   3.466421   2.931743
    13  H    2.100025   3.037608   3.253385   4.106850   3.765930
    14  C    1.463752   2.882553   2.326272   3.634776   3.002283
    15  H    2.080007   2.963187   2.528108   3.466410   2.931731
    16  H    2.111195   3.886655   2.662307   4.515444   3.642962
    17  H    2.100027   3.037607   3.253386   4.106844   3.765926
                    6          7          8          9         10
     6  H    0.000000
     7  H    1.821917   0.000000
     8  H    3.062513   2.463188   0.000000
     9  H    2.463191   3.062513   1.817691   0.000000
    10  C    4.533540   4.010960   2.668766   3.402520   0.000000
    11  H    5.350213   4.894904   3.759038   4.334081   1.093618
    12  H    4.484269   3.541649   2.561625   3.756299   1.087251
    13  H    4.993167   4.516235   2.593209   3.354034   1.091413
    14  C    4.010948   4.533536   3.402526   2.668764   2.450832
    15  H    3.541631   4.484259   3.756304   2.561630   3.370320
    16  H    4.894894   5.350211   4.334085   3.759037   2.733307
    17  H    4.516222   4.993165   3.354044   2.593201   2.700401
                   11         12         13         14         15
    11  H    0.000000
    12  H    1.775367   0.000000
    13  H    1.785221   1.782195   0.000000
    14  C    2.733308   3.370321   2.700398   0.000000
    15  H    3.712628   4.152445   3.676016   1.087250   0.000000
    16  H    2.560342   3.712628   3.092020   1.093618   1.775366
    17  H    3.092024   3.676019   2.489349   1.091414   1.782194
                   16         17
    16  H    0.000000
    17  H    1.785222   0.000000
 Symmetry turned off by external request.
 Stoichiometry    C4H11NO
 Framework group  C1[X(C4H11NO)]
 Deg. of freedom    45
 Full point group                 C1      NOp   1
 Rotational constants (GHZ):           4.8036059           2.5284776           2.4816006
 Standard basis: def2TZVP (5D, 7F)
   252 basis functions,   394 primitive gaussians,   282 cartesian basis functions
    25 alpha electrons       25 beta electrons
       nuclear repulsion energy       269.1407956312 Hartrees.
 NAtoms=   17 NActive=   17 NUniq=   17 SFac= 1.00D+00 NAtFMM=   60 NAOKFM=F Big=F
 Integral buffers will be    131072 words long.
 Raffenetti 2 integral format.
 Two-electron integral symmetry is turned off.
 One-electron integrals computed using PRISM.
   1 Symmetry operations used in ECPInt.
 ECPInt:  NShTT=    6105 NPrTT=   17556 LenC2=    6059 LenP2D=   14552.
 LDataN:  DoStor=T MaxTD1= 6 Len=  172
 NBasis=   252 RedAO= T EigKep=  1.86D-04  NBF=   252
 NBsUse=   252 1.00D-06 EigRej= -1.00D+00 NBFU=   252
 ExpMin= 9.52D-02 ExpMax= 2.70D+04 ExpMxC= 9.22D+02 IAcc=3 IRadAn=         5 AccDes= 0.00D+00
 Harris functional with IExCor=  402 and IRadAn=       5 diagonalized for initial guess.
 HarFok:  IExCor=  402 AccDes= 0.00D+00 IRadAn=         5 IDoV= 1 UseB2=F ITyADJ=14
 ICtDFT=  3500011 ScaDFX=  1.000000  1.000000  1.000000  1.000000
 FoFCou: FMM=F IPFlag=           0 FMFlag=      100000 FMFlg1=           0
         NFxFlg=           0 DoJE=T BraDBF=F KetDBF=T FulRan=T
         wScrn=  0.000000 ICntrl=       500 IOpCl=  0 I1Cent=   200000004 NGrid=           0
         NMat0=    1 NMatS0=      1 NMatT0=    0 NMatD0=    1 NMtDS0=    0 NMtDT0=    0
 Symmetry not used in FoFCou.
 Requested convergence on RMS density matrix=1.00D-08 within 128 cycles.
 Requested convergence on MAX density matrix=1.00D-06.
 Requested convergence on             energy=1.00D-06.
 No special actions if energy rises.
 Integral accuracy reduced to 1.0D-05 until final iterations.
 Initial convergence to 1.0D-05 achieved.  Increase integral accuracy.
 SCF Done:  E(RB3LYP) =  -289.018861788     A.U. after   13 cycles
            NFock= 13  Conv=0.80D-08     -V/T= 2.0052

 **********************************************************************

            Population analysis using the SCF density.

 **********************************************************************

 Alpha  occ. eigenvalues --  -19.11060 -14.40685 -10.20521 -10.20521 -10.19199
 Alpha  occ. eigenvalues --  -10.13593  -1.07028  -0.83992  -0.75767  -0.73464
 Alpha  occ. eigenvalues --   -0.62191  -0.58313  -0.51019  -0.49329  -0.48483
 Alpha  occ. eigenvalues --   -0.45715  -0.42598  -0.41608  -0.40924  -0.39404
 Alpha  occ. eigenvalues --   -0.38939  -0.35030  -0.26296  -0.26106  -0.23935
 Alpha virt. eigenvalues --    0.00094   0.02359   0.06288   0.06431   0.08440
 Alpha virt. eigenvalues --    0.08483   0.09592   0.09759   0.11476   0.11730
 Alpha virt. eigenvalues --    0.13782   0.15454   0.17192   0.17813   0.18043
 Alpha virt. eigenvalues --    0.19097   0.20412   0.23792   0.23849   0.25115
 Alpha virt. eigenvalues --    0.27811   0.27997   0.30282   0.31898   0.32094
 Alpha virt. eigenvalues --    0.34483   0.36448   0.36958   0.39315   0.40475
 Alpha virt. eigenvalues --    0.40825   0.41972   0.44261   0.45429   0.45479
 Alpha virt. eigenvalues --    0.45935   0.47082   0.47700   0.49561   0.51616
 Alpha virt. eigenvalues --    0.52341   0.53272   0.53542   0.55992   0.56700
 Alpha virt. eigenvalues --    0.61505   0.63272   0.66943   0.67785   0.71828
 Alpha virt. eigenvalues --    0.74949   0.78805   0.81431   0.83617   0.88629
 Alpha virt. eigenvalues --    0.89009   0.89928   0.93534   0.95038   0.95404
 Alpha virt. eigenvalues --    0.97129   1.00002   1.00912   1.02593   1.04497
 Alpha virt. eigenvalues --    1.07414   1.09471   1.11596   1.14516   1.19902
 Alpha virt. eigenvalues --    1.21979   1.31827   1.31872   1.37682   1.39321
 Alpha virt. eigenvalues --    1.41676   1.45340   1.48264   1.50414   1.50494
 Alpha virt. eigenvalues --    1.51128   1.51310   1.54131   1.55860   1.58073
 Alpha virt. eigenvalues --    1.58734   1.59333   1.60789   1.62966   1.65859
 Alpha virt. eigenvalues --    1.68194   1.69914   1.72577   1.74907   1.76994
 Alpha virt. eigenvalues --    1.79474   1.81286   1.83253   1.88062   1.88621
 Alpha virt. eigenvalues --    1.95206   1.97258   1.97275   2.00528   2.00586
 Alpha virt. eigenvalues --    2.06166   2.07217   2.09878   2.11203   2.12446
 Alpha virt. eigenvalues --    2.14009   2.19480   2.24537   2.24823   2.27711
 Alpha virt. eigenvalues --    2.30935   2.33607   2.35916   2.38853   2.40390
 Alpha virt. eigenvalues --    2.43638   2.44535   2.45834   2.46603   2.47432
 Alpha virt. eigenvalues --    2.48050   2.50051   2.53001   2.54402   2.57155
 Alpha virt. eigenvalues --    2.57553   2.60492   2.61881   2.63405   2.65032
 Alpha virt. eigenvalues --    2.68444   2.69514   2.71299   2.75123   2.76902
 Alpha virt. eigenvalues --    2.77707   2.87702   2.88219   2.93951   2.96422
 Alpha virt. eigenvalues --    2.96872   3.00521   3.05616   3.08363   3.08630
 Alpha virt. eigenvalues --    3.09880   3.13370   3.13986   3.15006   3.17079
 Alpha virt. eigenvalues --    3.21495   3.21660   3.23186   3.23718   3.27558
 Alpha virt. eigenvalues --    3.29924   3.30052   3.32429   3.36843   3.38539
 Alpha virt. eigenvalues --    3.39002   3.46535   3.51491   3.53320   3.55208
 Alpha virt. eigenvalues --    3.56574   3.57825   3.60031   3.61217   3.62808
 Alpha virt. eigenvalues --    3.66713   3.69007   3.75518   3.81090   3.91746
 Alpha virt. eigenvalues --    3.98198   4.01964   4.09858   4.09935   4.10334
 Alpha virt. eigenvalues --    4.14689   4.16965   4.20545   4.22495   4.36157
 Alpha virt. eigenvalues --    4.39027   4.39500   4.41686   4.45710   4.49939
 Alpha virt. eigenvalues --    4.55392   4.64068   4.73552   4.79680   4.85889
 Alpha virt. eigenvalues --    4.89948   4.98742   5.05341   5.13082   5.20854
 Alpha virt. eigenvalues --    5.32709   5.33631   5.45439   5.47352   5.54126
 Alpha virt. eigenvalues --    5.57706   5.57708   5.80876   6.14685   6.19457
 Alpha virt. eigenvalues --    6.44145   6.71707   6.90298   6.95499   7.09063
 Alpha virt. eigenvalues --    7.67368  22.18148  22.39518  22.40442  22.55669
 Alpha virt. eigenvalues --   32.33080  44.01192
          Condensed to atoms (all electrons):
               1          2          3          4          5          6
     1  N    6.395034   0.175267   0.177694  -0.079758  -0.056853   0.005143
     2  C    0.175267   5.050853  -0.089291   0.390600  -0.038682  -0.026918
     3  O    0.177694  -0.089291   8.391796  -0.131263   0.183272  -0.001252
     4  C   -0.079758   0.390600  -0.131263   5.318268   0.243899   0.378244
     5  H   -0.056853  -0.038682   0.183272   0.243899   0.363096  -0.007720
     6  H    0.005143  -0.026918  -0.001252   0.378244  -0.007720   0.588663
     7  H    0.005143  -0.026918  -0.001252   0.378244  -0.007720  -0.033338
     8  H   -0.029297   0.388214   0.004001  -0.022847   0.003142   0.006070
     9  H   -0.029297   0.388214   0.004001  -0.022847   0.003142  -0.014795
    10  C    0.265572  -0.019825  -0.057838   0.000377   0.006550  -0.000886
    11  H   -0.032032   0.008836   0.002804  -0.001474  -0.000988   0.000047
    12  H   -0.031672  -0.011047   0.005424   0.002028   0.002014   0.000084
    13  H   -0.040086  -0.005108   0.008158   0.003491  -0.000553   0.000073
    14  C    0.265572  -0.019824  -0.057838   0.000377   0.006550   0.000974
    15  H   -0.031672  -0.011047   0.005424   0.002028   0.002014  -0.000770
    16  H   -0.032032   0.008836   0.002804  -0.001474  -0.000988   0.000049
    17  H   -0.040086  -0.005108   0.008158   0.003491  -0.000553  -0.000362
               7          8          9         10         11         12
     1  N    0.005143  -0.029297  -0.029297   0.265572  -0.032032  -0.031672
     2  C   -0.026918   0.388214   0.388214  -0.019825   0.008836  -0.011047
     3  O   -0.001252   0.004001   0.004001  -0.057838   0.002804   0.005424
     4  C    0.378244  -0.022847  -0.022847   0.000377  -0.001474   0.002028
     5  H   -0.007720   0.003142   0.003142   0.006550  -0.000988   0.002014
     6  H   -0.033338   0.006070  -0.014795  -0.000886   0.000047   0.000084
     7  H    0.588663  -0.014795   0.006070   0.000974   0.000049  -0.000770
     8  H   -0.014795   0.585453  -0.033633  -0.002325  -0.000341   0.001273
     9  H    0.006070  -0.033633   0.585452   0.004086  -0.000536   0.000424
    10  C    0.000974  -0.002325   0.004086   4.938130   0.397953   0.400114
    11  H    0.000049  -0.000341  -0.000536   0.397953   0.561008  -0.022066
    12  H   -0.000770   0.001273   0.000424   0.400114  -0.022066   0.531653
    13  H   -0.000362   0.002452  -0.000331   0.393145  -0.032106  -0.023426
    14  C   -0.000886   0.004086  -0.002325  -0.071134  -0.007789   0.011129
    15  H    0.000084   0.000424   0.001272   0.011129  -0.000585  -0.000420
    16  H    0.000047  -0.000536  -0.000341  -0.007789   0.008379  -0.000585
    17  H    0.000073  -0.000331   0.002452  -0.001233  -0.000669  -0.000528
              13         14         15         16         17
     1  N   -0.040086   0.265572  -0.031672  -0.032032  -0.040086
     2  C   -0.005108  -0.019824  -0.011047   0.008836  -0.005108
     3  O    0.008158  -0.057838   0.005424   0.002804   0.008158
     4  C    0.003491   0.000377   0.002028  -0.001474   0.003491
     5  H   -0.000553   0.006550   0.002014  -0.000988  -0.000553
     6  H    0.000073   0.000974  -0.000770   0.000049  -0.000362
     7  H   -0.000362  -0.000886   0.000084   0.000047   0.000073
     8  H    0.002452   0.004086   0.000424  -0.000536  -0.000331
     9  H   -0.000331  -0.002325   0.001272  -0.000341   0.002452
    10  C    0.393145  -0.071134   0.011129  -0.007789  -0.001233
    11  H   -0.032106  -0.007789  -0.000585   0.008379  -0.000669
    12  H   -0.023426   0.011129  -0.000420  -0.000585  -0.000528
    13  H    0.583001  -0.001233  -0.000528  -0.000669  -0.001105
    14  C   -0.001233   4.938130   0.400114   0.397953   0.393145
    15  H   -0.000528   0.400114   0.531653  -0.022066  -0.023426
    16  H   -0.000669   0.397953  -0.022066   0.561008  -0.032106
    17  H   -0.001105   0.393145  -0.023426  -0.032106   0.583001
 Mulliken charges:
               1
     1  N    0.113357
     2  C   -0.157052
     3  O   -0.454802
     4  C   -0.461382
     5  H    0.300378
     6  H    0.106694
     7  H    0.106694
     8  H    0.108989
     9  H    0.108990
    10  C   -0.257001
    11  H    0.119510
    12  H    0.136371
    13  H    0.115187
    14  C   -0.257001
    15  H    0.136371
    16  H    0.119510
    17  H    0.115187
 Sum of Mulliken charges =  -0.00000
 Mulliken charges with hydrogens summed into heavy atoms:
               1
     1  N    0.113357
     2  C    0.060928
     3  O   -0.154424
     4  C   -0.247994
    10  C    0.114067
    14  C    0.114067
 Electronic spatial extent (au):  <R**2>=            651.0150
 Charge=             -0.0000 electrons
 Dipole moment (field-independent basis, Debye):
    X=              1.6090    Y=              0.0000    Z=             -2.5427  Tot=              3.0090
 Quadrupole moment (field-independent basis, Debye-Ang):
   XX=            -39.3384   YY=            -36.6427   ZZ=            -43.3886
   XY=              0.0000   XZ=             -1.6789   YZ=              0.0000
 Traceless Quadrupole moment (field-independent basis, Debye-Ang):
   XX=              0.4515   YY=              3.1472   ZZ=             -3.5987
   XY=              0.0000   XZ=             -1.6789   YZ=              0.0000
 Octapole moment (field-independent basis, Debye-Ang**2):
  XXX=             14.7683  YYY=             -0.0000  ZZZ=             -3.0554  XYY=              1.5350
  XXY=             -0.0000  XXZ=              5.3342  XZZ=              1.9652  YZZ=             -0.0000
  YYZ=              0.4177  XYZ=             -0.0000
 Hexadecapole moment (field-independent basis, Debye-Ang**3):
 XXXX=           -514.7780 YYYY=           -207.0687 ZZZZ=           -187.4841 XXXY=              0.0000
 XXXZ=             -6.8912 YYYX=              0.0000 YYYZ=             -0.0000 ZZZX=             -6.1910
 ZZZY=              0.0001 XXYY=           -113.3821 XXZZ=           -115.6863 YYZZ=            -66.4694
 XXYZ=              0.0000 YYXZ=              0.0520 ZZXY=              0.0000
 N-N= 2.691407956312D+02 E-N=-1.211908693131D+03  KE= 2.875295981229D+02
 1\1\GINC-BHC0026\SP\RB3LYP\def2TZVP\C4H11N1O1\DHANAWAY\10-Jun-2022\0\\
 # sp B3LYP/Def2TZVP NoSymm\\ts_initalOptXYZ_aligned_AlignedSp\\0,1\N,0
 ,0.546626,0.,0.066636\C,0,-1.240726,0.000009,-0.944094\O,0,0.10901,-0.
 000005,1.334724\C,0,-2.11982,-0.000001,0.151407\H,0,-1.117306,-0.00000
 6,1.072844\H,0,-2.673371,-0.910962,0.356876\H,0,-2.673374,0.910955,0.3
 5689\H,0,-1.061794,0.908861,-1.505931\H,0,-1.061792,-0.90883,-1.50595\
 C,0,1.277275,1.225415,-0.260596\H,0,2.20738,1.280165,0.312036\H,0,0.65
 181,2.076223,-0.001687\H,0,1.503426,1.244676,-1.328148\C,0,1.277267,-1
 .225417,-0.260607\H,0,0.651797,-2.076222,-0.001703\H,0,2.207372,-1.280
 177,0.312024\H,0,1.503416,-1.244673,-1.32816\\Version=ES64L-G16RevA.03
 \HF=-289.0188618\RMSD=7.996e-09\Dipole=0.6330249,0.0000033,-1.0003761\
 Quadrupole=0.3356672,2.3398793,-2.6755465,0.0000068,-1.2482565,0.00002
 32\PG=C01 [X(C4H11N1O1)]\\@


 NOTHING MAKES A PERSON MORE PRODUCTIVE THAN THE LAST MINUTE.
 Job cpu time:       0 days  0 hours  6 minutes 28.8 seconds.
 Elapsed time:       0 days  0 hours  0 minutes 32.6 seconds.
 File lengths (MBytes):  RWF=     40 Int=      0 D2E=      0 Chk=     32 Scr=      1
 Normal termination of Gaussian 16 at Fri Jun 10 10:53:37 2022.
