 Entering Gaussian System, Link 0=g16
 Input=int_zmat_field_N75.gjf
 Output=int_zmat_field_N75.out
 Initial command:
 /software/gaussian/g16-a03/l1.exe "/local_scratch/11171341/Gau-28582.inp" -scrdir="/local_scratch/11171341/"
 Entering Link 1 = /software/gaussian/g16-a03/l1.exe PID=     28583.
  
 Copyright (c) 1988,1990,1992,1993,1995,1998,2003,2009,2016,
            Gaussian, Inc.  All Rights Reserved.
  
 This is part of the Gaussian(R) 16 program.  It is based on
 the Gaussian(R) 09 system (copyright 2009, Gaussian, Inc.),
 the Gaussian(R) 03 system (copyright 2003, Gaussian, Inc.),
 the Gaussian(R) 98 system (copyright 1998, Gaussian, Inc.),
 the Gaussian(R) 94 system (copyright 1995, Gaussian, Inc.),
 the Gaussian 92(TM) system (copyright 1992, Gaussian, Inc.),
 the Gaussian 90(TM) system (copyright 1990, Gaussian, Inc.),
 the Gaussian 88(TM) system (copyright 1988, Gaussian, Inc.),
 the Gaussian 86(TM) system (copyright 1986, Carnegie Mellon
 University), and the Gaussian 82(TM) system (copyright 1983,
 Carnegie Mellon University). Gaussian is a federally registered
 trademark of Gaussian, Inc.
  
 This software contains proprietary and confidential information,
 including trade secrets, belonging to Gaussian, Inc.
  
 This software is provided under written license and may be
 used, copied, transmitted, or stored only in accord with that
 written license.
  
 The following legend is applicable only to US Government
 contracts under FAR:
  
                    RESTRICTED RIGHTS LEGEND
  
 Use, reproduction and disclosure by the US Government is
 subject to restrictions as set forth in subparagraphs (a)
 and (c) of the Commercial Computer Software - Restricted
 Rights clause in FAR 52.227-19.
  
 Gaussian, Inc.
 340 Quinnipiac St., Bldg. 40, Wallingford CT 06492
  
  
 ---------------------------------------------------------------
 Warning -- This program may not be used in any manner that
 competes with the business of Gaussian, Inc. or will provide
 assistance to any competitor of Gaussian, Inc.  The licensee
 of this program is prohibited from giving any competitor of
 Gaussian, Inc. access to this program.  By using this program,
 the user acknowledges that Gaussian, Inc. is engaged in the
 business of creating and licensing software in the field of
 computational chemistry and represents and warrants to the
 licensee that it is not a competitor of Gaussian, Inc. and that
 it will not use this program in any manner prohibited above.
 ---------------------------------------------------------------
  

 Cite this work as:
 Gaussian 16, Revision A.03,
 M. J. Frisch, G. W. Trucks, H. B. Schlegel, G. E. Scuseria, 
 M. A. Robb, J. R. Cheeseman, G. Scalmani, V. Barone, 
 G. A. Petersson, H. Nakatsuji, X. Li, M. Caricato, A. V. Marenich, 
 J. Bloino, B. G. Janesko, R. Gomperts, B. Mennucci, H. P. Hratchian, 
 J. V. Ortiz, A. F. Izmaylov, J. L. Sonnenberg, D. Williams-Young, 
 F. Ding, F. Lipparini, F. Egidi, J. Goings, B. Peng, A. Petrone, 
 T. Henderson, D. Ranasinghe, V. G. Zakrzewski, J. Gao, N. Rega, 
 G. Zheng, W. Liang, M. Hada, M. Ehara, K. Toyota, R. Fukuda, 
 J. Hasegawa, M. Ishida, T. Nakajima, Y. Honda, O. Kitao, H. Nakai, 
 T. Vreven, K. Throssell, J. A. Montgomery, Jr., J. E. Peralta, 
 F. Ogliaro, M. J. Bearpark, J. J. Heyd, E. N. Brothers, K. N. Kudin, 
 V. N. Staroverov, T. A. Keith, R. Kobayashi, J. Normand, 
 K. Raghavachari, A. P. Rendell, J. C. Burant, S. S. Iyengar, 
 J. Tomasi, M. Cossi, J. M. Millam, M. Klene, C. Adamo, R. Cammi, 
 J. W. Ochterski, R. L. Martin, K. Morokuma, O. Farkas, 
 J. B. Foresman, and D. J. Fox, Gaussian, Inc., Wallingford CT, 2016.
 
 ******************************************
 Gaussian 16:  ES64L-G16RevA.03 25-Dec-2016
                10-Jun-2022 
 ******************************************
 %nprocshared=12
 Will use up to   12 processors via shared memory.
 %chk=checkpoint.chk
 %mem=12GB
 ----------------------------------------------------------------------
 # Opt=(Z-matrix, MaxStep=10) B3LYP/Def2TZVP geom=allcheckpoint guess=r
 ead Field=read NoSymm freq=noraman pop=none
 ----------------------------------------------------------------------
 1/8=10,10=7,18=40,26=3,29=7,38=1/1,3;
 2/12=2,15=1,29=3,40=1/2;
 3/5=44,7=101,11=2,14=-6,25=1,30=1,71=1,74=-5,116=-2/1,2,3;
 4/5=1/1;
 5/5=2,38=6/2;
 7/29=1,30=1/1,2,3,16;
 1/8=10,10=7,18=40,26=3/3(2);
 2/15=1,29=3/2;
 99//99;
 2/15=1,29=3/2;
 3/5=44,7=101,11=2,14=-2,25=1,30=1,71=1,74=-5/1,2,3;
 4/5=5,16=3,69=1/1;
 5/5=2,38=5/2;
 7/30=1/1,2,3,16;
 1/8=10,18=40,26=3/3(-5);
 2/15=1,29=3/2;
 99/9=1/99;
 Structure from the checkpoint file:  "checkpoint.chk"
 ------------------
 int_zmat_initalOpt
 ------------------
 Charge =  0 Multiplicity = 1
 Z-Matrix found in chk file.
 C
 C,1,R2
 C,1,R3,2,A3
 H,1,R4,2,A4,3,D4,0
 H,1,R5,2,A5,3,D5,0
 H,3,R6,1,A6,2,D6,0
 H,3,R7,1,A7,6,D7,0
 C,2,R8,1,A8,3,D8,0
 H,2,R9,1,A9,8,D9,0
 C,8,R10,2,A10,1,D10,0
 H,8,R11,2,A11,10,D11,0
 H,10,R12,8,A12,2,D12,0
 H,10,R13,8,A13,12,D13,0
      Variables:
 R2=1.51680933
 R3=1.50285271
 R4=1.08208578
 R5=1.08150482
 R6=1.08175965
 R7=1.08153206
 R8=1.48072322
 R9=1.08449285
 R10=1.32967898
 R11=1.08754879
 R12=1.08363288
 R13=1.08285786
 A3=59.62825889
 A4=116.8889269
 A5=118.03510788
 A6=117.6823654
 A7=118.22751654
 A8=120.09472557
 A9=114.18347676
 A10=127.03996496
 A11=114.56840507
 A12=122.07484306
 A13=121.05676235
 D4=-107.81668893
 D5=108.6754567
 D6=-108.65778791
 D7=-143.81072284
 D8=112.89536029
 D9=140.2009469
 D10=-83.83597715
 D11=179.58275834
 D12=-2.01219791
 D13=-179.09362855
 Recover connectivity data from disk.

 GradGradGradGradGradGradGradGradGradGradGradGradGradGradGradGradGradGrad
 Berny optimization.
 Initialization pass.
                       ----------------------------
                       !    Initial Parameters    !
                       ! (Angstroms and Degrees)  !
 ----------------------                            ----------------------
 !      Name          Value   Derivative information (Atomic Units)     !
 ------------------------------------------------------------------------
 !       R2          1.5168   estimate D2E/DX2                          !
 !       R3          1.5029   estimate D2E/DX2                          !
 !       R4          1.0821   estimate D2E/DX2                          !
 !       R5          1.0815   estimate D2E/DX2                          !
 !       R6          1.0818   estimate D2E/DX2                          !
 !       R7          1.0815   estimate D2E/DX2                          !
 !       R8          1.4807   estimate D2E/DX2                          !
 !       R9          1.0845   estimate D2E/DX2                          !
 !       R10         1.3297   estimate D2E/DX2                          !
 !       R11         1.0875   estimate D2E/DX2                          !
 !       R12         1.0836   estimate D2E/DX2                          !
 !       R13         1.0829   estimate D2E/DX2                          !
 !       A3         59.6283   estimate D2E/DX2                          !
 !       A4        116.8889   estimate D2E/DX2                          !
 !       A5        118.0351   estimate D2E/DX2                          !
 !       A6        117.6824   estimate D2E/DX2                          !
 !       A7        118.2275   estimate D2E/DX2                          !
 !       A8        120.0947   estimate D2E/DX2                          !
 !       A9        114.1835   estimate D2E/DX2                          !
 !       A10       127.04     estimate D2E/DX2                          !
 !       A11       114.5684   estimate D2E/DX2                          !
 !       A12       122.0748   estimate D2E/DX2                          !
 !       A13       121.0568   estimate D2E/DX2                          !
 !       D4       -107.8167   estimate D2E/DX2                          !
 !       D5        108.6755   estimate D2E/DX2                          !
 !       D6       -108.6578   estimate D2E/DX2                          !
 !       D7       -143.8107   estimate D2E/DX2                          !
 !       D8        112.8954   estimate D2E/DX2                          !
 !       D9        140.2009   estimate D2E/DX2                          !
 !       D10       -83.836    estimate D2E/DX2                          !
 !       D11       179.5828   estimate D2E/DX2                          !
 !       D12        -2.0122   estimate D2E/DX2                          !
 !       D13      -179.0936   estimate D2E/DX2                          !
 ------------------------------------------------------------------------
 Trust Radius=1.00D-01 FncErr=1.00D-07 GrdErr=1.00D-06 EigMax=2.50D+02 EigMin=1.00D-04
 Number of steps in this run=     43 maximum allowed number of steps=    100.
 GradGradGradGradGradGradGradGradGradGradGradGradGradGradGradGradGradGrad

 ---------------------------------------------------------------------------------------------------
                            Z-MATRIX (ANGSTROMS AND DEGREES)
   CD    Cent   Atom    N1       Length/X        N2       Alpha/Y        N3        Beta/Z          J
 ---------------------------------------------------------------------------------------------------
      1      1  C 
      2      2  C        1   1.516809(     1)
      3      3  C        1   1.502853(     2)      2   59.628(    13)
      4      4  H        1   1.082086(     3)      2  116.889(    14)      3 -107.817(    24)      0
      5      5  H        1   1.081505(     4)      2  118.035(    15)      3  108.675(    25)      0
      6      6  H        3   1.081760(     5)      1  117.682(    16)      2 -108.658(    26)      0
      7      7  H        3   1.081532(     6)      1  118.228(    17)      6 -143.811(    27)      0
      8      8  C        2   1.480723(     7)      1  120.095(    18)      3  112.895(    28)      0
      9      9  H        2   1.084493(     8)      1  114.183(    19)      8  140.201(    29)      0
     10     10  C        8   1.329679(     9)      2  127.040(    20)      1  -83.836(    30)      0
     11     11  H        8   1.087549(    10)      2  114.568(    21)     10  179.583(    31)      0
     12     12  H       10   1.083633(    11)      8  122.075(    22)      2   -2.012(    32)      0
     13     13  H       10   1.082858(    12)      8  121.057(    23)     12 -179.094(    33)      0
 ---------------------------------------------------------------------------------------------------
                         Z-Matrix orientation:                         
 ---------------------------------------------------------------------
 Center     Atomic      Atomic             Coordinates (Angstroms)
 Number     Number       Type             X           Y           Z
 ---------------------------------------------------------------------
      1          6           0        0.000000    0.000000    0.000000
      2          6           0        0.000000    0.000000    1.516809
      3          6           0        1.296606    0.000000    0.759855
      4          1           0       -0.295293    0.918810   -0.489387
      5          1           0       -0.305670   -0.904339   -0.508321
      6          1           0        1.885138    0.907595    0.749548
      7          1           0        1.883073   -0.908651    0.770839
      8          6           0       -0.498418    1.180188    2.259290
      9          1           0       -0.287657   -0.946572    1.961083
     10          6           0        0.181842    2.281763    2.562315
     11          1           0       -1.537889    1.111972    2.571716
     12          1           0        1.226933    2.402437    2.302542
     13          1           0       -0.286787    3.098288    3.097343
 ---------------------------------------------------------------------
                    Distance matrix (angstroms):
                    1          2          3          4          5
     1  C    0.000000
     2  C    1.516809   0.000000
     3  C    1.502853   1.501388   0.000000
     4  H    1.082086   2.226260   2.222377   0.000000
     5  H    1.081505   2.238842   2.234589   1.823277   0.000000
     6  H    2.222453   2.228489   1.081760   2.507860   3.108854
     7  H    2.228409   2.219929   1.081532   3.110155   2.535127
     8  C    2.597240   1.480723   2.619783   2.768538   3.470169
     9  H    2.196495   1.084493   2.202008   3.079693   2.469830
    10  C    3.435836   2.516464   3.114162   3.376119   4.451709
    11  H    3.196139   2.171270   3.543118   3.309336   3.882074
    12  H    3.546656   2.809705   2.855949   3.509015   4.602672
    13  H    4.390350   3.489946   4.191703   4.197002   5.387225
                    6          7          8          9         10
     6  H    0.000000
     7  H    1.816372   0.000000
     8  C    2.834602   3.500034   0.000000
     9  H    3.102707   2.475922   2.157882   0.000000
    10  C    2.841774   4.035135   1.329679   3.317237   0.000000
    11  H    3.883191   4.362231   1.087549   2.484664   2.079897
    12  H    2.253792   3.706742   2.114853   3.691401   1.083633
    13  H    3.876666   5.116295   2.103861   4.201427   1.082858
                   11         12         13
    11  H    0.000000
    12  H    3.063004   0.000000
    13  H    2.405617   1.845878   0.000000
 Symmetry turned off by external request.
 Stoichiometry    C5H8
 Framework group  C1[X(C5H8)]
 Deg. of freedom    33
 Full point group                 C1      NOp   1
 Rotational constants (GHZ):          11.6106701           3.6676648           3.3281562
 Standard basis: def2TZVP (5D, 7F)
 The following finite field(s) will be applied:
 An electric field of              0.0022  0.0072 -0.0004
   203 basis functions,   319 primitive gaussians,   228 cartesian basis functions
    19 alpha electrons       19 beta electrons
       nuclear repulsion energy       165.1223070531 Hartrees.
 NAtoms=   13 NActive=   13 NUniq=   13 SFac= 1.00D+00 NAtFMM=   60 NAOKFM=F Big=F
 Integral buffers will be    131072 words long.
 Raffenetti 2 integral format.
 Two-electron integral symmetry is turned off.
 One-electron integrals computed using PRISM.
   1 Symmetry operations used in ECPInt.
 ECPInt:  NShTT=    3828 NPrTT=   11160 LenC2=    3810 LenP2D=    9474.
 LDataN:  DoStor=T MaxTD1= 6 Len=  172
 NBasis=   203 RedAO= T EigKep=  1.49D-04  NBF=   203
 NBsUse=   203 1.00D-06 EigRej= -1.00D+00 NBFU=   203
 The nuclear repulsion energy is now       165.4723604239 hartrees.
 Initial guess from the checkpoint file:  "checkpoint.chk"
 B after Tr=    -0.000000   -0.000000    0.000000
         Rot=    1.000000   -0.000000   -0.000000    0.000000 Ang=   0.00 deg.
 Requested convergence on RMS density matrix=1.00D-08 within 128 cycles.
 Requested convergence on MAX density matrix=1.00D-06.
 Requested convergence on             energy=1.00D-06.
 No special actions if energy rises.
 SCF Done:  E(RB3LYP) =  -195.370217772     A.U. after    9 cycles
            NFock=  9  Conv=0.74D-08     -V/T= 2.0057
   1 Symmetry operations used in ECPInt.
 ECPInt:  NShTT=    3828 NPrTT=   11160 LenC2=    3810 LenP2D=    9474.
 LDataN:  DoStor=T MaxTD1= 7 Len=  274
 Calling FoFJK, ICntrl=      2127 FMM=F ISym2X=0 I1Cent= 0 IOpClX= 0 NMat=1 NMatS=1 NMatT=0.
 -------------------------------------------------------------------
 Center     Atomic                   Forces (Hartrees/Bohr)
 Number     Number              X              Y              Z
 -------------------------------------------------------------------
      1        6           0.000047764   -0.000391877   -0.000091649
      2        6           0.000030798    0.000274019    0.000436927
      3        6          -0.000046986   -0.000181292   -0.000064842
      4        1          -0.000097442    0.000122252   -0.000006654
      5        1          -0.000065740    0.000064136    0.000180093
      6        1           0.000142905    0.000228593    0.000028754
      7        1          -0.000095461   -0.000017856    0.000061529
      8        6          -0.000150070   -0.000712604   -0.000644142
      9        1          -0.000107918    0.000133513   -0.000100710
     10        6           0.000194192    0.000601193   -0.000165088
     11        1           0.000111818   -0.000137330    0.000122969
     12        1           0.000202193   -0.000115555    0.000005833
     13        1          -0.000166052    0.000132809    0.000236978
 -------------------------------------------------------------------
 Cartesian Forces:  Max     0.000712604 RMS     0.000239440
 -----------------------------------------------------------------------------------------------
                       Internal Coordinate Forces (Hartree/Bohr or radian)
  Cent   Atom   N1       Length/X         N2         Alpha/Y        N3         Beta/Z          J
 -----------------------------------------------------------------------------------------------
      1  C 
      2  C        1  -0.000107(     1)
      3  C        1   0.000013(     2)      2  -0.000167(    13)
      4  H        1   0.000133(     3)      2  -0.000123(    14)      3  -0.000101(    24)     0
      5  H        1  -0.000120(     4)      2  -0.000287(    15)      3   0.000149(    25)     0
      6  H        3   0.000269(     5)      1   0.000029(    16)      2  -0.000133(    26)     0
      7  H        3  -0.000036(     6)      1  -0.000079(    17)      6  -0.000184(    27)     0
      8  C        2  -0.000472(     7)      1  -0.000519(    18)      3  -0.000012(    28)     0
      9  H        2  -0.000129(     8)      1  -0.000107(    19)      8  -0.000266(    29)     0
     10  C        8   0.000648(     9)      2   0.000165(    20)      1   0.000432(    30)     0
     11  H        8  -0.000063(    10)      2  -0.000134(    21)     10   0.000366(    31)     0
     12  H       10   0.000181(    11)      8  -0.000210(    22)      2   0.000002(    32)     0
     13  H       10   0.000289(    12)      8  -0.000167(    23)     12   0.000185(    33)     0
 -----------------------------------------------------------------------------------------------
 Internal  Forces:  Max     0.000647904 RMS     0.000242236

 GradGradGradGradGradGradGradGradGradGradGradGradGradGradGradGradGradGrad
 Berny optimization.
 Search for a local minimum.
 Step number   1 out of a maximum of   43
 All quantities printed in internal units (Hartrees-Bohrs-Radians)
 Second derivative matrix not updated -- first step.
 ITU=  0
     Eigenvalues ---    0.01983   0.03386   0.06353   0.06685   0.08156
     Eigenvalues ---    0.10948   0.13722   0.16491   0.17093   0.18273
     Eigenvalues ---    0.20067   0.22430   0.23458   0.32558   0.34487
     Eigenvalues ---    0.35097   0.35457   0.35558   0.35651   0.35743
     Eigenvalues ---    0.35770   0.35793   0.35813   0.35856   0.41427
     Eigenvalues ---    0.44284   0.46118   0.49814   0.50748   0.52799
     Eigenvalues ---    0.52918   0.59582   2.59570
 RFO step:  Lambda=-1.11095489D-05 EMin= 1.98277044D-02
 Linear search not attempted -- first point.
 Variable       Old X    -DE/DX   Delta X   Delta X   Delta X     New X
                                 (Linear)    (Quad)   (Total)
    R2        2.86635  -0.00011   0.00000  -0.00025  -0.00025   2.86611
    R3        2.83998   0.00001   0.00000  -0.00009  -0.00009   2.83989
    R4        2.04485   0.00013   0.00000   0.00037   0.00037   2.04522
    R5        2.04375  -0.00012   0.00000  -0.00033  -0.00033   2.04342
    R6        2.04423   0.00027   0.00000   0.00075   0.00075   2.04498
    R7        2.04380  -0.00004   0.00000  -0.00010  -0.00010   2.04370
    R8        2.79816  -0.00047   0.00000  -0.00137  -0.00137   2.79679
    R9        2.04939  -0.00013   0.00000  -0.00037  -0.00037   2.04903
   R10        2.51273   0.00065   0.00000   0.00107   0.00107   2.51380
   R11        2.05517  -0.00006   0.00000  -0.00017  -0.00017   2.05500
   R12        2.04777   0.00018   0.00000   0.00050   0.00050   2.04826
   R13        2.04630   0.00029   0.00000   0.00082   0.00082   2.04712
    A3        1.04071  -0.00017   0.00000   0.00008   0.00008   1.04079
    A4        2.04010  -0.00012   0.00000  -0.00034  -0.00034   2.03976
    A5        2.06010  -0.00029   0.00000  -0.00123  -0.00123   2.05887
    A6        2.05394   0.00003   0.00000   0.00014   0.00014   2.05408
    A7        2.06346  -0.00008   0.00000   0.00013   0.00013   2.06359
    A8        2.09605  -0.00052   0.00000  -0.00207  -0.00207   2.09398
    A9        1.99288  -0.00011   0.00000   0.00076   0.00076   1.99364
   A10        2.21727   0.00017   0.00000   0.00126   0.00126   2.21852
   A11        1.99960  -0.00013   0.00000  -0.00107  -0.00107   1.99852
   A12        2.13061  -0.00021   0.00000  -0.00016  -0.00016   2.13045
   A13        2.11284  -0.00017   0.00000  -0.00069  -0.00069   2.11215
    D4       -1.88176  -0.00010   0.00000  -0.00077  -0.00077  -1.88253
    D5        1.89674   0.00015   0.00000   0.00119   0.00119   1.89794
    D6       -1.89644  -0.00013   0.00000  -0.00006  -0.00006  -1.89650
    D7       -2.50997  -0.00018   0.00000  -0.00111  -0.00111  -2.51108
    D8        1.97040  -0.00001   0.00000   0.00199   0.00199   1.97239
    D9        2.44697  -0.00027   0.00000  -0.00164  -0.00164   2.44533
   D10       -1.46321   0.00043   0.00000   0.01373   0.01373  -1.44948
   D11        3.13431   0.00037   0.00000   0.00020   0.00020   3.13451
   D12       -0.03512   0.00000   0.00000   0.00127   0.00127  -0.03385
   D13       -3.12577   0.00018   0.00000   0.00168   0.00168  -3.12409
         Item               Value     Threshold  Converged?
 Maximum Force            0.000648     0.000450     NO 
 RMS     Force            0.000242     0.000300     YES
 Maximum Displacement     0.013730     0.001800     NO 
 RMS     Displacement     0.002568     0.001200     NO 
 Predicted change in Energy=-5.554774D-06
 GradGradGradGradGradGradGradGradGradGradGradGradGradGradGradGradGradGrad

 ---------------------------------------------------------------------------------------------------
                            Z-MATRIX (ANGSTROMS AND DEGREES)
   CD    Cent   Atom    N1       Length/X        N2       Alpha/Y        N3        Beta/Z          J
 ---------------------------------------------------------------------------------------------------
      1      1  C 
      2      2  C        1   1.516679(     1)
      3      3  C        1   1.502804(     2)      2   59.633(    13)
      4      4  H        1   1.082284(     3)      2  116.870(    14)      3 -107.861(    24)      0
      5      5  H        1   1.081329(     4)      2  117.965(    15)      3  108.744(    25)      0
      6      6  H        3   1.082158(     5)      1  117.690(    16)      2 -108.661(    26)      0
      7      7  H        3   1.081479(     6)      1  118.235(    17)      6 -143.874(    27)      0
      8      8  C        2   1.479999(     7)      1  119.976(    18)      3  113.009(    28)      0
      9      9  H        2   1.084300(     8)      1  114.227(    19)      8  140.107(    29)      0
     10     10  C        8   1.330247(     9)      2  127.112(    20)      1  -83.049(    30)      0
     11     11  H        8   1.087459(    10)      2  114.507(    21)     10  179.594(    31)      0
     12     12  H       10   1.083895(    11)      8  122.066(    22)      2   -1.939(    32)      0
     13     13  H       10   1.083289(    12)      8  121.017(    23)     12 -178.997(    33)      0
 ---------------------------------------------------------------------------------------------------
                         Z-Matrix orientation:                         
 ---------------------------------------------------------------------
 Center     Atomic      Atomic             Coordinates (Angstroms)
 Number     Number       Type             X           Y           Z
 ---------------------------------------------------------------------
      1          6           0        0.000000    0.000000    0.000000
      2          6           0        0.000000    0.000000    1.516679
      3          6           0        1.296626    0.000000    0.759724
      4          1           0       -0.296109    0.918906   -0.489151
      5          1           0       -0.306900   -0.904418   -0.507063
      6          1           0        1.885503    0.907846    0.749402
      7          1           0        1.882622   -0.908881    0.771658
      8          6           0       -0.501121    1.180026    2.256147
      9          1           0       -0.287171   -0.946181    1.961627
     10          6           0        0.171279    2.290626    2.545975
     11          1           0       -1.536661    1.103557    2.579222
     12          1           0        1.212505    2.420375    2.274237
     13          1           0       -0.300343    3.104605    3.083121
 ---------------------------------------------------------------------
                    Distance matrix (angstroms):
                    1          2          3          4          5
     1  C    0.000000
     2  C    1.516679   0.000000
     3  C    1.502804   1.501406   0.000000
     4  H    1.082284   2.226078   2.222809   0.000000
     5  H    1.081329   2.237787   2.234730   1.823444   0.000000
     6  H    2.222815   2.228905   1.082158   2.508697   3.109603
     7  H    2.228404   2.219321   1.081479   3.110838   2.535578
     8  C    2.594954   1.479999   2.619855   2.765298   3.466693
     9  H    2.196750   1.084300   2.201873   3.079764   2.469123
    10  C    3.429037   2.517093   3.115135   3.363340   4.444997
    11  H    3.198680   2.169830   3.543435   3.314812   3.881937
    12  H    3.535610   2.811099   2.856403   3.488070   4.593307
    13  H    4.385706   3.490347   4.193693   4.187890   5.381611
                    6          7          8          9         10
     6  H    0.000000
     7  H    1.816865   0.000000
     8  C    2.835549   3.499924   0.000000
     9  H    3.102808   2.474959   2.157145   0.000000
    10  C    2.842238   4.039027   1.330247   3.320928   0.000000
    11  H    3.885582   4.359896   1.087459   2.478725   2.080216
    12  H    2.250731   3.713589   2.115493   3.698710   1.083895
    13  H    3.879423   5.120182   2.104330   4.203189   1.083289
                   11         12         13
    11  H    0.000000
    12  H    3.063485   0.000000
    13  H    2.405533   1.846937   0.000000
 Symmetry turned off by external request.
 Stoichiometry    C5H8
 Framework group  C1[X(C5H8)]
 Deg. of freedom    33
 Full point group                 C1      NOp   1
 Rotational constants (GHZ):          11.5897527           3.6697838           3.3344558
 Standard basis: def2TZVP (5D, 7F)
 The following finite field(s) will be applied:
 An electric field of              0.0022  0.0072 -0.0004
   203 basis functions,   319 primitive gaussians,   228 cartesian basis functions
    19 alpha electrons       19 beta electrons
       nuclear repulsion energy       165.1428644516 Hartrees.
 NAtoms=   13 NActive=   13 NUniq=   13 SFac= 1.00D+00 NAtFMM=   60 NAOKFM=F Big=F
 Integral buffers will be    131072 words long.
 Raffenetti 2 integral format.
 Two-electron integral symmetry is turned off.
 One-electron integrals computed using PRISM.
   1 Symmetry operations used in ECPInt.
 ECPInt:  NShTT=    3828 NPrTT=   11160 LenC2=    3810 LenP2D=    9473.
 LDataN:  DoStor=T MaxTD1= 6 Len=  172
 NBasis=   203 RedAO= T EigKep=  1.49D-04  NBF=   203
 NBsUse=   203 1.00D-06 EigRej= -1.00D+00 NBFU=   203
 The nuclear repulsion energy is now       165.4935209229 hartrees.
 Initial guess from the checkpoint file:  "checkpoint.chk"
 B after Tr=    -0.002149   -0.009971   -0.001280
         Rot=    0.999995    0.002229   -0.000401   -0.002016 Ang=   0.35 deg.
 Requested convergence on RMS density matrix=1.00D-08 within 128 cycles.
 Requested convergence on MAX density matrix=1.00D-06.
 Requested convergence on             energy=1.00D-06.
 No special actions if energy rises.
 SCF Done:  E(RB3LYP) =  -195.370225044     A.U. after    8 cycles
            NFock=  8  Conv=0.73D-08     -V/T= 2.0057
   1 Symmetry operations used in ECPInt.
 ECPInt:  NShTT=    3828 NPrTT=   11160 LenC2=    3810 LenP2D=    9473.
 LDataN:  DoStor=T MaxTD1= 7 Len=  274
 Calling FoFJK, ICntrl=      2127 FMM=F ISym2X=0 I1Cent= 0 IOpClX= 0 NMat=1 NMatS=1 NMatT=0.
 -------------------------------------------------------------------
 Center     Atomic                   Forces (Hartrees/Bohr)
 Number     Number              X              Y              Z
 -------------------------------------------------------------------
      1        6           0.000049971   -0.000479454   -0.000239322
      2        6           0.000038157    0.000377331    0.000304085
      3        6          -0.000036268    0.000137602   -0.000115577
      4        1          -0.000048139   -0.000007960    0.000084546
      5        1           0.000007023   -0.000022356    0.000006185
      6        1           0.000015431   -0.000011675    0.000025531
      7        1          -0.000059031   -0.000023541    0.000033135
      8        6           0.000134127   -0.000093346   -0.000130592
      9        1          -0.000138586    0.000052534   -0.000103886
     10        6          -0.000073679    0.000251040   -0.000107535
     11        1           0.000079608   -0.000074624    0.000176266
     12        1           0.000042705   -0.000095259    0.000130481
     13        1          -0.000011320   -0.000010292   -0.000063319
 -------------------------------------------------------------------
 Cartesian Forces:  Max     0.000479454 RMS     0.000143894
 -----------------------------------------------------------------------------------------------
                       Internal Coordinate Forces (Hartree/Bohr or radian)
  Cent   Atom   N1       Length/X         N2         Alpha/Y        N3         Beta/Z          J
 -----------------------------------------------------------------------------------------------
      1  C 
      2  C        1   0.000206(     1)
      3  C        1  -0.000098(     2)      2  -0.000042(    13)
      4  H        1  -0.000032(     3)      2  -0.000161(    14)      3  -0.000088(    24)     0
      5  H        1   0.000014(     4)      2  -0.000029(    15)      3  -0.000025(    25)     0
      6  H        3  -0.000002(     5)      1   0.000062(    16)      2  -0.000095(    26)     0
      7  H        3  -0.000012(     6)      1  -0.000066(    17)      6  -0.000113(    27)     0
      8  C        2  -0.000073(     7)      1  -0.000064(    18)      3  -0.000377(    28)     0
      9  H        2  -0.000052(     8)      1  -0.000186(    19)      8  -0.000276(    29)     0
     10  C        8   0.000091(     9)      2   0.000136(    20)      1   0.000274(    30)     0
     11  H        8  -0.000018(    10)      2   0.000021(    21)     10   0.000386(    31)     0
     12  H       10  -0.000003(    11)      8  -0.000067(    22)      2  -0.000379(    32)     0
     13  H       10  -0.000034(    12)      8  -0.000025(    23)     12  -0.000095(    33)     0
 -----------------------------------------------------------------------------------------------
 Internal  Forces:  Max     0.000385679 RMS     0.000155320

 GradGradGradGradGradGradGradGradGradGradGradGradGradGradGradGradGradGrad
 Berny optimization.
 Search for a local minimum.
 Step number   2 out of a maximum of   43
 All quantities printed in internal units (Hartrees-Bohrs-Radians)
 Update second derivatives using D2CorN and points    1    2
 DE= -7.27D-06 DEPred=-5.55D-06 R= 1.31D+00
 TightC=F SS=  1.41D+00  RLast= 1.48D-02 DXNew= 1.6818D-01 4.4259D-02
 Trust test= 1.31D+00 RLast= 1.48D-02 DXMaxT set to 1.00D-01
 ITU=  1  0
     Eigenvalues ---    0.00969   0.03414   0.06319   0.06658   0.07971
     Eigenvalues ---    0.10993   0.13704   0.16414   0.17105   0.18251
     Eigenvalues ---    0.19923   0.22437   0.23516   0.32562   0.34443
     Eigenvalues ---    0.35095   0.35448   0.35558   0.35660   0.35745
     Eigenvalues ---    0.35750   0.35799   0.35814   0.35861   0.41337
     Eigenvalues ---    0.44303   0.46100   0.49801   0.50728   0.52807
     Eigenvalues ---    0.52908   0.59540   2.59570
 RFO step:  Lambda=-9.00944581D-06 EMin= 9.69161033D-03
 Quartic linear search produced a step of  0.45365.
 Variable       Old X    -DE/DX   Delta X   Delta X   Delta X     New X
                                 (Linear)    (Quad)   (Total)
    R2        2.86611   0.00021  -0.00011   0.00130   0.00119   2.86730
    R3        2.83989  -0.00010  -0.00004  -0.00081  -0.00085   2.83904
    R4        2.04522  -0.00003   0.00017  -0.00032  -0.00015   2.04507
    R5        2.04342   0.00001  -0.00015   0.00021   0.00006   2.04347
    R6        2.04498  -0.00000   0.00034  -0.00031   0.00003   2.04501
    R7        2.04370  -0.00001  -0.00005  -0.00002  -0.00007   2.04363
    R8        2.79679  -0.00007  -0.00062   0.00013  -0.00049   2.79630
    R9        2.04903  -0.00005  -0.00017  -0.00014  -0.00031   2.04872
   R10        2.51380   0.00009   0.00049  -0.00017   0.00031   2.51412
   R11        2.05500  -0.00002  -0.00008  -0.00003  -0.00011   2.05489
   R12        2.04826  -0.00000   0.00022  -0.00022   0.00000   2.04827
   R13        2.04712  -0.00003   0.00037  -0.00052  -0.00015   2.04697
    A3        1.04079  -0.00004   0.00004   0.00003   0.00007   1.04086
    A4        2.03976  -0.00016  -0.00015  -0.00135  -0.00150   2.03826
    A5        2.05887  -0.00003  -0.00056   0.00059   0.00003   2.05891
    A6        2.05408   0.00006   0.00006   0.00071   0.00077   2.05485
    A7        2.06359  -0.00007   0.00006  -0.00046  -0.00040   2.06319
    A8        2.09398  -0.00006  -0.00094   0.00037  -0.00056   2.09342
    A9        1.99364  -0.00019   0.00035  -0.00046  -0.00012   1.99352
   A10        2.21852   0.00014   0.00057   0.00019   0.00076   2.21928
   A11        1.99852   0.00002  -0.00049   0.00017  -0.00032   1.99820
   A12        2.13045  -0.00007  -0.00007  -0.00047  -0.00054   2.12991
   A13        2.11215  -0.00003  -0.00031   0.00041   0.00010   2.11225
    D4       -1.88253  -0.00009  -0.00035  -0.00140  -0.00175  -1.88428
    D5        1.89794  -0.00002   0.00054  -0.00068  -0.00014   1.89780
    D6       -1.89650  -0.00010  -0.00003   0.00022   0.00019  -1.89630
    D7       -2.51108  -0.00011  -0.00050  -0.00064  -0.00114  -2.51223
    D8        1.97239  -0.00038   0.00090  -0.00279  -0.00188   1.97050
    D9        2.44533  -0.00028  -0.00074   0.00100   0.00026   2.44559
   D10       -1.44948   0.00027   0.00623   0.01742   0.02364  -1.42584
   D11        3.13451   0.00039   0.00009  -0.00292  -0.00283   3.13168
   D12       -0.03385  -0.00038   0.00058  -0.00704  -0.00646  -0.04031
   D13       -3.12409  -0.00009   0.00076   0.00057   0.00134  -3.12276
         Item               Value     Threshold  Converged?
 Maximum Force            0.000386     0.000450     YES
 RMS     Force            0.000155     0.000300     YES
 Maximum Displacement     0.023645     0.001800     NO 
 RMS     Displacement     0.004354     0.001200     NO 
 Predicted change in Energy=-4.246140D-06
 GradGradGradGradGradGradGradGradGradGradGradGradGradGradGradGradGradGrad

 ---------------------------------------------------------------------------------------------------
                            Z-MATRIX (ANGSTROMS AND DEGREES)
   CD    Cent   Atom    N1       Length/X        N2       Alpha/Y        N3        Beta/Z          J
 ---------------------------------------------------------------------------------------------------
      1      1  C 
      2      2  C        1   1.517308(     1)
      3      3  C        1   1.502354(     2)      2   59.637(    13)
      4      4  H        1   1.082202(     3)      2  116.783(    14)      3 -107.961(    24)      0
      5      5  H        1   1.081360(     4)      2  117.967(    15)      3  108.736(    25)      0
      6      6  H        3   1.082174(     5)      1  117.734(    16)      2 -108.650(    26)      0
      7      7  H        3   1.081443(     6)      1  118.212(    17)      6 -143.940(    27)      0
      8      8  C        2   1.479740(     7)      1  119.944(    18)      3  112.902(    28)      0
      9      9  H        2   1.084138(     8)      1  114.220(    19)      8  140.122(    29)      0
     10     10  C        8   1.330412(     9)      2  127.156(    20)      1  -81.695(    30)      0
     11     11  H        8   1.087401(    10)      2  114.489(    21)     10  179.432(    31)      0
     12     12  H       10   1.083896(    11)      8  122.035(    22)      2   -2.310(    32)      0
     13     13  H       10   1.083211(    12)      8  121.023(    23)     12 -178.921(    33)      0
 ---------------------------------------------------------------------------------------------------
                         Z-Matrix orientation:                         
 ---------------------------------------------------------------------
 Center     Atomic      Atomic             Coordinates (Angstroms)
 Number     Number       Type             X           Y           Z
 ---------------------------------------------------------------------
      1          6           0        0.000000    0.000000    0.000000
      2          6           0        0.000000    0.000000    1.517308
      3          6           0        1.296291    0.000000    0.759407
      4          1           0       -0.297918    0.919017   -0.487661
      5          1           0       -0.306774   -0.904471   -0.507111
      6          1           0        1.885657    0.907553    0.749675
      7          1           0        1.881535   -0.909315    0.771800
      8          6           0       -0.498972    1.181146    2.255924
      9          1           0       -0.288680   -0.945623    1.962073
     10          6           0        0.166832    2.301271    2.524294
     11          1           0       -1.528363    1.098086    2.596357
     12          1           0        1.203232    2.436846    2.237371
     13          1           0       -0.304881    3.116582    3.059178
 ---------------------------------------------------------------------
                    Distance matrix (angstroms):
                    1          2          3          4          5
     1  C    0.000000
     2  C    1.517308   0.000000
     3  C    1.502354   1.501593   0.000000
     4  H    1.082202   2.225590   2.222898   0.000000
     5  H    1.081360   2.238403   2.234267   1.823613   0.000000
     6  H    2.222919   2.229039   1.082174   2.509808   3.109613
     7  H    2.227713   2.218741   1.081443   3.111119   2.534627
     8  C    2.594855   1.479740   2.618709   2.763403   3.467146
     9  H    2.197105   1.084138   2.202893   3.078663   2.469593
    10  C    3.419904   2.517479   3.112290   3.346415   4.437398
    11  H    3.206674   2.169340   3.543846   3.325241   3.890248
    12  H    3.520201   2.811490   2.851536   3.461656   4.580033
    13  H    4.377740   3.490473   4.191155   4.172459   5.374690
                    6          7          8          9         10
     6  H    0.000000
     7  H    1.817008   0.000000
     8  C    2.833742   3.498495   0.000000
     9  H    3.103532   2.475460   2.157247   0.000000
    10  C    2.836562   4.039716   1.330412   3.326545   0.000000
    11  H    3.886139   4.357301   1.087401   2.473030   2.080032
    12  H    2.240018   3.715480   2.115331   3.707113   1.083896
    13  H    3.874541   5.120583   2.104472   4.207780   1.083211
                   11         12         13
    11  H    0.000000
    12  H    3.063130   0.000000
    13  H    2.405294   1.847109   0.000000
 Symmetry turned off by external request.
 Stoichiometry    C5H8
 Framework group  C1[X(C5H8)]
 Deg. of freedom    33
 Full point group                 C1      NOp   1
 Rotational constants (GHZ):          11.5590141           3.6745126           3.3441157
 Standard basis: def2TZVP (5D, 7F)
 The following finite field(s) will be applied:
 An electric field of              0.0022  0.0072 -0.0004
   203 basis functions,   319 primitive gaussians,   228 cartesian basis functions
    19 alpha electrons       19 beta electrons
       nuclear repulsion energy       165.1799219817 Hartrees.
 NAtoms=   13 NActive=   13 NUniq=   13 SFac= 1.00D+00 NAtFMM=   60 NAOKFM=F Big=F
 Integral buffers will be    131072 words long.
 Raffenetti 2 integral format.
 Two-electron integral symmetry is turned off.
 One-electron integrals computed using PRISM.
   1 Symmetry operations used in ECPInt.
 ECPInt:  NShTT=    3828 NPrTT=   11160 LenC2=    3810 LenP2D=    9475.
 LDataN:  DoStor=T MaxTD1= 6 Len=  172
 NBasis=   203 RedAO= T EigKep=  1.49D-04  NBF=   203
 NBsUse=   203 1.00D-06 EigRej= -1.00D+00 NBFU=   203
 The nuclear repulsion energy is now       165.5318739766 hartrees.
 Initial guess from the checkpoint file:  "checkpoint.chk"
 B after Tr=    -0.004005   -0.011823    0.000243
         Rot=    0.999994    0.002901   -0.001299   -0.001538 Ang=   0.40 deg.
 ExpMin= 9.52D-02 ExpMax= 1.36D+04 ExpMxC= 4.63D+02 IAcc=2 IRadAn=         4 AccDes= 0.00D+00
 Harris functional with IExCor=  402 and IRadAn=       4 diagonalized for initial guess.
 HarFok:  IExCor=  402 AccDes= 0.00D+00 IRadAn=         4 IDoV= 1 UseB2=F ITyADJ=14
 ICtDFT=  3500011 ScaDFX=  1.000000  1.000000  1.000000  1.000000
 FoFCou: FMM=F IPFlag=           0 FMFlag=      100000 FMFlg1=           0
         NFxFlg=           0 DoJE=T BraDBF=F KetDBF=T FulRan=T
         wScrn=  0.000000 ICntrl=       500 IOpCl=  0 I1Cent=   200000004 NGrid=           0
         NMat0=    1 NMatS0=      1 NMatT0=    0 NMatD0=    1 NMtDS0=    0 NMtDT0=    0
 Symmetry not used in FoFCou.
 Requested convergence on RMS density matrix=1.00D-08 within 128 cycles.
 Requested convergence on MAX density matrix=1.00D-06.
 Requested convergence on             energy=1.00D-06.
 No special actions if energy rises.
 Integral accuracy reduced to 1.0D-05 until final iterations.
 Initial convergence to 1.0D-05 achieved.  Increase integral accuracy.
 SCF Done:  E(RB3LYP) =  -195.370230727     A.U. after    9 cycles
            NFock=  9  Conv=0.57D-08     -V/T= 2.0057
   1 Symmetry operations used in ECPInt.
 ECPInt:  NShTT=    3828 NPrTT=   11160 LenC2=    3810 LenP2D=    9475.
 LDataN:  DoStor=T MaxTD1= 7 Len=  274
 Calling FoFJK, ICntrl=      2127 FMM=F ISym2X=0 I1Cent= 0 IOpClX= 0 NMat=1 NMatS=1 NMatT=0.
 -------------------------------------------------------------------
 Center     Atomic                   Forces (Hartrees/Bohr)
 Number     Number              X              Y              Z
 -------------------------------------------------------------------
      1        6          -0.000021967   -0.000414481   -0.000138588
      2        6           0.000139536    0.000424554    0.000285544
      3        6          -0.000062077   -0.000017306   -0.000110077
      4        1           0.000005087    0.000014782    0.000006297
      5        1          -0.000020709   -0.000009468    0.000046813
      6        1           0.000001709   -0.000060838    0.000027858
      7        1           0.000002597   -0.000018978   -0.000009912
      8        6          -0.000073679    0.000056978   -0.000180015
      9        1          -0.000005532    0.000007060   -0.000050391
     10        6           0.000007115    0.000006142   -0.000022055
     11        1           0.000020200   -0.000015196    0.000081998
     12        1          -0.000005169    0.000060393    0.000035361
     13        1           0.000012888   -0.000033643    0.000027169
 -------------------------------------------------------------------
 Cartesian Forces:  Max     0.000424554 RMS     0.000119351
 -----------------------------------------------------------------------------------------------
                       Internal Coordinate Forces (Hartree/Bohr or radian)
  Cent   Atom   N1       Length/X         N2         Alpha/Y        N3         Beta/Z          J
 -----------------------------------------------------------------------------------------------
      1  C 
      2  C        1   0.000178(     1)
      3  C        1  -0.000096(     2)      2   0.000123(    13)
      4  H        1   0.000008(     3)      2  -0.000023(    14)      3   0.000017(    24)     0
      5  H        1  -0.000008(     4)      2  -0.000099(    15)      3   0.000030(    25)     0
      6  H        3  -0.000050(     5)      1   0.000090(    16)      2   0.000011(    26)     0
      7  H        3   0.000017(     6)      1  -0.000025(    17)      6   0.000007(    27)     0
      8  C        2   0.000044(     7)      1  -0.000048(    18)      3   0.000175(    28)     0
      9  H        2  -0.000025(     8)      1  -0.000090(    19)      8  -0.000014(    29)     0
     10  C        8   0.000043(     9)      2   0.000209(    20)      1   0.000104(    30)     0
     11  H        8   0.000008(    10)      2   0.000042(    21)     10   0.000155(    31)     0
     12  H       10  -0.000007(    11)      8   0.000142(    22)      2   0.000060(    32)     0
     13  H       10  -0.000018(    12)      8  -0.000018(    23)     12   0.000071(    33)     0
 -----------------------------------------------------------------------------------------------
 Internal  Forces:  Max     0.000209472 RMS     0.000084430

 GradGradGradGradGradGradGradGradGradGradGradGradGradGradGradGradGradGrad
 Berny optimization.
 Search for a local minimum.
 Step number   3 out of a maximum of   43
 All quantities printed in internal units (Hartrees-Bohrs-Radians)
 Update second derivatives using D2CorN and points    1    2    3
 DE= -5.68D-06 DEPred=-4.25D-06 R= 1.34D+00
 TightC=F SS=  1.41D+00  RLast= 2.50D-02 DXNew= 1.6818D-01 7.5040D-02
 Trust test= 1.34D+00 RLast= 2.50D-02 DXMaxT set to 1.00D-01
 ITU=  1  1  0
     Eigenvalues ---    0.00723   0.03430   0.06303   0.06651   0.07894
     Eigenvalues ---    0.10999   0.13717   0.16395   0.17108   0.18243
     Eigenvalues ---    0.19859   0.22437   0.23487   0.32560   0.34446
     Eigenvalues ---    0.35095   0.35446   0.35558   0.35662   0.35744
     Eigenvalues ---    0.35750   0.35801   0.35814   0.35861   0.41352
     Eigenvalues ---    0.44291   0.46105   0.49800   0.50713   0.52806
     Eigenvalues ---    0.52905   0.59533   2.59571
 RFO step:  Lambda=-2.63027153D-06 EMin= 7.22645681D-03
 Quartic linear search produced a step of  0.24710.
 Variable       Old X    -DE/DX   Delta X   Delta X   Delta X     New X
                                 (Linear)    (Quad)   (Total)
    R2        2.86730   0.00018   0.00029   0.00066   0.00096   2.86825
    R3        2.83904  -0.00010  -0.00021  -0.00050  -0.00071   2.83833
    R4        2.04507   0.00001  -0.00004   0.00002  -0.00001   2.04505
    R5        2.04347  -0.00001   0.00001  -0.00003  -0.00002   2.04346
    R6        2.04501  -0.00005   0.00001  -0.00020  -0.00019   2.04482
    R7        2.04363   0.00002  -0.00002   0.00006   0.00005   2.04368
    R8        2.79630   0.00004  -0.00012   0.00014   0.00002   2.79632
    R9        2.04872  -0.00003  -0.00008  -0.00013  -0.00021   2.04852
   R10        2.51412   0.00004   0.00008   0.00013   0.00020   2.51432
   R11        2.05489   0.00001  -0.00003   0.00003   0.00000   2.05489
   R12        2.04827  -0.00001   0.00000  -0.00004  -0.00004   2.04823
   R13        2.04697  -0.00002  -0.00004  -0.00007  -0.00011   2.04686
    A3        1.04086   0.00012   0.00002   0.00008   0.00010   1.04096
    A4        2.03826  -0.00002  -0.00037  -0.00010  -0.00047   2.03778
    A5        2.05891  -0.00010   0.00001  -0.00057  -0.00056   2.05835
    A6        2.05485   0.00009   0.00019   0.00053   0.00072   2.05557
    A7        2.06319  -0.00003  -0.00010  -0.00028  -0.00038   2.06281
    A8        2.09342  -0.00005  -0.00014  -0.00056  -0.00070   2.09271
    A9        1.99352  -0.00009  -0.00003   0.00011   0.00008   1.99360
   A10        2.21928   0.00021   0.00019   0.00164   0.00183   2.22111
   A11        1.99820   0.00004  -0.00008  -0.00065  -0.00073   1.99747
   A12        2.12991   0.00014  -0.00013   0.00144   0.00131   2.13122
   A13        2.11225  -0.00002   0.00002  -0.00110  -0.00108   2.11117
    D4       -1.88428   0.00002  -0.00043  -0.00016  -0.00059  -1.88487
    D5        1.89780   0.00003  -0.00004   0.00042   0.00038   1.89818
    D6       -1.89630   0.00001   0.00005   0.00013   0.00017  -1.89613
    D7       -2.51223   0.00001  -0.00028  -0.00013  -0.00041  -2.51264
    D8        1.97050   0.00017  -0.00047   0.00196   0.00149   1.97199
    D9        2.44559  -0.00001   0.00006  -0.00089  -0.00083   2.44476
   D10       -1.42584   0.00010   0.00584   0.00875   0.01459  -1.41125
   D11        3.13168   0.00016  -0.00070   0.00098   0.00028   3.13195
   D12       -0.04031   0.00006  -0.00160   0.00217   0.00058  -0.03974
   D13       -3.12276   0.00007   0.00033   0.00049   0.00082  -3.12193
         Item               Value     Threshold  Converged?
 Maximum Force            0.000209     0.000450     YES
 RMS     Force            0.000084     0.000300     YES
 Maximum Displacement     0.014591     0.001800     NO 
 RMS     Displacement     0.002626     0.001200     NO 
 Predicted change in Energy=-1.378857D-06
 GradGradGradGradGradGradGradGradGradGradGradGradGradGradGradGradGradGrad

 ---------------------------------------------------------------------------------------------------
                            Z-MATRIX (ANGSTROMS AND DEGREES)
   CD    Cent   Atom    N1       Length/X        N2       Alpha/Y        N3        Beta/Z          J
 ---------------------------------------------------------------------------------------------------
      1      1  C 
      2      2  C        1   1.517813(     1)
      3      3  C        1   1.501977(     2)      2   59.642(    13)
      4      4  H        1   1.082195(     3)      2  116.756(    14)      3 -107.995(    24)      0
      5      5  H        1   1.081352(     4)      2  117.935(    15)      3  108.758(    25)      0
      6      6  H        3   1.082073(     5)      1  117.776(    16)      2 -108.640(    26)      0
      7      7  H        3   1.081468(     6)      1  118.190(    17)      6 -143.963(    27)      0
      8      8  C        2   1.479750(     7)      1  119.904(    18)      3  112.987(    28)      0
      9      9  H        2   1.084029(     8)      1  114.225(    19)      8  140.075(    29)      0
     10     10  C        8   1.330520(     9)      2  127.260(    20)      1  -80.859(    30)      0
     11     11  H        8   1.087403(    10)      2  114.447(    21)     10  179.448(    31)      0
     12     12  H       10   1.083876(    11)      8  122.110(    22)      2   -2.277(    32)      0
     13     13  H       10   1.083153(    12)      8  120.961(    23)     12 -178.874(    33)      0
 ---------------------------------------------------------------------------------------------------
                         Z-Matrix orientation:                         
 ---------------------------------------------------------------------
 Center     Atomic      Atomic             Coordinates (Angstroms)
 Number     Number       Type             X           Y           Z
 ---------------------------------------------------------------------
      1          6           0        0.000000    0.000000    0.000000
      2          6           0        0.000000    0.000000    1.517813
      3          6           0        1.296039    0.000000    0.759091
      4          1           0       -0.298529    0.919053   -0.487203
      5          1           0       -0.307207   -0.904615   -0.506574
      6          1           0        1.885809    0.907176    0.749890
      7          1           0        1.880910   -0.909587    0.771379
      8          6           0       -0.500937    1.180885    2.255534
      9          1           0       -0.288016   -0.945686    1.962610
     10          6           0        0.156093    2.309239    2.511294
     11          1           0       -1.525585    1.089917    2.608048
     12          1           0        1.187726    2.455543    2.212769
     13          1           0       -0.318871    3.121151    3.048349
 ---------------------------------------------------------------------
                    Distance matrix (angstroms):
                    1          2          3          4          5
     1  C    0.000000
     2  C    1.517813   0.000000
     3  C    1.501977   1.501791   0.000000
     4  H    1.082195   2.225729   2.222736   0.000000
     5  H    1.081352   2.238492   2.233973   1.823792   0.000000
     6  H    2.222967   2.229114   1.082073   2.510354   3.109761
     7  H    2.227150   2.218634   1.081468   3.110934   2.533979
     8  C    2.594776   1.479750   2.619724   2.762631   3.466422
     9  H    2.197525   1.084029   2.202728   3.078790   2.469601
    10  C    3.415193   2.518720   3.114848   3.336207   4.432948
    11  H    3.212046   2.168857   3.545155   3.333982   3.894030
    12  H    3.512368   2.814844   2.855627   3.443777   4.573873
    13  H    4.374437   3.490817   4.194070   4.165306   5.370699
                    6          7          8          9         10
     6  H    0.000000
     7  H    1.816897   0.000000
     8  C    2.835214   3.499426   0.000000
     9  H    3.103112   2.474788   2.157184   0.000000
    10  C    2.839056   4.045137   1.330520   3.330588   0.000000
    11  H    3.888927   4.356096   1.087403   2.468166   2.079458
    12  H    2.241601   3.725884   2.116167   3.716012   1.083876
    13  H    3.878816   5.125474   2.103886   4.209388   1.083153
                   11         12         13
    11  H    0.000000
    12  H    3.063206   0.000000
    13  H    2.403318   1.846906   0.000000
 Symmetry turned off by external request.
 Stoichiometry    C5H8
 Framework group  C1[X(C5H8)]
 Deg. of freedom    33
 Full point group                 C1      NOp   1
 Rotational constants (GHZ):          11.5458112           3.6723690           3.3473023
 Standard basis: def2TZVP (5D, 7F)
 The following finite field(s) will be applied:
 An electric field of              0.0022  0.0072 -0.0004
   203 basis functions,   319 primitive gaussians,   228 cartesian basis functions
    19 alpha electrons       19 beta electrons
       nuclear repulsion energy       165.1712950570 Hartrees.
 NAtoms=   13 NActive=   13 NUniq=   13 SFac= 1.00D+00 NAtFMM=   60 NAOKFM=F Big=F
 Integral buffers will be    131072 words long.
 Raffenetti 2 integral format.
 Two-electron integral symmetry is turned off.
 One-electron integrals computed using PRISM.
   1 Symmetry operations used in ECPInt.
 ECPInt:  NShTT=    3828 NPrTT=   11160 LenC2=    3810 LenP2D=    9475.
 LDataN:  DoStor=T MaxTD1= 6 Len=  172
 NBasis=   203 RedAO= T EigKep=  1.48D-04  NBF=   203
 NBsUse=   203 1.00D-06 EigRej= -1.00D+00 NBFU=   203
 The nuclear repulsion energy is now       165.5237144059 hartrees.
 Initial guess from the checkpoint file:  "checkpoint.chk"
 B after Tr=    -0.002832   -0.008351    0.000346
         Rot=    0.999996    0.001855   -0.000590   -0.002066 Ang=   0.33 deg.
 Requested convergence on RMS density matrix=1.00D-08 within 128 cycles.
 Requested convergence on MAX density matrix=1.00D-06.
 Requested convergence on             energy=1.00D-06.
 No special actions if energy rises.
 SCF Done:  E(RB3LYP) =  -195.370231731     A.U. after    8 cycles
            NFock=  8  Conv=0.67D-08     -V/T= 2.0057
   1 Symmetry operations used in ECPInt.
 ECPInt:  NShTT=    3828 NPrTT=   11160 LenC2=    3810 LenP2D=    9475.
 LDataN:  DoStor=T MaxTD1= 7 Len=  274
 Calling FoFJK, ICntrl=      2127 FMM=F ISym2X=0 I1Cent= 0 IOpClX= 0 NMat=1 NMatS=1 NMatT=0.
 -------------------------------------------------------------------
 Center     Atomic                   Forces (Hartrees/Bohr)
 Number     Number              X              Y              Z
 -------------------------------------------------------------------
      1        6          -0.000077043   -0.000477683   -0.000070719
      2        6           0.000099736    0.000543448    0.000115963
      3        6          -0.000089569   -0.000005987   -0.000047411
      4        1          -0.000014352   -0.000001316    0.000023493
      5        1           0.000005846   -0.000002798    0.000000021
      6        1           0.000034993    0.000022018    0.000003472
      7        1           0.000004903   -0.000001152    0.000032644
      8        6           0.000002603   -0.000012414   -0.000062248
      9        1          -0.000028594    0.000002487   -0.000043659
     10        6          -0.000003775   -0.000088806    0.000022559
     11        1           0.000026769   -0.000025201    0.000043851
     12        1           0.000028408   -0.000000667    0.000014836
     13        1           0.000010075    0.000048071   -0.000032799
 -------------------------------------------------------------------
 Cartesian Forces:  Max     0.000543448 RMS     0.000123489
 -----------------------------------------------------------------------------------------------
                       Internal Coordinate Forces (Hartree/Bohr or radian)
  Cent   Atom   N1       Length/X         N2         Alpha/Y        N3         Beta/Z          J
 -----------------------------------------------------------------------------------------------
      1  C 
      2  C        1   0.000059(     1)
      3  C        1  -0.000049(     2)      2  -0.000084(    13)
      4  H        1  -0.000008(     3)      2  -0.000046(    14)      3  -0.000026(    24)     0
      5  H        1   0.000001(     4)      2  -0.000001(    15)      3  -0.000012(    25)     0
      6  H        3   0.000038(     5)      1   0.000033(    16)      2  -0.000057(    26)     0
      7  H        3   0.000004(     6)      1   0.000044(    17)      6  -0.000045(    27)     0
      8  C        2  -0.000092(     7)      1   0.000070(    18)      3  -0.000260(    28)     0
      9  H        2  -0.000012(     8)      1  -0.000087(    19)      8  -0.000052(    29)     0
     10  C        8  -0.000017(     9)      2  -0.000167(    20)      1  -0.000011(    30)     0
     11  H        8  -0.000009(    10)      2  -0.000008(    21)     10   0.000105(    31)     0
     12  H       10   0.000023(    11)      8   0.000010(    22)      2  -0.000115(    32)     0
     13  H       10   0.000015(    12)      8   0.000075(    23)     12  -0.000077(    33)     0
 -----------------------------------------------------------------------------------------------
 Internal  Forces:  Max     0.000260425 RMS     0.000074283

 GradGradGradGradGradGradGradGradGradGradGradGradGradGradGradGradGradGrad
 Berny optimization.
 Search for a local minimum.
 Step number   4 out of a maximum of   43
 All quantities printed in internal units (Hartrees-Bohrs-Radians)
 Update second derivatives using D2CorN and points    1    2    3    4
 DE= -1.00D-06 DEPred=-1.38D-06 R= 7.28D-01
 TightC=F SS=  1.41D+00  RLast= 1.51D-02 DXNew= 1.6818D-01 4.5259D-02
 Trust test= 7.28D-01 RLast= 1.51D-02 DXMaxT set to 1.00D-01
 ITU=  1  1  1  0
     Eigenvalues ---    0.00698   0.03433   0.06293   0.06649   0.08108
     Eigenvalues ---    0.11010   0.13733   0.16388   0.17107   0.18255
     Eigenvalues ---    0.19841   0.22437   0.23517   0.32559   0.34449
     Eigenvalues ---    0.35095   0.35445   0.35558   0.35663   0.35744
     Eigenvalues ---    0.35752   0.35801   0.35814   0.35862   0.41370
     Eigenvalues ---    0.44280   0.46104   0.49800   0.50723   0.52811
     Eigenvalues ---    0.52903   0.59534   2.59572
 RFO step:  Lambda=-5.50827913D-07 EMin= 6.98184149D-03
 Quartic linear search produced a step of -0.23829.
 Variable       Old X    -DE/DX   Delta X   Delta X   Delta X     New X
                                 (Linear)    (Quad)   (Total)
    R2        2.86825   0.00006  -0.00023   0.00045   0.00022   2.86847
    R3        2.83833  -0.00005   0.00017  -0.00035  -0.00018   2.83815
    R4        2.04505  -0.00001   0.00000  -0.00002  -0.00002   2.04503
    R5        2.04346   0.00000   0.00000  -0.00000  -0.00000   2.04346
    R6        2.04482   0.00004   0.00005   0.00005   0.00010   2.04492
    R7        2.04368   0.00000  -0.00001   0.00002   0.00001   2.04369
    R8        2.79632  -0.00009  -0.00000  -0.00025  -0.00026   2.79606
    R9        2.04852  -0.00001   0.00005  -0.00009  -0.00004   2.04848
   R10        2.51432  -0.00002  -0.00005   0.00003  -0.00002   2.51430
   R11        2.05489  -0.00001  -0.00000  -0.00003  -0.00003   2.05486
   R12        2.04823   0.00002   0.00001   0.00006   0.00007   2.04830
   R13        2.04686   0.00002   0.00003   0.00001   0.00004   2.04690
    A3        1.04096  -0.00008  -0.00002   0.00001  -0.00001   1.04095
    A4        2.03778  -0.00005   0.00011  -0.00031  -0.00020   2.03759
    A5        2.05835  -0.00000   0.00013  -0.00013   0.00000   2.05835
    A6        2.05557   0.00003  -0.00017   0.00034   0.00017   2.05574
    A7        2.06281   0.00004   0.00009  -0.00001   0.00008   2.06289
    A8        2.09271   0.00007   0.00017   0.00039   0.00055   2.09327
    A9        1.99360  -0.00009  -0.00002  -0.00035  -0.00037   1.99323
   A10        2.22111  -0.00017  -0.00044  -0.00040  -0.00084   2.22027
   A11        1.99747  -0.00001   0.00017   0.00023   0.00040   1.99788
   A12        2.13122   0.00001  -0.00031  -0.00008  -0.00039   2.13082
   A13        2.11117   0.00008   0.00026   0.00032   0.00058   2.11175
    D4       -1.88487  -0.00003   0.00014  -0.00030  -0.00016  -1.88503
    D5        1.89818  -0.00001  -0.00009   0.00013   0.00004   1.89822
    D6       -1.89613  -0.00006  -0.00004   0.00003  -0.00001  -1.89614
    D7       -2.51264  -0.00004   0.00010  -0.00034  -0.00025  -2.51288
    D8        1.97199  -0.00026  -0.00036  -0.00132  -0.00168   1.97032
    D9        2.44476  -0.00005   0.00020   0.00069   0.00089   2.44565
   D10       -1.41125  -0.00001  -0.00348   0.00426   0.00078  -1.41047
   D11        3.13195   0.00011  -0.00007   0.00045   0.00039   3.13234
   D12       -0.03974  -0.00011  -0.00014  -0.00052  -0.00066  -0.04040
   D13       -3.12193  -0.00008  -0.00020   0.00004  -0.00015  -3.12209
         Item               Value     Threshold  Converged?
 Maximum Force            0.000260     0.000450     YES
 RMS     Force            0.000074     0.000300     YES
 Maximum Displacement     0.001676     0.001800     YES
 RMS     Displacement     0.000459     0.001200     YES
 Predicted change in Energy=-4.580064D-07
 Optimization completed.
    -- Stationary point found.
                       ----------------------------
                       !   Optimized Parameters   !
                       ! (Angstroms and Degrees)  !
 ----------------------                            ----------------------
 !      Name          Value   Derivative information (Atomic Units)     !
 ------------------------------------------------------------------------
 !       R2          1.5178   -DE/DX =    0.0001                        !
 !       R3          1.502    -DE/DX =    0.0                           !
 !       R4          1.0822   -DE/DX =    0.0                           !
 !       R5          1.0814   -DE/DX =    0.0                           !
 !       R6          1.0821   -DE/DX =    0.0                           !
 !       R7          1.0815   -DE/DX =    0.0                           !
 !       R8          1.4797   -DE/DX =   -0.0001                        !
 !       R9          1.084    -DE/DX =    0.0                           !
 !       R10         1.3305   -DE/DX =    0.0                           !
 !       R11         1.0874   -DE/DX =    0.0                           !
 !       R12         1.0839   -DE/DX =    0.0                           !
 !       R13         1.0832   -DE/DX =    0.0                           !
 !       A3         59.6425   -DE/DX =   -0.0001                        !
 !       A4        116.7564   -DE/DX =    0.0                           !
 !       A5        117.9346   -DE/DX =    0.0                           !
 !       A6        117.7756   -DE/DX =    0.0                           !
 !       A7        118.1904   -DE/DX =    0.0                           !
 !       A8        119.9037   -DE/DX =    0.0001                        !
 !       A9        114.2248   -DE/DX =   -0.0001                        !
 !       A10       127.2602   -DE/DX =   -0.0002                        !
 !       A11       114.4469   -DE/DX =    0.0                           !
 !       A12       122.1096   -DE/DX =    0.0                           !
 !       A13       120.9613   -DE/DX =    0.0001                        !
 !       D4       -107.995    -DE/DX =    0.0                           !
 !       D5        108.7575   -DE/DX =    0.0                           !
 !       D6       -108.6401   -DE/DX =   -0.0001                        !
 !       D7       -143.9634   -DE/DX =    0.0                           !
 !       D8        112.9869   -DE/DX =   -0.0003                        !
 !       D9        140.0746   -DE/DX =   -0.0001                        !
 !       D10       -80.8585   -DE/DX =    0.0                           !
 !       D11       179.4477   -DE/DX =    0.0001                        !
 !       D12        -2.2768   -DE/DX =   -0.0001                        !
 !       D13      -178.8737   -DE/DX =   -0.0001                        !
 ------------------------------------------------------------------------
 GradGradGradGradGradGradGradGradGradGradGradGradGradGradGradGradGradGrad

 ---------------------------------------------------------------------------------------------------
                            Z-MATRIX (ANGSTROMS AND DEGREES)
   CD    Cent   Atom    N1       Length/X        N2       Alpha/Y        N3        Beta/Z          J
 ---------------------------------------------------------------------------------------------------
      1      1  C 
      2      2  C        1   1.517813(     1)
      3      3  C        1   1.501977(     2)      2   59.642(    13)
      4      4  H        1   1.082195(     3)      2  116.756(    14)      3 -107.995(    24)      0
      5      5  H        1   1.081352(     4)      2  117.935(    15)      3  108.758(    25)      0
      6      6  H        3   1.082073(     5)      1  117.776(    16)      2 -108.640(    26)      0
      7      7  H        3   1.081468(     6)      1  118.190(    17)      6 -143.963(    27)      0
      8      8  C        2   1.479750(     7)      1  119.904(    18)      3  112.987(    28)      0
      9      9  H        2   1.084029(     8)      1  114.225(    19)      8  140.075(    29)      0
     10     10  C        8   1.330520(     9)      2  127.260(    20)      1  -80.859(    30)      0
     11     11  H        8   1.087403(    10)      2  114.447(    21)     10  179.448(    31)      0
     12     12  H       10   1.083876(    11)      8  122.110(    22)      2   -2.277(    32)      0
     13     13  H       10   1.083153(    12)      8  120.961(    23)     12 -178.874(    33)      0
 ---------------------------------------------------------------------------------------------------
                         Z-Matrix orientation:                         
 ---------------------------------------------------------------------
 Center     Atomic      Atomic             Coordinates (Angstroms)
 Number     Number       Type             X           Y           Z
 ---------------------------------------------------------------------
      1          6           0        0.000000    0.000000    0.000000
      2          6           0        0.000000    0.000000    1.517813
      3          6           0        1.296039    0.000000    0.759091
      4          1           0       -0.298529    0.919053   -0.487203
      5          1           0       -0.307207   -0.904615   -0.506574
      6          1           0        1.885809    0.907176    0.749890
      7          1           0        1.880910   -0.909587    0.771379
      8          6           0       -0.500937    1.180885    2.255534
      9          1           0       -0.288016   -0.945686    1.962610
     10          6           0        0.156093    2.309239    2.511294
     11          1           0       -1.525585    1.089917    2.608048
     12          1           0        1.187726    2.455543    2.212769
     13          1           0       -0.318871    3.121151    3.048349
 ---------------------------------------------------------------------
                    Distance matrix (angstroms):
                    1          2          3          4          5
     1  C    0.000000
     2  C    1.517813   0.000000
     3  C    1.501977   1.501791   0.000000
     4  H    1.082195   2.225729   2.222736   0.000000
     5  H    1.081352   2.238492   2.233973   1.823792   0.000000
     6  H    2.222967   2.229114   1.082073   2.510354   3.109761
     7  H    2.227150   2.218634   1.081468   3.110934   2.533979
     8  C    2.594776   1.479750   2.619724   2.762631   3.466422
     9  H    2.197525   1.084029   2.202728   3.078790   2.469601
    10  C    3.415193   2.518720   3.114848   3.336207   4.432948
    11  H    3.212046   2.168857   3.545155   3.333982   3.894030
    12  H    3.512368   2.814844   2.855627   3.443777   4.573873
    13  H    4.374437   3.490817   4.194070   4.165306   5.370699
                    6          7          8          9         10
     6  H    0.000000
     7  H    1.816897   0.000000
     8  C    2.835214   3.499426   0.000000
     9  H    3.103112   2.474788   2.157184   0.000000
    10  C    2.839056   4.045137   1.330520   3.330588   0.000000
    11  H    3.888927   4.356096   1.087403   2.468166   2.079458
    12  H    2.241601   3.725884   2.116167   3.716012   1.083876
    13  H    3.878816   5.125474   2.103886   4.209388   1.083153
                   11         12         13
    11  H    0.000000
    12  H    3.063206   0.000000
    13  H    2.403318   1.846906   0.000000
 Symmetry turned off by external request.
 Stoichiometry    C5H8
 Framework group  C1[X(C5H8)]
 Deg. of freedom    33
 Full point group                 C1      NOp   1
 Rotational constants (GHZ):          11.5458112           3.6723690           3.3473023
 1\1\GINC-BHC0021\FOpt\RB3LYP\def2TZVP\C5H8\DHANAWAY\10-Jun-2022\1\\# O
 pt=(Z-matrix, MaxStep=10) B3LYP/Def2TZVP geom=allcheckpoint guess=read
  Field=read NoSymm freq=noraman pop=none\\int_zmat_initalOpt\\0,1\C\C,
 1,R2\C,1,R3,2,A3\H,1,R4,2,A4,3,D4,0\H,1,R5,2,A5,3,D5,0\H,3,R6,1,A6,2,D
 6,0\H,3,R7,1,A7,6,D7,0\C,2,R8,1,A8,3,D8,0\H,2,R9,1,A9,8,D9,0\C,8,R10,2
 ,A10,1,D10,0\H,8,R11,2,A11,10,D11,0\H,10,R12,8,A12,2,D12,0\H,10,R13,8,
 A13,12,D13,0\\R2=1.51781323\R3=1.50197744\R4=1.08219472\R5=1.08135162\
 R6=1.08207301\R7=1.08146844\R8=1.47974962\R9=1.0840292\R10=1.33051985\
 R11=1.08740251\R12=1.08387611\R13=1.08315345\A3=59.64247639\A4=116.756
 42844\A5=117.93463401\A6=117.77555713\A7=118.19041076\A8=119.9037359\A
 9=114.22483918\A10=127.26023557\A11=114.44686561\A12=122.10964382\A13=
 120.9613022\D4=-107.99496701\D5=108.75750823\D6=-108.6401022\D7=-143.9
 6338105\D8=112.9868797\D9=140.07460623\D10=-80.8585271\D11=179.4476873
 1\D12=-2.276798\D13=-178.8736892\\Version=ES64L-G16RevA.03\HF=-195.370
 2317\RMSD=6.701e-09\RMSF=1.235e-04\Dipole=-0.1620347,-0.628359,-0.1424
 805\PG=C01 [X(C5H8)]\\@


 MATERIAL COPIED FROM ONE SCHOLARLY BOOK WITHOUT CREDIT COMPRISES PLAGIARISM.
 MATERIAL COPIED FROM TWO SCHOLARLY BOOKS COMPRISES AN ESSAY.
 MATERIAL COPIED FROM THREE SCHOLARLY BOOKS COMPRISES A DISSERTATION.
 MATERIAL COPIED FROM FOUR SCHOLARLY BOOKS COMPRISES A FIFTH SCHOLARLY BOOK.

                               -- C&EN, 25 FEB 1980
 Job cpu time:       0 days  0 hours 15 minutes 58.5 seconds.
 Elapsed time:       0 days  0 hours  1 minutes 21.0 seconds.
 File lengths (MBytes):  RWF=     27 Int=      0 D2E=      0 Chk=     32 Scr=      1
 Normal termination of Gaussian 16 at Fri Jun 10 03:32:45 2022.
 Link1:  Proceeding to internal job step number  2.
 --------------------------------------------------------------------
 #N Geom=AllCheck Guess=TCheck SCRF=Check GenChk RB3LYP/def2TZVP Freq
 --------------------------------------------------------------------
 1/8=10,10=4,29=7,30=1,38=1,40=1/1,3;
 2/12=2,15=1,40=1/2;
 3/5=44,7=101,11=2,14=-4,25=1,30=1,70=2,71=2,74=-5,116=1,140=1/1,2,3;
 4/5=101/1;
 5/5=2,38=6,98=1/2;
 8/6=4,10=90,11=11/1;
 11/6=1,8=1,9=11,15=111,16=1,31=1/1,2,10;
 10/6=1,31=1/2;
 7/8=1,10=1,25=1,30=1/1,2,3,16;
 1/8=10,10=4,30=1/3;
 99//99;
 Structure from the checkpoint file:  "checkpoint.chk"
 ------------------
 int_zmat_initalOpt
 ------------------
 Charge =  0 Multiplicity = 1
 Z-Matrix found in chk file.
 C
 C,1,R2
 C,1,R3,2,A3
 H,1,R4,2,A4,3,D4,0
 H,1,R5,2,A5,3,D5,0
 H,3,R6,1,A6,2,D6,0
 H,3,R7,1,A7,6,D7,0
 C,2,R8,1,A8,3,D8,0
 H,2,R9,1,A9,8,D9,0
 C,8,R10,2,A10,1,D10,0
 H,8,R11,2,A11,10,D11,0
 H,10,R12,8,A12,2,D12,0
 H,10,R13,8,A13,12,D13,0
      Variables:
 R2=1.51781323
 R3=1.50197744
 R4=1.08219472
 R5=1.08135162
 R6=1.08207301
 R7=1.08146844
 R8=1.47974962
 R9=1.0840292
 R10=1.33051985
 R11=1.08740251
 R12=1.08387611
 R13=1.08315345
 A3=59.64247639
 A4=116.75642844
 A5=117.93463401
 A6=117.77555713
 A7=118.19041076
 A8=119.9037359
 A9=114.22483918
 A10=127.26023557
 A11=114.44686561
 A12=122.10964382
 A13=120.9613022
 D4=-107.99496701
 D5=108.75750823
 D6=-108.6401022
 D7=-143.96338105
 D8=112.9868797
 D9=140.07460623
 D10=-80.8585271
 D11=179.44768731
 D12=-2.276798
 D13=-178.8736892
 Recover connectivity data from disk.

 GradGradGradGradGradGradGradGradGradGradGradGradGradGradGradGradGradGrad
 Berny optimization.
 Initialization pass.
                       ----------------------------
                       !    Initial Parameters    !
                       ! (Angstroms and Degrees)  !
 ----------------------                            ----------------------
 !      Name          Value   Derivative information (Atomic Units)     !
 ------------------------------------------------------------------------
 !       R2          1.5178   calculate D2E/DX2 analytically            !
 !       R3          1.502    calculate D2E/DX2 analytically            !
 !       R4          1.0822   calculate D2E/DX2 analytically            !
 !       R5          1.0814   calculate D2E/DX2 analytically            !
 !       R6          1.0821   calculate D2E/DX2 analytically            !
 !       R7          1.0815   calculate D2E/DX2 analytically            !
 !       R8          1.4797   calculate D2E/DX2 analytically            !
 !       R9          1.084    calculate D2E/DX2 analytically            !
 !       R10         1.3305   calculate D2E/DX2 analytically            !
 !       R11         1.0874   calculate D2E/DX2 analytically            !
 !       R12         1.0839   calculate D2E/DX2 analytically            !
 !       R13         1.0832   calculate D2E/DX2 analytically            !
 !       A3         59.6425   calculate D2E/DX2 analytically            !
 !       A4        116.7564   calculate D2E/DX2 analytically            !
 !       A5        117.9346   calculate D2E/DX2 analytically            !
 !       A6        117.7756   calculate D2E/DX2 analytically            !
 !       A7        118.1904   calculate D2E/DX2 analytically            !
 !       A8        119.9037   calculate D2E/DX2 analytically            !
 !       A9        114.2248   calculate D2E/DX2 analytically            !
 !       A10       127.2602   calculate D2E/DX2 analytically            !
 !       A11       114.4469   calculate D2E/DX2 analytically            !
 !       A12       122.1096   calculate D2E/DX2 analytically            !
 !       A13       120.9613   calculate D2E/DX2 analytically            !
 !       D4       -107.995    calculate D2E/DX2 analytically            !
 !       D5        108.7575   calculate D2E/DX2 analytically            !
 !       D6       -108.6401   calculate D2E/DX2 analytically            !
 !       D7       -143.9634   calculate D2E/DX2 analytically            !
 !       D8        112.9869   calculate D2E/DX2 analytically            !
 !       D9        140.0746   calculate D2E/DX2 analytically            !
 !       D10       -80.8585   calculate D2E/DX2 analytically            !
 !       D11       179.4477   calculate D2E/DX2 analytically            !
 !       D12        -2.2768   calculate D2E/DX2 analytically            !
 !       D13      -178.8737   calculate D2E/DX2 analytically            !
 ------------------------------------------------------------------------
 Trust Radius=1.00D-01 FncErr=1.00D-07 GrdErr=1.00D-07 EigMax=2.50D+02 EigMin=1.00D-04
 Number of steps in this run=      2 maximum allowed number of steps=      2.
 GradGradGradGradGradGradGradGradGradGradGradGradGradGradGradGradGradGrad

                          Input orientation:                          
 ---------------------------------------------------------------------
 Center     Atomic      Atomic             Coordinates (Angstroms)
 Number     Number       Type             X           Y           Z
 ---------------------------------------------------------------------
      1          6           0        0.000000    0.000000    0.000000
      2          6           0        0.000000    0.000000    1.517813
      3          6           0        1.296039    0.000000    0.759091
      4          1           0       -0.298529    0.919053   -0.487203
      5          1           0       -0.307207   -0.904615   -0.506574
      6          1           0        1.885809    0.907176    0.749890
      7          1           0        1.880910   -0.909587    0.771379
      8          6           0       -0.500937    1.180885    2.255534
      9          1           0       -0.288016   -0.945686    1.962610
     10          6           0        0.156093    2.309239    2.511294
     11          1           0       -1.525585    1.089917    2.608048
     12          1           0        1.187726    2.455543    2.212769
     13          1           0       -0.318871    3.121151    3.048349
 ---------------------------------------------------------------------
                    Distance matrix (angstroms):
                    1          2          3          4          5
     1  C    0.000000
     2  C    1.517813   0.000000
     3  C    1.501977   1.501791   0.000000
     4  H    1.082195   2.225729   2.222736   0.000000
     5  H    1.081352   2.238492   2.233973   1.823792   0.000000
     6  H    2.222967   2.229114   1.082073   2.510354   3.109761
     7  H    2.227150   2.218634   1.081468   3.110934   2.533979
     8  C    2.594776   1.479750   2.619724   2.762631   3.466422
     9  H    2.197525   1.084029   2.202728   3.078790   2.469601
    10  C    3.415193   2.518720   3.114848   3.336207   4.432948
    11  H    3.212046   2.168857   3.545155   3.333982   3.894030
    12  H    3.512368   2.814844   2.855627   3.443777   4.573873
    13  H    4.374437   3.490817   4.194070   4.165306   5.370699
                    6          7          8          9         10
     6  H    0.000000
     7  H    1.816897   0.000000
     8  C    2.835214   3.499426   0.000000
     9  H    3.103112   2.474788   2.157184   0.000000
    10  C    2.839056   4.045137   1.330520   3.330588   0.000000
    11  H    3.888927   4.356096   1.087403   2.468166   2.079458
    12  H    2.241601   3.725884   2.116167   3.716012   1.083876
    13  H    3.878816   5.125474   2.103886   4.209388   1.083153
                   11         12         13
    11  H    0.000000
    12  H    3.063206   0.000000
    13  H    2.403318   1.846906   0.000000
 Symmetry turned off by external request.
 Stoichiometry    C5H8
 Framework group  C1[X(C5H8)]
 Deg. of freedom    33
 Full point group                 C1      NOp   1
 Rotational constants (GHZ):          11.5458112           3.6723690           3.3473023
 Standard basis: def2TZVP (5D, 7F)
 The following finite field(s) will be applied:
[...]
   A13        2.11117   0.00008   0.00000   0.00042   0.00042   2.11159
    D4       -1.88487  -0.00003   0.00000  -0.00018  -0.00018  -1.88505
    D5        1.89818  -0.00001   0.00000   0.00013   0.00013   1.89831
    D6       -1.89613  -0.00006   0.00000  -0.00002  -0.00002  -1.89615
    D7       -2.51264  -0.00004   0.00000  -0.00017  -0.00017  -2.51280
    D8        1.97199  -0.00026   0.00000  -0.00103  -0.00103   1.97096
    D9        2.44476  -0.00005   0.00000   0.00052   0.00052   2.44528
   D10       -1.41125  -0.00001   0.00000  -0.00136  -0.00136  -1.41261
   D11        3.13195   0.00011   0.00000   0.00125   0.00125   3.13321
   D12       -0.03974  -0.00011   0.00000   0.00012   0.00012  -0.03961
   D13       -3.12193  -0.00008   0.00000  -0.00059  -0.00059  -3.12252
         Item               Value     Threshold  Converged?
 Maximum Force            0.000260     0.000450     YES
 RMS     Force            0.000074     0.000300     YES
 Maximum Displacement     0.001359     0.001800     YES
 RMS     Displacement     0.000458     0.001200     YES
 Predicted change in Energy=-3.668139D-07
 Optimization completed.
    -- Stationary point found.
                       ----------------------------
                       !   Optimized Parameters   !
                       ! (Angstroms and Degrees)  !
 ----------------------                            ----------------------
 !      Name          Value   Derivative information (Atomic Units)     !
 ------------------------------------------------------------------------
 !       R2          1.5178   -DE/DX =    0.0001                        !
 !       R3          1.502    -DE/DX =    0.0                           !
 !       R4          1.0822   -DE/DX =    0.0                           !
 !       R5          1.0814   -DE/DX =    0.0                           !
 !       R6          1.0821   -DE/DX =    0.0                           !
 !       R7          1.0815   -DE/DX =    0.0                           !
 !       R8          1.4797   -DE/DX =   -0.0001                        !
 !       R9          1.084    -DE/DX =    0.0                           !
 !       R10         1.3305   -DE/DX =    0.0                           !
 !       R11         1.0874   -DE/DX =    0.0                           !
 !       R12         1.0839   -DE/DX =    0.0                           !
 !       R13         1.0832   -DE/DX =    0.0                           !
 !       A3         59.6425   -DE/DX =   -0.0001                        !
 !       A4        116.7564   -DE/DX =    0.0                           !
 !       A5        117.9346   -DE/DX =    0.0                           !
 !       A6        117.7756   -DE/DX =    0.0                           !
 !       A7        118.1904   -DE/DX =    0.0                           !
 !       A8        119.9037   -DE/DX =    0.0001                        !
 !       A9        114.2248   -DE/DX =   -0.0001                        !
 !       A10       127.2602   -DE/DX =   -0.0002                        !
 !       A11       114.4469   -DE/DX =    0.0                           !
 !       A12       122.1096   -DE/DX =    0.0                           !
 !       A13       120.9613   -DE/DX =    0.0001                        !
 !       D4       -107.995    -DE/DX =    0.0                           !
 !       D5        108.7575   -DE/DX =    0.0                           !
 !       D6       -108.6401   -DE/DX =   -0.0001                        !
 !       D7       -143.9634   -DE/DX =    0.0                           !
 !       D8        112.9869   -DE/DX =   -0.0003                        !
 !       D9        140.0746   -DE/DX =   -0.0001                        !
 !       D10       -80.8585   -DE/DX =    0.0                           !
 !       D11       179.4477   -DE/DX =    0.0001                        !
 !       D12        -2.2768   -DE/DX =   -0.0001                        !
 !       D13      -178.8737   -DE/DX =   -0.0001                        !
 ------------------------------------------------------------------------
 GradGradGradGradGradGradGradGradGradGradGradGradGradGradGradGradGradGrad


 ----------------------------------------------------------------------

 Electric dipole moment (input orientation):
 (Debye = 10**-18 statcoulomb cm , SI units = C m)
                  (au)            (Debye)         (10**-30 SI)
   Tot        0.664371D+00      0.168866D+01      0.563278D+01
   x         -0.162033D+00     -0.411848D+00     -0.137378D+01
   y         -0.628359D+00     -0.159713D+01     -0.532745D+01
   z         -0.142478D+00     -0.362144D+00     -0.120798D+01

 Dipole polarizability, Alpha (input orientation).
 (esu units = cm**3 , SI units = C**2 m**2 J**-1)
 Alpha(0;0):
               (au)            (10**-24 esu)      (10**-40 SI)
   iso        0.584216D+02      0.865719D+01      0.963242D+01
   aniso      0.218102D+02      0.323194D+01      0.359602D+01
   xx         0.549159D+02      0.813769D+01      0.905440D+01
   yx         0.205817D+01      0.304989D+00      0.339346D+00
   yy         0.641286D+02      0.950288D+01      0.105734D+02
   zx        -0.160745D+01     -0.238199D+00     -0.265032D+00
   zy         0.112645D+02      0.166922D+01      0.185726D+01
   zz         0.562203D+02      0.833099D+01      0.926947D+01

 ----------------------------------------------------------------------

 Dipole orientation:
     6          0.00000000          0.00000000         -0.00000000
     6         -0.69953707          2.71277506         -0.61511375
     6          1.97934965          1.82190111         -0.90495625
     1         -0.64183766         -1.43544597         -1.30758382
     1          0.00605965         -0.56532696          1.96369320
     1          2.71789665          1.56553235         -2.79443208
     1          3.35127499          2.50660104          0.44620304
     6         -2.36366266          3.26362991         -2.79379661
     1         -1.08271779          3.87516085          1.02758496
     6         -1.70574168          3.39485737         -5.21695878
     1         -4.33494645          3.57118593         -2.30182663
     1          0.23335047          3.15875624         -5.83292951
     1         -3.09827135          3.78006920         -6.66682864

 Electric dipole moment (dipole orientation):
 (Debye = 10**-18 statcoulomb cm , SI units = C m)
                  (au)            (Debye)         (10**-30 SI)
   Tot        0.664371D+00      0.168866D+01      0.563278D+01
   x          0.000000D+00      0.000000D+00      0.000000D+00
   y          0.000000D+00      0.000000D+00      0.000000D+00
   z          0.664371D+00      0.168866D+01      0.563278D+01

 Dipole polarizability, Alpha (dipole orientation).
 (esu units = cm**3 , SI units = C**2 m**2 J**-1)
 Alpha(0;0):
               (au)            (10**-24 esu)      (10**-40 SI)
   iso        0.584216D+02      0.865719D+01      0.963242D+01
   aniso      0.218102D+02      0.323194D+01      0.359602D+01
   xx         0.563716D+02      0.835340D+01      0.929442D+01
   yx        -0.310103D+01     -0.459525D+00     -0.511290D+00
   yy         0.503254D+02      0.745745D+01      0.829753D+01
   zx         0.325673D+01      0.482598D+00      0.536962D+00
   zy        -0.721040D+01     -0.106847D+01     -0.118883D+01
   zz         0.685679D+02      0.101607D+02      0.113053D+02

 ----------------------------------------------------------------------
 1\1\GINC-BHC0021\Freq\RB3LYP\def2TZVP\C5H8\DHANAWAY\10-Jun-2022\1\\#N 
 Geom=AllCheck Guess=TCheck SCRF=Check GenChk RB3LYP/def2TZVP Freq\\int
 _zmat_initalOpt\\0,1\C\C,1,R2\C,1,R3,2,A3\H,1,R4,2,A4,3,D4,0\H,1,R5,2,
 A5,3,D5,0\H,3,R6,1,A6,2,D6,0\H,3,R7,1,A7,6,D7,0\C,2,R8,1,A8,3,D8,0\H,2
 ,R9,1,A9,8,D9,0\C,8,R10,2,A10,1,D10,0\H,8,R11,2,A11,10,D11,0\H,10,R12,
 8,A12,2,D12,0\H,10,R13,8,A13,12,D13,0\\R2=1.51781323\R3=1.50197744\R4=
 1.08219472\R5=1.08135162\R6=1.08207301\R7=1.08146844\R8=1.47974962\R9=
 1.0840292\R10=1.33051985\R11=1.08740251\R12=1.08387611\R13=1.08315345\
 A3=59.64247639\A4=116.75642844\A5=117.93463401\A6=117.77555713\A7=118.
 19041076\A8=119.9037359\A9=114.22483918\A10=127.26023557\A11=114.44686
 561\A12=122.10964382\A13=120.9613022\D4=-107.99496701\D5=108.75750823\
 D6=-108.6401022\D7=-143.96338105\D8=112.9868797\D9=140.07460623\D10=-8
 0.8585271\D11=179.44768731\D12=-2.276798\D13=-178.8736892\\Version=ES6
 4L-G16RevA.03\HF=-195.3702317\RMSD=3.505e-09\RMSF=1.235e-04\ZeroPoint=
 0.1142986\Thermal=0.1197034\Dipole=-0.1620334,-0.6283586,-0.1424785\Di
 poleDeriv=0.0535898,-0.0687311,-0.1517914,0.0076015,0.0426202,-0.05117
 81,-0.0841259,0.0495419,-0.020905,0.0670217,0.0029372,0.1422599,0.0088
 229,0.0029195,-0.0806024,0.1354704,-0.2280124,-0.2005114,-0.1607652,0.
 0494923,0.060418,0.0092423,0.0577812,-0.0500504,0.009062,0.0291426,0.0
 977494,0.037649,0.0220392,-0.0606563,0.0491202,-0.062717,0.0895684,-0.
 0456879,0.0217328,-0.0018793,0.0622554,0.0120475,-0.0283592,-0.0337179
 ,-0.0127882,-0.0623093,-0.0422769,-0.0607379,-0.016735,-0.0464131,-0.0
 382648,-0.0025152,-0.1115666,-0.0693435,0.0089683,-0.0204135,-0.003051
 4,0.0789318,-0.0227253,0.0536753,0.0132049,0.0746377,-0.0095722,0.0055
 653,-0.0044427,-0.0149597,0.0776744,0.1087794,0.0190728,-0.1185368,-0.
 0063626,0.3652656,0.3672962,-0.0779079,0.2815164,0.0199216,0.0500531,0
 .0385294,0.0917415,-0.0179585,-0.0405146,0.0108591,0.0459322,0.0140608
 ,0.0131637,0.0149989,-0.0923733,-0.1700011,-0.0093661,-0.3131148,-0.03
 62369,-0.1322239,0.1047659,-0.2893808,-0.082585,-0.0095899,0.0880973,0
 .0047213,0.0481218,-0.0500374,0.0778565,-0.0576817,0.0628193,-0.101463
 4,-0.0585766,0.0586826,-0.0054315,0.0558923,-0.0330073,0.086692,-0.015
 1538,0.1051498,0.0196046,0.0697421,0.0774559,0.0302572,-0.0645504,-0.1
 188356,0.0520657,-0.1211634,0.0740016\Polar=54.9158712,2.0581682,64.12
 86227,-1.6074477,11.264488,56.2202818\PG=C01 [X(C5H8)]\NImag=0\\0.3181
 5515,0.00142509,0.66326042,0.17738403,0.00575492,0.48823248,-0.0110775
 5,0.00136453,0.02486006,0.35688636,-0.00128639,-0.06491966,0.00782796,
 0.02101277,0.60887744,-0.03126374,-0.00022233,-0.18565523,-0.16578019,
 -0.03005469,0.46422975,-0.16536127,-0.00132869,-0.11655716,-0.16236854
 ,-0.00202295,0.11201697,0.61425886,0.00040234,-0.07506809,0.00037640,-
 0.00334717,-0.07893415,0.00020982,-0.00220136,0.66071405,-0.06031162,-
 0.00068601,-0.06476246,0.05555310,0.00132463,-0.06489940,0.00178533,-0
 .00300081,0.21825015,-0.05777953,0.06378082,-0.04062183,-0.00016427,-0
 .01258413,0.00558858,-0.00799319,0.02746787,-0.01311568,0.06259154,0.0
 6584832,-0.26292630,0.10700457,-0.00075415,0.00044443,-0.00145102,-0.0
 0164849,0.00242234,-0.00197459,-0.07022168,0.27223633,-0.03945493,0.10
 289593,-0.09723921,-0.00826226,0.02188857,-0.01402510,-0.00028868,-0.0
 0032328,-0.00447873,0.04375632,-0.11466504,0.10707324,-0.06122322,-0.0
 6589364,-0.04252048,0.00013869,0.01314532,0.00434852,-0.00749977,-0.02
 668241,-0.01233314,0.00265858,0.00705758,0.00540086,0.06474948,-0.0681
 5464,-0.26131578,-0.11215253,0.00082178,0.00254338,0.00358818,0.001637
 37,0.00316878,0.00226083,-0.00712783,-0.01603453,-0.01169854,0.0719690
 4,0.26870072,-0.04240603,-0.10851767,-0.10429683,-0.00784736,-0.021317
 13,-0.01289813,-0.00079962,0.00064677,-0.00442990,0.00544926,0.0121708
 0,0.00849901,0.04657504,0.11816886,0.11287541,-0.01132347,-0.01340986,
 0.00161266,-0.01131937,-0.01356290,-0.00150011,-0.12669054,-0.12341000
 ,0.00224439,0.00173538,-0.00014976,-0.00101242,-0.00231640,0.00044393,
 0.00126401,0.13792992,0.00238160,0.00190600,0.00013556,0.00060927,0.00
 211103,0.00148503,-0.12700726,-0.25558580,0.00245395,-0.00009444,0.001
 13413,0.00040358,0.00037668,0.00052028,0.00016499,0.13680190,0.2675191
 3,-0.01162150,-0.02416841,-0.00095103,0.01008868,0.02484772,-0.0010129
 6,0.00241729,0.00260061,-0.03404205,0.00319441,0.00027401,0.00047516,-
 0.00509960,0.00044453,0.00017749,-0.00139518,-0.00206719,0.03587913,-0
 .01102242,0.01330880,0.00083529,-0.01152409,0.01359703,-0.00090458,-0.
 12733528,0.12598687,-0.00189863,-0.00229312,-0.00048106,0.00116577,0.0
 0173501,0.00032988,-0.00097301,0.01164151,-0.01469846,0.00024514,0.138
 93465,-0.00230750,0.00292740,-0.00021206,-0.00298851,0.00262312,0.0009
 6196,0.12995419,-0.26157486,0.00258830,-0.00055834,0.00055663,-0.00014
 066,0.00004188,0.00109348,-0.00045073,0.01324307,-0.01689170,0.0001990
 1,-0.13719702,0.27022155,-0.01098763,0.02423738,-0.00130332,0.01062499
 ,-0.02410760,-0.00005447,-0.00177416,0.00268886,-0.03477316,-0.0052400
 2,-0.00034089,0.00000874,0.00298551,-0.00034685,0.00058391,-0.00014493
 ,0.00016442,-0.00087910,0.00194132,-0.00303041,0.03670965,-0.00204215,
 -0.01456713,-0.00399034,-0.10035836,0.03958364,0.03389523,-0.01126321,
 0.02774771,0.01799138,0.00034305,0.00024089,0.00155718,0.00189892,0.00
 042857,-0.00394838,0.00214532,0.00021527,-0.00300839,-0.00204828,-0.00
 054964,0.00473391,0.61781816,0.00524745,-0.00191159,-0.01325374,0.0359
 4296,-0.18161856,-0.04636812,0.00137773,0.00581178,-0.00347098,-0.0006
 6465,0.00089784,0.00314887,-0.00066432,-0.00055652,0.00146351,-0.00204
 244,-0.00106583,-0.00022124,-0.00219453,-0.00049189,0.00139916,0.18017
 849,0.67699195,0.01224873,-0.02362826,-0.02017199,0.03517075,-0.058503
 44,-0.10246155,0.00302116,0.00156628,-0.00883128,-0.00175377,-0.001277
 52,0.00309653,0.00228939,-0.00029966,-0.00215256,-0.00006861,-0.001296
 53,0.00099192,-0.00193417,-0.00056429,0.00035314,-0.10365746,0.1642919
 7,0.27136345,0.00202207,0.01262749,-0.00562059,-0.06267250,-0.06158257
 ,0.03892494,-0.00889821,-0.02697230,0.01124427,0.00090642,0.00026687,-
 0.00256614,-0.00002634,-0.00042087,0.00198552,-0.00252546,0.00003780,0
 .00510502,0.00132406,-0.00006741,-0.00255750,0.00390682,0.00743180,-0.
 00694278,0.06477400,-0.00008400,0.00132563,-0.00103731,-0.06422776,-0.
 26669462,0.10077697,0.00165047,0.00271536,-0.00133713,0.00020593,0.000
 51195,-0.00043675,-0.00030992,0.00118292,-0.00047795,0.00045420,0.0004
 9704,-0.00074472,0.00035354,0.00108157,0.00033452,-0.00755665,-0.02207
 382,0.00839919,0.06674951,0.28235584,0.00881907,0.02444622,-0.01530156
 ,0.03509090,0.09795559,-0.08474182,0.00086256,-0.00038447,-0.00454294,
 0.00296289,-0.00016826,-0.00342303,-0.00202798,0.00014952,0.00231993,-
 0.00130998,-0.00040618,-0.00007108,0.00101878,0.00044818,0.00037792,-0
 .00537284,-0.01858250,0.00691953,-0.04112326,-0.10275832,0.10000541,0.
 00040770,0.00207834,0.00328867,0.01188353,0.00559175,-0.00115861,0.001
 82197,-0.00045814,-0.00147895,0.00004450,-0.00011015,-0.00025482,-0.00
 030909,0.00010332,0.00055243,-0.00033866,0.00057897,0.00048571,0.00016
 344,0.00007413,0.00011079,-0.21422729,-0.18373606,-0.02063596,0.000077
 61,0.00330210,0.00167688,0.62572790,-0.00342031,-0.00290770,0.00558714
 ,-0.00821957,-0.02828951,-0.01928455,-0.00085072,0.00016646,0.00295765
 ,0.00010041,0.00058337,-0.00101114,0.00056364,0.00069574,-0.00149030,0
 .00075857,-0.00014907,-0.00019048,0.00027973,0.00021690,-0.00009679,-0
 .19167567,-0.40258442,-0.08375155,0.00221800,-0.00133816,-0.00088181,0
 .14585109,0.69340084,-0.00062403,-0.00169655,-0.00000562,-0.00748774,-
 0.01769208,0.00152041,-0.00013580,-0.00037221,0.00060230,-0.00031825,0
 .00028270,0.00079531,0.00053456,-0.00018223,-0.00057008,0.00002953,-0.
 00040883,-0.00037846,-0.00006458,-0.00006257,-0.00001598,-0.02406440,-
 0.08862891,-0.08158723,0.00140420,-0.00157766,-0.00130750,-0.12520701,
 0.21247663,0.23922262,-0.00058097,0.00024390,0.00096190,-0.00809097,-0
 .00111563,0.00357473,0.00122184,0.00147493,0.00006218,0.00007253,0.000
 00529,0.00010476,-0.00005813,-0.00001630,0.00011858,0.00012021,-0.0001
 6252,-0.00030962,0.00001084,-0.00002397,0.00045275,-0.29087845,-0.0232
 9077,0.08557370,0.00056997,0.00016557,-0.00009074,-0.01366178,-0.00199
 762,0.00689503,0.30955952,0.00056558,0.00043008,-0.00022892,0.02374022
 ,0.00317174,-0.00915557,0.00047463,-0.00359003,-0.00189798,-0.00027900
 ,0.00013079,-0.00013825,-0.00000953,-0.00003681,0.00000039,-0.00005173
 ,0.00016980,0.00028654,0.00039826,-0.00000061,-0.00091247,-0.02034657,
 -0.05625839,0.00187987,-0.00041625,0.00090701,0.00062499,-0.02892450,0
 .00009348,0.00748570,0.02745054,0.05750055,-0.00187806,0.00084260,0.00
 111319,0.01806556,0.00018125,-0.00407939,0.00042278,-0.00343270,0.0022
 7763,0.00006442,0.00001524,-0.00057025,0.00003898,0.00000266,-0.000173
 24,0.00000409,0.00008217,0.00022181,0.00053505,0.00015164,-0.00119093,
 0.08663752,0.00464876,-0.07412897,-0.00055495,-0.00054178,0.00043287,-
 0.00554970,-0.00400160,0.00729271,-0.09717950,0.00375964,0.06558284,-0
 .00003846,-0.00041299,-0.00023611,-0.00070069,0.00257549,-0.00100910,-
 0.00002280,0.00025222,0.00018244,-0.00014767,-0.00011121,-0.00004712,0
 .00020018,0.00000838,-0.00012648,0.00053838,0.00084977,0.00032954,0.00
 020753,0.00016276,-0.00014772,-0.01451535,-0.00269269,0.00607753,0.000
 04496,0.00008823,0.00002691,-0.30111782,-0.03609114,0.07830931,0.00132
 502,-0.00382347,0.00192900,0.32270634,-0.00041921,0.00068302,0.0007128
 2,0.00044965,0.00019171,0.00271298,0.00056249,-0.00061725,0.00000731,0
 .00006048,0.00003692,0.00001108,0.00011085,-0.00004647,0.00013119,0.00
 070316,-0.00047292,-0.00126841,0.00024590,0.00026088,0.00006984,-0.028
 22755,0.00161348,0.00811705,0.00019753,-0.00013347,-0.00013821,-0.0318
 1825,-0.05728240,0.00012944,-0.00376720,-0.00228903,-0.00475631,0.0419
 6834,0.05334357,0.00013355,-0.00123098,-0.00066208,-0.00177827,0.00210
 443,-0.00609252,-0.00138309,-0.00025138,-0.00020362,-0.00015521,-0.000
 06709,0.00001777,0.00021917,0.00007791,-0.00046585,0.00052029,-0.00056
 851,-0.00037552,0.00003684,0.00008154,0.00021744,-0.00428499,0.0001064
 8,0.00757876,0.00012952,0.00063957,0.00052466,0.07879217,0.00124747,-0
 .06011671,0.00268352,-0.00457187,0.00867365,-0.08748046,-0.00023508,0.
 05302603,-0.00013588,0.00078332,0.00060390,-0.00063224,-0.00335142,0.0
 0326736,0.00013014,-0.00026056,0.00007494,0.00002578,0.00005757,-0.000
 09854,0.00005209,-0.00002263,0.00015605,0.00040318,0.00011142,-0.00043
 149,0.00020614,0.00021636,0.00000269,0.00922082,-0.01489298,-0.0093885
 1,0.00049661,-0.00079121,-0.00053318,-0.11047202,0.09248359,0.07072919
 ,0.00039037,0.00122182,-0.00253519,-0.00847963,0.01993381,0.01256698,0
 .10879465,-0.00019831,-0.00148343,-0.00051480,-0.00440402,0.00049365,-
 0.00319865,-0.00059740,0.00037141,0.00077483,-0.00008543,0.00000608,0.
 00006564,0.00029485,0.00008480,-0.00049274,0.00022188,0.00030792,0.000
 00803,0.00007105,-0.00002245,-0.00005919,0.01452865,-0.01875404,-0.014
 93309,-0.00006961,-0.00033724,-0.00030475,0.08746739,-0.20260551,-0.10
 975343,0.00103377,-0.00022858,0.00304843,-0.00277371,0.00471197,0.0026
 6752,-0.09548910,0.21745542,-0.00003784,0.00197317,0.00100366,0.001701
 79,-0.00445521,0.01017043,0.00041243,-0.00032390,-0.00016654,0.0001888
 8,0.00019709,-0.00022943,-0.00041084,-0.00001267,0.00053083,-0.0002437
 4,-0.00014246,-0.00003531,-0.00000321,0.00003009,-0.00003383,0.0035115
 9,-0.00453326,-0.00096975,0.00057175,-0.00123860,-0.00119239,0.0693783
 9,-0.11156068,-0.10545177,-0.00284727,0.00286793,-0.00545192,0.0021922
 6,-0.00549369,-0.00212201,-0.07441419,0.12269221,0.10394803\\0.0000770
 3,0.00047769,0.00007073,-0.00009974,-0.00054348,-0.00011603,0.00008960
 ,0.00000592,0.00004737,0.00001436,0.00000129,-0.00002347,-0.00000584,0
 .00000284,0.00000001,-0.00003497,-0.00002198,-0.00000347,-0.00000491,0
 .00000117,-0.00003264,-0.00000268,0.00001232,0.00006225,0.00002858,-0.
 00000249,0.00004367,0.00000379,0.00008891,-0.00002252,-0.00002678,0.00
 002520,-0.00004385,-0.00002835,0.00000067,-0.00001486,-0.00001009,-0.0
 0004806,0.00003280\\\@


 IN NATURE THERE ARE NEITHER REWARDS OR
 PUNISHMENTS -- THERE ARE CONSEQUENCES.

                            -- ROBERT GREEN INGERSOLL
 Job cpu time:       0 days  0 hours 26 minutes 12.1 seconds.
 Elapsed time:       0 days  0 hours  2 minutes 11.4 seconds.
 File lengths (MBytes):  RWF=     52 Int=      0 D2E=      0 Chk=     32 Scr=      1
 Normal termination of Gaussian 16 at Fri Jun 10 03:34:56 2022.
