 Entering Gaussian System, Link 0=g16
 Input=ts_zmat_field_N25.gjf
 Output=ts_zmat_field_N25.out
 Initial command:
 /software/gaussian/g16-a03/l1.exe "/local_scratch/11174452/Gau-7692.inp" -scrdir="/local_scratch/11174452/"
 Entering Link 1 = /software/gaussian/g16-a03/l1.exe PID=      7693.
  
 Copyright (c) 1988,1990,1992,1993,1995,1998,2003,2009,2016,
            Gaussian, Inc.  All Rights Reserved.
  
 This is part of the Gaussian(R) 16 program.  It is based on
 the Gaussian(R) 09 system (copyright 2009, Gaussian, Inc.),
 the Gaussian(R) 03 system (copyright 2003, Gaussian, Inc.),
 the Gaussian(R) 98 system (copyright 1998, Gaussian, Inc.),
 the Gaussian(R) 94 system (copyright 1995, Gaussian, Inc.),
 the Gaussian 92(TM) system (copyright 1992, Gaussian, Inc.),
 the Gaussian 90(TM) system (copyright 1990, Gaussian, Inc.),
 the Gaussian 88(TM) system (copyright 1988, Gaussian, Inc.),
 the Gaussian 86(TM) system (copyright 1986, Carnegie Mellon
 University), and the Gaussian 82(TM) system (copyright 1983,
 Carnegie Mellon University). Gaussian is a federally registered
 trademark of Gaussian, Inc.
  
 This software contains proprietary and confidential information,
 including trade secrets, belonging to Gaussian, Inc.
  
 This software is provided under written license and may be
 used, copied, transmitted, or stored only in accord with that
 written license.
  
 The following legend is applicable only to US Government
 contracts under FAR:
  
                    RESTRICTED RIGHTS LEGEND
  
 Use, reproduction and disclosure by the US Government is
 subject to restrictions as set forth in subparagraphs (a)
 and (c) of the Commercial Computer Software - Restricted
 Rights clause in FAR 52.227-19.
  
 Gaussian, Inc.
 340 Quinnipiac St., Bldg. 40, Wallingford CT 06492
  
  
 ---------------------------------------------------------------
 Warning -- This program may not be used in any manner that
 competes with the business of Gaussian, Inc. or will provide
 assistance to any competitor of Gaussian, Inc.  The licensee
 of this program is prohibited from giving any competitor of
 Gaussian, Inc. access to this program.  By using this program,
 the user acknowledges that Gaussian, Inc. is engaged in the
 business of creating and licensing software in the field of
 computational chemistry and represents and warrants to the
 licensee that it is not a competitor of Gaussian, Inc. and that
 it will not use this program in any manner prohibited above.
 ---------------------------------------------------------------
  

 Cite this work as:
 Gaussian 16, Revision A.03,
 M. J. Frisch, G. W. Trucks, H. B. Schlegel, G. E. Scuseria, 
 M. A. Robb, J. R. Cheeseman, G. Scalmani, V. Barone, 
 G. A. Petersson, H. Nakatsuji, X. Li, M. Caricato, A. V. Marenich, 
 J. Bloino, B. G. Janesko, R. Gomperts, B. Mennucci, H. P. Hratchian, 
 J. V. Ortiz, A. F. Izmaylov, J. L. Sonnenberg, D. Williams-Young, 
 F. Ding, F. Lipparini, F. Egidi, J. Goings, B. Peng, A. Petrone, 
 T. Henderson, D. Ranasinghe, V. G. Zakrzewski, J. Gao, N. Rega, 
 G. Zheng, W. Liang, M. Hada, M. Ehara, K. Toyota, R. Fukuda, 
 J. Hasegawa, M. Ishida, T. Nakajima, Y. Honda, O. Kitao, H. Nakai, 
 T. Vreven, K. Throssell, J. A. Montgomery, Jr., J. E. Peralta, 
 F. Ogliaro, M. J. Bearpark, J. J. Heyd, E. N. Brothers, K. N. Kudin, 
 V. N. Staroverov, T. A. Keith, R. Kobayashi, J. Normand, 
 K. Raghavachari, A. P. Rendell, J. C. Burant, S. S. Iyengar, 
 J. Tomasi, M. Cossi, J. M. Millam, M. Klene, C. Adamo, R. Cammi, 
 J. W. Ochterski, R. L. Martin, K. Morokuma, O. Farkas, 
 J. B. Foresman, and D. J. Fox, Gaussian, Inc., Wallingford CT, 2016.
 
 ******************************************
 Gaussian 16:  ES64L-G16RevA.03 25-Dec-2016
                10-Jun-2022 
 ******************************************
 %nprocshared=12
 Will use up to   12 processors via shared memory.
 %chk=checkpoint.chk
 %mem=12GB
 ----------------------------------------------------------------------
 # Opt=(TS, CalcFC, noeigentest, Z-matrix, MaxStep=10) Field=read NoSym
 m B3LYP/Def2TZVP freq=noraman pop=none
 ----------------------------------------------------------------------
 1/5=1,8=10,10=4,11=1,18=40,26=3,38=1/1,3;
 2/12=2,15=1,17=6,18=5,29=3,40=1/2;
 3/5=44,7=101,11=2,14=-6,25=1,30=1,71=2,74=-5,140=1/1,2,3;
 4//1;
 5/5=2,38=5/2;
 8/6=4,10=90,11=11/1;
 11/6=1,8=1,9=11,15=111,16=1,31=1/1,2,10;
 10/6=1,13=1,31=1/2;
 7/10=1,18=20,25=1,30=1/1,2,3,16;
 1/5=1,8=10,10=4,11=1,18=40,26=3/3(2);
 2/15=1,29=3/2;
 99//99;
 2/15=1,29=3/2;
 3/5=44,7=101,11=2,14=-2,25=1,30=1,71=1,74=-5/1,2,3;
 4/5=5,16=3,69=1/1;
 5/5=2,38=5/2;
 7/30=1/1,2,3,16;
 1/5=1,8=10,11=1,18=40,26=3/3(-5);
 2/15=1,29=3/2;
 99/9=1/99;
 -----------------
 ts_zmat_initalOpt
 -----------------
 Symbolic Z-matrix:
 Charge =  0 Multiplicity = 1
 H
 N                    1    R2
 C                    2    R3       1    A3
 C                    2    R4       1    A4       3    D4       0
 H                    3    R5       2    A5       1    D5       0
 C                    3    R6       2    A6       5    D6       0
 C                    4    R7       2    A7       1    D7       0
 C                    4    R8       2    A8       7    D8       0
 H                    6    R9       3    A9       2    D9       0
 H                    8    R10      4    A10      2    D10      0
 H                    7    R11      4    A11      2    D11      0
 C                    8    R12      4    A12      10   D12      0
 H                    12   R13      8    A13      4    D13      0
 C                    12   R14      8    A14      13   D14      0
 H                    14   R15      12   A15      8    D15      0
 C                    14   R16      12   A16      15   D16      0
 O                    16   R17      14   A17      12   D17      0
       Variables:
  R2                    1.00598                  
  R3                    1.39127                  
  R4                    1.36115                  
  R5                    1.07689                  
  R6                    1.35653                  
  R7                    1.41561                  
  R8                    1.41638                  
  R9                    1.07683                  
  R10                   1.08165                  
  R11                   1.08329                  
  R12                   1.36916                  
  R13                   1.08422                  
  R14                   1.4159                   
  R15                   1.08553                  
  R16                   1.37596                  
  R17                   1.17946                  
  A3                  124.59398                  
  A4                  124.18827                  
  A5                  120.52344                  
  A6                  108.62359                  
  A7                  107.11247                  
  A8                  126.86937                  
  A9                  126.10544                  
  A10                 121.07605                  
  A11                 120.20679                  
  A12                 117.95383                  
  A13                 117.24586                  
  A14                 127.53786                  
  A15                 118.21837                  
  A16                 127.71795                  
  A17                 144.62153                  
  D4                 -167.10924                  
  D5                   10.31048                  
  D6                  179.95695                  
  D7                  169.42636                  
  D8                 -170.90186                  
  D9                 -178.12113                  
  D10                 -28.40808                  
  D11                 144.79912                  
  D12                 171.0814                   
  D13                -175.37208                  
  D14                 174.43414                  
  D15                -164.28668                  
  D16                 166.10212                  
  D17                 179.09517                  
 

 GradGradGradGradGradGradGradGradGradGradGradGradGradGradGradGradGradGrad
 Berny optimization.
 Initialization pass.
                       ----------------------------
                       !    Initial Parameters    !
                       ! (Angstroms and Degrees)  !
 ----------------------                            ----------------------
 !      Name          Value   Derivative information (Atomic Units)     !
 ------------------------------------------------------------------------
 !       R2          1.006    calculate D2E/DX2 analytically            !
 !       R3          1.3913   calculate D2E/DX2 analytically            !
 !       R4          1.3611   calculate D2E/DX2 analytically            !
 !       R5          1.0769   calculate D2E/DX2 analytically            !
 !       R6          1.3565   calculate D2E/DX2 analytically            !
 !       R7          1.4156   calculate D2E/DX2 analytically            !
 !       R8          1.4164   calculate D2E/DX2 analytically            !
 !       R9          1.0768   calculate D2E/DX2 analytically            !
 !       R10         1.0816   calculate D2E/DX2 analytically            !
 !       R11         1.0833   calculate D2E/DX2 analytically            !
 !       R12         1.3692   calculate D2E/DX2 analytically            !
 !       R13         1.0842   calculate D2E/DX2 analytically            !
 !       R14         1.4159   calculate D2E/DX2 analytically            !
 !       R15         1.0855   calculate D2E/DX2 analytically            !
 !       R16         1.376    calculate D2E/DX2 analytically            !
 !       R17         1.1795   calculate D2E/DX2 analytically            !
 !       A3        124.594    calculate D2E/DX2 analytically            !
 !       A4        124.1883   calculate D2E/DX2 analytically            !
 !       A5        120.5234   calculate D2E/DX2 analytically            !
 !       A6        108.6236   calculate D2E/DX2 analytically            !
 !       A7        107.1125   calculate D2E/DX2 analytically            !
 !       A8        126.8694   calculate D2E/DX2 analytically            !
 !       A9        126.1054   calculate D2E/DX2 analytically            !
 !       A10       121.0761   calculate D2E/DX2 analytically            !
 !       A11       120.2068   calculate D2E/DX2 analytically            !
 !       A12       117.9538   calculate D2E/DX2 analytically            !
 !       A13       117.2459   calculate D2E/DX2 analytically            !
 !       A14       127.5379   calculate D2E/DX2 analytically            !
 !       A15       118.2184   calculate D2E/DX2 analytically            !
 !       A16       127.718    calculate D2E/DX2 analytically            !
 !       A17       144.6215   calculate D2E/DX2 analytically            !
 !       D4       -167.1092   calculate D2E/DX2 analytically            !
 !       D5         10.3105   calculate D2E/DX2 analytically            !
 !       D6        179.9569   calculate D2E/DX2 analytically            !
 !       D7        169.4264   calculate D2E/DX2 analytically            !
 !       D8       -170.9019   calculate D2E/DX2 analytically            !
 !       D9       -178.1211   calculate D2E/DX2 analytically            !
 !       D10       -28.4081   calculate D2E/DX2 analytically            !
 !       D11       144.7991   calculate D2E/DX2 analytically            !
 !       D12       171.0814   calculate D2E/DX2 analytically            !
 !       D13      -175.3721   calculate D2E/DX2 analytically            !
 !       D14       174.4341   calculate D2E/DX2 analytically            !
 !       D15      -164.2867   calculate D2E/DX2 analytically            !
 !       D16       166.1021   calculate D2E/DX2 analytically            !
 !       D17       179.0952   calculate D2E/DX2 analytically            !
 ------------------------------------------------------------------------
 Trust Radius=1.00D-01 FncErr=1.00D-07 GrdErr=1.00D-06 EigMax=2.50D+02 EigMin=1.00D-04
 Number of steps in this run=     55 maximum allowed number of steps=    100.
 Search for a saddle point of order  1.
 GradGradGradGradGradGradGradGradGradGradGradGradGradGradGradGradGradGrad

 ---------------------------------------------------------------------------------------------------
                            Z-MATRIX (ANGSTROMS AND DEGREES)
   CD    Cent   Atom    N1       Length/X        N2       Alpha/Y        N3        Beta/Z          J
 ---------------------------------------------------------------------------------------------------
      1      1  H 
      2      2  N        1   1.005983(     1)
      3      3  C        2   1.391275(     2)      1  124.594(    17)
      4      4  C        2   1.361147(     3)      1  124.188(    18)      3 -167.109(    32)      0
      5      5  H        3   1.076892(     4)      2  120.523(    19)      1   10.310(    33)      0
      6      6  C        3   1.356528(     5)      2  108.624(    20)      5  179.957(    34)      0
      7      7  C        4   1.415609(     6)      2  107.112(    21)      1  169.426(    35)      0
      8      8  C        4   1.416382(     7)      2  126.869(    22)      7 -170.902(    36)      0
      9      9  H        6   1.076829(     8)      3  126.105(    23)      2 -178.121(    37)      0
     10     10  H        8   1.081646(     9)      4  121.076(    24)      2  -28.408(    38)      0
     11     11  H        7   1.083293(    10)      4  120.207(    25)      2  144.799(    39)      0
     12     12  C        8   1.369165(    11)      4  117.954(    26)     10  171.081(    40)      0
     13     13  H       12   1.084224(    12)      8  117.246(    27)      4 -175.372(    41)      0
     14     14  C       12   1.415903(    13)      8  127.538(    28)     13  174.434(    42)      0
     15     15  H       14   1.085535(    14)     12  118.218(    29)      8 -164.287(    43)      0
     16     16  C       14   1.375964(    15)     12  127.718(    30)     15  166.102(    44)      0
     17     17  O       16   1.179459(    16)     14  144.622(    31)     12  179.095(    45)      0
 ---------------------------------------------------------------------------------------------------
                         Z-Matrix orientation:                         
 ---------------------------------------------------------------------
 Center     Atomic      Atomic             Coordinates (Angstroms)
 Number     Number       Type             X           Y           Z
 ---------------------------------------------------------------------
      1          1           0        0.000000    0.000000    0.000000
      2          7           0        0.000000    0.000000    1.005983
      3          6           0        1.145292    0.000000    1.795889
      4          6           0       -1.097558   -0.251188    1.770830
      5          1           0        2.113714    0.166034    1.355107
      6          6           0        0.783744   -0.229131    3.083115
      7          6           0       -0.649558   -0.403340    3.105032
      8          6           0       -2.409777   -0.521572    1.311360
      9          1           0        1.445188   -0.258748    3.932335
     10          1           0       -2.763984   -0.125940    0.369038
     11          1           0       -1.261149   -0.054773    3.928429
     12          6           0       -3.152293   -1.445236    1.997018
     13          1           0       -4.124988   -1.700108    1.591498
     14          6           0       -2.759265   -2.199822    3.128791
     15          1           0       -3.353936   -3.066708    3.399457
     16          6           0       -1.561390   -2.143488    3.803476
     17          8           0       -0.948317   -2.578117    4.712522
 ---------------------------------------------------------------------
                    Distance matrix (angstroms):
                    1          2          3          4          5
     1  H    0.000000
     2  N    1.005983   0.000000
     3  C    2.130003   1.391275   0.000000
     4  C    2.098468   1.361147   2.257011   0.000000
     5  H    2.516280   2.148776   1.076892   3.264838   0.000000
     6  C    3.189413   2.231868   1.356528   2.293878   2.216075
     7  C    3.197786   2.233969   2.257881   1.415609   3.319954
     8  C    2.792620   2.484415   3.625648   1.416382   4.575662
     9  H    4.197473   3.273997   2.172853   3.337322   2.696196
    10  H    2.791354   2.839219   4.163436   2.181211   4.984928
    11  H    4.126263   3.183424   3.215849   2.172688   4.249757
    12  C    4.001717   3.606634   4.538545   2.387225   5.544282
    13  H    4.736957   4.499858   5.541480   3.361080   6.516116
    14  C    4.716152   4.118140   4.675618   2.898707   5.699925
    15  H    5.675376   5.136371   5.676195   3.958639   6.672720
    16  C    4.636692   3.854666   3.993879   2.815597   4.983452
    17  O    5.454709   4.613504   4.420026   3.753720   5.308355
                    6          7          8          9         10
     6  C    0.000000
     7  C    1.444016   0.000000
     8  C    3.663770   2.515872   0.000000
     9  H    1.076829   2.256833   4.668977   0.000000
    10  H    4.468023   3.468921   1.081646   5.516507   0.000000
    11  H    2.219581   1.083293   2.895911   2.714016   3.864303
    12  C    4.260387   2.928639   1.369165   5.127381   2.131114
    13  H    5.337073   4.006371   2.099851   6.211594   2.413452
    14  C    4.054457   2.771061   2.498344   4.700093   3.452137
    15  H    5.027158   3.807083   3.424807   5.585713   4.263755
    16  C    3.111806   2.085036   3.092089   3.550825   4.160780
    17  O    3.342564   2.720833   4.234754   3.423015   5.308075
                   11         12         13         14         15
    11  H    0.000000
    12  C    3.039764   0.000000
    13  H    4.045979   1.084224   0.000000
    14  C    2.735875   1.415903   2.116172   0.000000
    15  H    3.705581   2.153292   2.393916   1.085535   0.000000
    16  C    2.113880   2.506355   3.414889   1.375964   2.056402
    17  O    2.660814   3.676260   4.539044   2.435332   2.783857
                   16         17
    16  C    0.000000
    17  O    1.179459   0.000000
 Symmetry turned off by external request.
 Stoichiometry    C8H7NO
 Framework group  C1[X(C8H7NO)]
 Deg. of freedom    45
 Full point group                 C1      NOp   1
 Rotational constants (GHZ):           2.1586789           1.3713930           0.8800753
 Standard basis: def2TZVP (5D, 7F)
 The following finite field(s) will be applied:
 An electric field of             -0.0015 -0.0003  0.0020
   352 basis functions,   566 primitive gaussians,   402 cartesian basis functions
    35 alpha electrons       35 beta electrons
       nuclear repulsion energy       480.1692803848 Hartrees.
 NAtoms=   17 NActive=   17 NUniq=   17 SFac= 1.00D+00 NAtFMM=   60 NAOKFM=F Big=F
 Integral buffers will be    131072 words long.
 Raffenetti 2 integral format.
 Two-electron integral symmetry is turned off.
 One-electron integrals computed using PRISM.
   1 Symmetry operations used in ECPInt.
 ECPInt:  NShTT=    9591 NPrTT=   29644 LenC2=    9332 LenP2D=   22719.
 LDataN:  DoStor=T MaxTD1= 6 Len=  172
 NBasis=   352 RedAO= T EigKep=  3.58D-05  NBF=   352
 NBsUse=   352 1.00D-06 EigRej= -1.00D+00 NBFU=   352
 The nuclear repulsion energy is now       481.0868921803 hartrees.
 ExpMin= 9.52D-02 ExpMax= 2.70D+04 ExpMxC= 9.22D+02 IAcc=3 IRadAn=         5 AccDes= 0.00D+00
 Harris functional with IExCor=  402 and IRadAn=       5 diagonalized for initial guess.
 HarFok:  IExCor=  402 AccDes= 0.00D+00 IRadAn=         5 IDoV= 1 UseB2=F ITyADJ=14
 ICtDFT=  3500011 ScaDFX=  1.000000  1.000000  1.000000  1.000000
 FoFCou: FMM=F IPFlag=           0 FMFlag=      100000 FMFlg1=           0
         NFxFlg=           0 DoJE=T BraDBF=F KetDBF=T FulRan=T
         wScrn=  0.000000 ICntrl=       500 IOpCl=  0 I1Cent=   200000004 NGrid=           0
         NMat0=    1 NMatS0=      1 NMatT0=    0 NMatD0=    1 NMtDS0=    0 NMtDT0=    0
 Symmetry not used in FoFCou.
 Requested convergence on RMS density matrix=1.00D-08 within 128 cycles.
 Requested convergence on MAX density matrix=1.00D-06.
 Requested convergence on             energy=1.00D-06.
 No special actions if energy rises.
 Integral accuracy reduced to 1.0D-05 until final iterations.
 Initial convergence to 1.0D-05 achieved.  Increase integral accuracy.
 SCF Done:  E(RB3LYP) =  -439.138903326     A.U. after   15 cycles
            NFock= 15  Conv=0.65D-08     -V/T= 2.0049
 DoSCS=F DFT=T ScalE2(SS,OS)=  1.000000  1.000000
 Range of M.O.s used for correlation:     1   352
 NBasis=   352 NAE=    35 NBE=    35 NFC=     0 NFV=     0
 NROrb=    352 NOA=    35 NOB=    35 NVA=   317 NVB=   317

 **** Warning!!: The largest alpha MO coefficient is  0.27176639D+02

   1 Symmetry operations used in ECPInt.
 ECPInt:  NShTT=    9591 NPrTT=   29644 LenC2=    9332 LenP2D=   22719.
 LDataN:  DoStor=T MaxTD1= 7 Len=  274
 Symmetrizing basis deriv contribution to polar:
 IMax=3 JMax=2 DiffMx= 0.00D+00
 G2DrvN: will do    18 centers at a time, making    1 passes.
 Calling FoFCou, ICntrl=  3107 FMM=F I1Cent=   0 AccDes= 0.00D+00.
 End of G2Drv F.D. properties file   721 does not exist.
 End of G2Drv F.D. properties file   722 does not exist.
 End of G2Drv F.D. properties file   788 does not exist.
          IDoAtm=11111111111111111
          Differentiating once with respect to nuclear coordinates.
 CalDSu exits because no D1Ps are significant.
          There are    54 degrees of freedom in the 1st order CPHF.  IDoFFX=6 NUNeed=     0.
     48 vectors produced by pass  0 Test12= 2.05D-14 1.85D-09 XBig12= 1.20D-01 1.15D-01.
 AX will form    48 AO Fock derivatives at one time.
     48 vectors produced by pass  1 Test12= 2.05D-14 1.85D-09 XBig12= 2.03D-02 4.03D-02.
     48 vectors produced by pass  2 Test12= 2.05D-14 1.85D-09 XBig12= 2.43D-04 2.12D-03.
     48 vectors produced by pass  3 Test12= 2.05D-14 1.85D-09 XBig12= 1.05D-06 1.09D-04.
     48 vectors produced by pass  4 Test12= 2.05D-14 1.85D-09 XBig12= 3.10D-09 6.31D-06.
     48 vectors produced by pass  5 Test12= 2.05D-14 1.85D-09 XBig12= 5.96D-12 3.09D-07.
     20 vectors produced by pass  6 Test12= 2.05D-14 1.85D-09 XBig12= 1.21D-14 1.30D-08.
 InvSVY:  IOpt=1 It=  1 EMax= 7.77D-16
 Solved reduced A of dimension   308 with    54 vectors.
 End of Minotr F.D. properties file   721 does not exist.
 End of Minotr F.D. properties file   722 does not exist.
 End of Minotr F.D. properties file   788 does not exist.
   1 Symmetry operations used in ECPInt.
 ECPInt:  NShTT=    9591 NPrTT=   29644 LenC2=    9332 LenP2D=   22719.
 LDataN:  DoStor=T MaxTD1= 8 Len=  415
 Calling FoFJK, ICntrl=    100147 FMM=F ISym2X=0 I1Cent= 0 IOpClX= 0 NMat=1 NMatS=1 NMatT=0.
 -------------------------------------------------------------------
 Center     Atomic                   Forces (Hartrees/Bohr)
 Number     Number              X              Y              Z
 -------------------------------------------------------------------
      1        1           0.000282593    0.000236154   -0.000562588
      2        7          -0.000935772   -0.000657575    0.001584842
      3        6          -0.000435116    0.000088852   -0.000157533
      4        6           0.001485144    0.000402652   -0.001384778
      5        1          -0.000043080   -0.000029081   -0.000061846
      6        6           0.000102795    0.000011464    0.000076841
      7        6          -0.000446584   -0.001198545    0.001069944
      8        6          -0.001131874   -0.000647549    0.000402358
      9        1           0.000111965    0.000005489   -0.000166380
     10        1           0.000101461   -0.000082731    0.000024093
     11        1           0.000007648    0.000305977   -0.000109234
     12        6           0.000096642    0.001220082   -0.001369853
     13        1           0.000014285   -0.000023464   -0.000235689
     14        6           0.000363156   -0.000445553    0.001815582
     15        1          -0.000083981   -0.000301877   -0.000254220
     16        6          -0.000124667    0.002519681   -0.003302422
     17        8           0.000635385   -0.001403977    0.002630882
 -------------------------------------------------------------------
 Cartesian Forces:  Max     0.003302422 RMS     0.000964021
 -----------------------------------------------------------------------------------------------
                       Internal Coordinate Forces (Hartree/Bohr or radian)
  Cent   Atom   N1       Length/X         N2         Alpha/Y        N3         Beta/Z          J
 -----------------------------------------------------------------------------------------------
      1  H 
      2  N        1   0.000563(     1)
      3  C        2  -0.000392(     2)      1  -0.001273(    17)
      4  C        2  -0.001204(     3)      1  -0.001954(    18)      3  -0.001282(    32)     0
      5  H        3  -0.000018(     4)      2  -0.000145(    19)      1  -0.000006(    33)     0
      6  C        3  -0.000145(     5)      2   0.000849(    20)      5   0.000052(    34)     0
      7  C        4   0.000862(     6)      2   0.002354(    21)      1   0.000839(    35)     0
      8  C        4   0.000055(     7)      2   0.000430(    22)      7   0.002311(    36)     0
      9  H        6  -0.000063(     8)      3  -0.000382(    23)      2  -0.000053(    37)     0
     10  H        8  -0.000084(     9)      4  -0.000101(    24)      2   0.002421(    38)     0
     11  H        7   0.000011(    10)      4  -0.000329(    25)      2  -0.000499(    39)     0
     12  C        8  -0.001903(    11)      4  -0.003087(    26)     10   0.002263(    40)     0
     13  H       12   0.000081(    12)      8  -0.000339(    27)      4   0.002622(    41)     0
     14  C       12   0.000734(    13)      8  -0.003380(    28)     13   0.002349(    42)     0
     15  H       14   0.000224(    14)     12  -0.000399(    29)      8   0.001128(    43)     0
     16  C       14   0.000161(    15)     12  -0.001435(    30)     15   0.000633(    44)     0
     17  O       16   0.002875(    16)     14  -0.002151(    31)     12  -0.000403(    45)     0
 -----------------------------------------------------------------------------------------------
 Internal  Forces:  Max     0.003380293 RMS     0.001401920

 GradGradGradGradGradGradGradGradGradGradGradGradGradGradGradGradGradGrad
 Berny optimization.
 Search for a saddle point.
 Step number   1 out of a maximum of   55
 All quantities printed in internal units (Hartrees-Bohrs-Radians)
 Swapping is turned off.
 Second derivative matrix not updated -- analytic derivatives used.
 ITU=  0
     Eigenvalues ---   -0.24675   0.00745   0.01813   0.01908   0.03192
     Eigenvalues ---    0.03361   0.04058   0.04970   0.06008   0.09953
     Eigenvalues ---    0.10893   0.11727   0.14806   0.16593   0.17447
     Eigenvalues ---    0.17963   0.18499   0.20996   0.23473   0.27256
     Eigenvalues ---    0.30727   0.32240   0.33367   0.34715   0.35187
     Eigenvalues ---    0.35371   0.35749   0.37198   0.37332   0.37620
     Eigenvalues ---    0.39422   0.42187   0.44539   0.46953   0.48184
     Eigenvalues ---    0.49869   0.52293   0.59036   0.82359   0.92584
     Eigenvalues ---    1.16891   1.52965   2.04407   2.27905  15.96499
 Eigenvectors required to have negative eigenvalues:
                          A17       D11       A12       D8        R16
   1                    0.60379   0.45404   0.27495  -0.22531  -0.21719
                          A16       A11       A8        A14       R17
   1                    0.20393   0.18012  -0.17795   0.15801  -0.13945
 RFO step:  Lambda0=8.413978014D-05 Lambda=-2.26766310D-04.
 Linear search not attempted -- option 19 set.
 Maximum step size (   0.100) exceeded in Quadratic search.
    -- Step size scaled by   0.739
 Variable       Old X    -DE/DX   Delta X   Delta X   Delta X     New X
                                 (Linear)    (Quad)   (Total)
    R2        1.90103   0.00056   0.00000   0.00056   0.00056   1.90160
    R3        2.62913  -0.00039   0.00000  -0.00368  -0.00368   2.62545
    R4        2.57220  -0.00120   0.00000  -0.00301  -0.00301   2.56918
    R5        2.03503  -0.00002   0.00000  -0.00013  -0.00013   2.03490
    R6        2.56347  -0.00015   0.00000   0.00201   0.00201   2.56547
    R7        2.67511   0.00086   0.00000  -0.00107  -0.00107   2.67404
    R8        2.67657   0.00005   0.00000   0.00346   0.00346   2.68003
    R9        2.03491  -0.00006   0.00000  -0.00012  -0.00012   2.03479
   R10        2.04401  -0.00008   0.00000   0.00005   0.00005   2.04407
   R11        2.04713   0.00001   0.00000  -0.00074  -0.00074   2.04639
   R12        2.58735  -0.00190   0.00000  -0.00449  -0.00449   2.58285
   R13        2.04889   0.00008   0.00000   0.00005   0.00005   2.04893
   R14        2.67567   0.00073   0.00000   0.00505   0.00505   2.68072
   R15        2.05136   0.00022   0.00000   0.00064   0.00064   2.05200
   R16        2.60020   0.00016   0.00000  -0.00396  -0.00396   2.59624
   R17        2.22886   0.00288   0.00000   0.00129   0.00129   2.23014
    A3        2.17458  -0.00127   0.00000   0.00745   0.00745   2.18202
    A4        2.16749  -0.00195   0.00000   0.00129   0.00129   2.16879
    A5        2.10353  -0.00015   0.00000   0.00082   0.00082   2.10435
    A6        1.89584   0.00085   0.00000  -0.00136  -0.00136   1.89448
    A7        1.86947   0.00235   0.00000  -0.00003  -0.00003   1.86943
    A8        2.21429   0.00043   0.00000  -0.00260  -0.00260   2.21169
    A9        2.20096  -0.00038   0.00000  -0.00196  -0.00196   2.19899
   A10        2.11318  -0.00010   0.00000  -0.00215  -0.00215   2.11103
   A11        2.09800  -0.00033   0.00000   0.00247   0.00247   2.10048
   A12        2.05868  -0.00309   0.00000   0.00242   0.00242   2.06110
   A13        2.04633  -0.00034   0.00000   0.00057   0.00057   2.04690
   A14        2.22596  -0.00338   0.00000  -0.00058  -0.00058   2.22538
   A15        2.06330  -0.00040   0.00000  -0.00253  -0.00253   2.06077
   A16        2.22910  -0.00144   0.00000   0.00417   0.00417   2.23327
   A17        2.52412  -0.00215   0.00000   0.00442   0.00442   2.52855
    D4       -2.91661  -0.00128   0.00000  -0.06490  -0.06490  -2.98151
    D5        0.17995  -0.00001   0.00000  -0.05246  -0.05246   0.12749
    D6        3.14084   0.00005   0.00000   0.00420   0.00420   3.14504
    D7        2.95705   0.00084   0.00000   0.04949   0.04949   3.00653
    D8       -2.98280   0.00231   0.00000  -0.00281  -0.00281  -2.98561
    D9       -3.10880  -0.00005   0.00000  -0.00413  -0.00413  -3.11293
   D10       -0.49581   0.00242   0.00000  -0.00367  -0.00367  -0.49948
   D11        2.52722  -0.00050   0.00000   0.01260   0.01260   2.53982
   D12        2.98593   0.00226   0.00000   0.00147   0.00147   2.98740
   D13       -3.06082   0.00262   0.00000   0.00165   0.00165  -3.05917
   D14        3.04445   0.00235   0.00000   0.00150   0.00150   3.04595
   D15       -2.86734   0.00113   0.00000   0.00353   0.00353  -2.86381
   D16        2.89903   0.00063   0.00000  -0.00450  -0.00450   2.89453
   D17        3.12580  -0.00040   0.00000  -0.00984  -0.00984   3.11596
         Item               Value     Threshold  Converged?
 Maximum Force            0.003380     0.000450     NO 
 RMS     Force            0.001402     0.000300     NO 
 Maximum Displacement     0.064902     0.001800     NO 
 RMS     Displacement     0.014907     0.001200     NO 
 Predicted change in Energy=-6.756392D-05
 GradGradGradGradGradGradGradGradGradGradGradGradGradGradGradGradGradGrad

 ---------------------------------------------------------------------------------------------------
                            Z-MATRIX (ANGSTROMS AND DEGREES)
   CD    Cent   Atom    N1       Length/X        N2       Alpha/Y        N3        Beta/Z          J
 ---------------------------------------------------------------------------------------------------
      1      1  H 
      2      2  N        1   1.006281(     1)
      3      3  C        2   1.389328(     2)      1  125.021(    17)
      4      4  C        2   1.359552(     3)      1  124.262(    18)      3 -170.828(    32)      0
      5      5  H        3   1.076825(     4)      2  120.570(    19)      1    7.304(    33)      0
      6      6  C        3   1.357591(     5)      2  108.546(    20)      5  180.197(    34)      0
      7      7  C        4   1.415041(     6)      2  107.111(    21)      1  172.262(    35)      0
      8      8  C        4   1.418213(     7)      2  126.721(    22)      7 -171.063(    36)      0
      9      9  H        6   1.076764(     8)      3  125.993(    23)      2 -178.358(    37)      0
     10     10  H        8   1.081675(     9)      4  120.953(    24)      2  -28.618(    38)      0
     11     11  H        7   1.082901(    10)      4  120.348(    25)      2  145.521(    39)      0
     12     12  C        8   1.366787(    11)      4  118.092(    26)     10  171.165(    40)      0
     13     13  H       12   1.084249(    12)      8  117.279(    27)      4 -175.278(    41)      0
     14     14  C       12   1.418577(    13)      8  127.505(    28)     13  174.520(    42)      0
     15     15  H       14   1.085874(    14)     12  118.073(    29)      8 -164.084(    43)      0
     16     16  C       14   1.373868(    15)     12  127.957(    30)     15  165.845(    44)      0
     17     17  O       16   1.180141(    16)     14  144.875(    31)     12  178.531(    45)      0
 ---------------------------------------------------------------------------------------------------
                         Z-Matrix orientation:                         
 ---------------------------------------------------------------------
 Center     Atomic      Atomic             Coordinates (Angstroms)
 Number     Number       Type             X           Y           Z
 ---------------------------------------------------------------------
      1          1           0        0.000000    0.000000    0.000000
      2          7           0        0.000000    0.000000    1.006281
      3          6           0        1.137785    0.000000    1.803575
      4          6           0       -1.109260   -0.179108    1.771686
      5          1           0        2.114042    0.117880    1.364739
      6          6           0        0.759105   -0.168043    3.096408
      7          6           0       -0.675112   -0.293466    3.113618
      8          6           0       -2.428996   -0.416294    1.309770
      9          1           0        1.414452   -0.185451    3.950597
     10          1           0       -2.759051   -0.039391    0.351110
     11          1           0       -1.281606    0.099198    3.920249
     12          6           0       -3.212431   -1.284167    2.017677
     13          1           0       -4.190097   -1.516395    1.610446
     14          6           0       -2.859853   -2.011921    3.183191
     15          1           0       -3.489555   -2.847414    3.473964
     16          6           0       -1.671701   -1.979926    3.872238
     17          8           0       -1.087002   -2.398496    4.808006
 ---------------------------------------------------------------------
                    Distance matrix (angstroms):
                    1          2          3          4          5
     1  H    0.000000
     2  N    1.006281   0.000000
     3  C    2.132472   1.389328   0.000000
     4  C    2.097953   1.359552   2.254397   0.000000
     5  H    2.519044   2.147455   1.076825   3.262436   0.000000
     6  C    3.192526   2.230047   1.357591   2.290371   2.217270
     7  C    3.199455   2.232211   2.255865   1.415041   3.317705
     8  C    2.790845   2.483028   3.624785   1.418213   4.574665
     9  H    4.200272   3.271706   2.172703   3.334189   2.695941
    10  H    2.781581   2.836047   4.158910   2.181597   4.979881
    11  H    4.125616   3.184897   3.216147   2.173357   4.249872
    12  C    4.004974   3.604403   4.540849   2.388514   5.546475
    13  H    4.738133   4.496819   5.542840   3.362423   6.517162
    14  C    4.728561   4.118923   4.683191   2.901056   5.708105
    15  H    5.687986   5.135584   5.684210   3.960229   6.681475
    16  C    4.659284   3.863729   4.011569   2.823403   5.002020
    17  O    5.481904   4.624658   4.441741   3.761039   5.332441
                    6          7          8          9         10
     6  C    0.000000
     7  C    1.439794   0.000000
     8  C    3.663017   2.518941   0.000000
     9  H    1.076764   2.253548   4.668977   0.000000
    10  H    4.464374   3.469697   1.081675   5.513235   0.000000
    11  H    2.216898   1.082901   2.897730   2.711213   3.865333
    12  C    4.264094   2.936080   1.366787   5.133362   2.128959
    13  H    5.340481   4.013751   2.098119   6.217611   2.411506
    14  C    4.062546   2.780472   2.498273   4.711113   3.452784
    15  H    5.037131   3.817537   3.423283   5.600224   4.262727
    16  C    3.129481   2.100677   3.095914   3.570802   4.164895
    17  O    3.363421   2.733451   4.238835   3.448187   5.312724
                   11         12         13         14         15
    11  H    0.000000
    12  C    3.043282   0.000000
    13  H    4.050265   1.084249   0.000000
    14  C    2.736958   1.418577   2.118637   0.000000
    15  H    3.709006   2.154370   2.394801   1.085874   0.000000
    16  C    2.115948   2.509448   3.416560   1.373868   2.053229
    17  O    2.657904   3.680369   4.542212   2.435665   2.784503
                   16         17
    16  C    0.000000
    17  O    1.180141   0.000000
 Symmetry turned off by external request.
 Stoichiometry    C8H7NO
 Framework group  C1[X(C8H7NO)]
 Deg. of freedom    45
 Full point group                 C1      NOp   1
 Rotational constants (GHZ):           2.1600723           1.3641237           0.8770599
 Standard basis: def2TZVP (5D, 7F)
 The following finite field(s) will be applied:
 An electric field of             -0.0015 -0.0003  0.0020
   352 basis functions,   566 primitive gaussians,   402 cartesian basis functions
    35 alpha electrons       35 beta electrons
       nuclear repulsion energy       479.8395133581 Hartrees.
 NAtoms=   17 NActive=   17 NUniq=   17 SFac= 1.00D+00 NAtFMM=   60 NAOKFM=F Big=F
 Integral buffers will be    131072 words long.
 Raffenetti 2 integral format.
 Two-electron integral symmetry is turned off.
 One-electron integrals computed using PRISM.
   1 Symmetry operations used in ECPInt.
 ECPInt:  NShTT=    9591 NPrTT=   29644 LenC2=    9331 LenP2D=   22712.
 LDataN:  DoStor=T MaxTD1= 6 Len=  172
 NBasis=   352 RedAO= T EigKep=  3.62D-05  NBF=   352
 NBsUse=   352 1.00D-06 EigRej= -1.00D+00 NBFU=   352
 The nuclear repulsion energy is now       480.7698691467 hartrees.
 Initial guess from the checkpoint file:  "checkpoint.chk"
 B after Tr=     0.016785   -0.062449    0.006222
         Rot=    0.999641    0.018839    0.004925    0.018427 Ang=   3.07 deg.
 ExpMin= 9.52D-02 ExpMax= 2.70D+04 ExpMxC= 9.22D+02 IAcc=2 IRadAn=         4 AccDes= 0.00D+00
 Harris functional with IExCor=  402 and IRadAn=       4 diagonalized for initial guess.
 HarFok:  IExCor=  402 AccDes= 0.00D+00 IRadAn=         4 IDoV= 1 UseB2=F ITyADJ=14
 ICtDFT=  3500011 ScaDFX=  1.000000  1.000000  1.000000  1.000000
 FoFCou: FMM=F IPFlag=           0 FMFlag=      100000 FMFlg1=           0
         NFxFlg=           0 DoJE=T BraDBF=F KetDBF=T FulRan=T
         wScrn=  0.000000 ICntrl=       500 IOpCl=  0 I1Cent=   200000004 NGrid=           0
         NMat0=    1 NMatS0=      1 NMatT0=    0 NMatD0=    1 NMtDS0=    0 NMtDT0=    0
 Symmetry not used in FoFCou.
 Requested convergence on RMS density matrix=1.00D-08 within 128 cycles.
 Requested convergence on MAX density matrix=1.00D-06.
 Requested convergence on             energy=1.00D-06.
 No special actions if energy rises.
 Integral accuracy reduced to 1.0D-05 until final iterations.
 Initial convergence to 1.0D-05 achieved.  Increase integral accuracy.
 SCF Done:  E(RB3LYP) =  -439.138965356     A.U. after   12 cycles
            NFock= 12  Conv=0.65D-08     -V/T= 2.0049
   1 Symmetry operations used in ECPInt.
 ECPInt:  NShTT=    9591 NPrTT=   29644 LenC2=    9331 LenP2D=   22712.
 LDataN:  DoStor=T MaxTD1= 7 Len=  274
 Calling FoFJK, ICntrl=      2127 FMM=F ISym2X=0 I1Cent= 0 IOpClX= 0 NMat=1 NMatS=1 NMatT=0.
 -------------------------------------------------------------------
 Center     Atomic                   Forces (Hartrees/Bohr)
 Number     Number              X              Y              Z
 -------------------------------------------------------------------
      1        1           0.000700763   -0.000467322   -0.000149866
      2        7          -0.000825320    0.000611817    0.000680720
      3        6           0.000276063   -0.000234717   -0.000316840
      4        6          -0.000011978    0.000110792   -0.000538725
      5        1          -0.000005661   -0.000021683   -0.000012908
      6        6           0.001909885    0.000172382    0.000141400
      7        6          -0.001974685   -0.000389188    0.000368427
      8        6          -0.000265037   -0.000144386    0.000117611
      9        1           0.000125466    0.000018295   -0.000076957
     10        1           0.000022143   -0.000026266    0.000003793
     11        1          -0.000106796    0.000016023   -0.000034215
     12        6          -0.000001533    0.000299054   -0.000371945
     13        1           0.000001156   -0.000007979   -0.000057538
     14        6           0.000087349   -0.000097952    0.000489877
     15        1          -0.000019213   -0.000087512   -0.000067971
     16        6          -0.000088127    0.000569331   -0.000890410
     17        8           0.000175524   -0.000320688    0.000715547
 -------------------------------------------------------------------
 Cartesian Forces:  Max     0.001974685 RMS     0.000506469
 -----------------------------------------------------------------------------------------------
                       Internal Coordinate Forces (Hartree/Bohr or radian)
  Cent   Atom   N1       Length/X         N2         Alpha/Y        N3         Beta/Z          J
 -----------------------------------------------------------------------------------------------
      1  H 
      2  N        1   0.000150(     1)
      3  C        2   0.001736(     2)      1  -0.009389(    17)
      4  C        2   0.001641(     3)      1  -0.009570(    18)      3  -0.001352(    32)     0
      5  H        3  -0.000002(     4)      2  -0.000026(    19)      1  -0.000152(    33)     0
      6  C        3  -0.000530(     5)      2   0.005367(    20)      5  -0.000112(    34)     0
      7  C        4  -0.000292(     6)      2   0.005845(    21)      1   0.000216(    35)     0
      8  C        4   0.000071(     7)      2  -0.000052(    22)      7   0.000521(    36)     0
      9  H        6   0.000015(     8)      3  -0.000300(    23)      2  -0.000004(    37)     0
     10  H        8  -0.000019(     9)      4  -0.000018(    24)      2   0.000679(    38)     0
     11  H        7   0.000040(    10)      4  -0.000206(    25)      2   0.000059(    39)     0
     12  C        8  -0.000408(    11)      4  -0.000458(    26)     10   0.000631(    40)     0
     13  H       12   0.000022(    12)      8  -0.000082(    27)      4   0.000715(    41)     0
     14  C       12   0.000209(    13)      8  -0.000677(    28)     13   0.000650(    42)     0
     15  H       14   0.000060(    14)     12  -0.000103(    29)      8   0.000327(    43)     0
     16  C       14  -0.000006(    15)     12  -0.000329(    30)     15   0.000181(    44)     0
     17  O       16   0.000768(    16)     14  -0.000485(    31)     12  -0.000118(    45)     0
 -----------------------------------------------------------------------------------------------
 Internal  Forces:  Max     0.009570466 RMS     0.002380119

 GradGradGradGradGradGradGradGradGradGradGradGradGradGradGradGradGradGrad
 Berny optimization.
 Search for a saddle point.
 Step number   2 out of a maximum of   55
 All quantities printed in internal units (Hartrees-Bohrs-Radians)
 Swapping is turned off.
 Update second derivatives using D2CorN and points    1    2
 ITU=  0  0
     Eigenvalues ---   -0.24667   0.00938   0.01813   0.01907   0.03190
     Eigenvalues ---    0.03380   0.04057   0.04971   0.06008   0.09954
     Eigenvalues ---    0.10892   0.11726   0.14805   0.16593   0.17447
     Eigenvalues ---    0.17963   0.18499   0.20995   0.23473   0.27257
     Eigenvalues ---    0.30728   0.32240   0.33369   0.34714   0.35188
     Eigenvalues ---    0.35371   0.35749   0.37198   0.37332   0.37620
     Eigenvalues ---    0.39423   0.42187   0.44539   0.46953   0.48184
     Eigenvalues ---    0.49870   0.52293   0.59035   0.82361   0.92585
     Eigenvalues ---    1.16891   1.52966   2.04408   2.27901  15.96515
 Eigenvectors required to have negative eigenvalues:
                          A17       D11       A12       D8        R16
   1                    0.60382   0.45397   0.27498  -0.22534  -0.21716
                          A16       A11       A8        A14       R17
   1                    0.20388   0.18014  -0.17800   0.15801  -0.13945
 RFO step:  Lambda0=6.263546404D-06 Lambda=-2.31463810D-05.
 Linear search not attempted -- option 19 set.
 Variable       Old X    -DE/DX   Delta X   Delta X   Delta X     New X
                                 (Linear)    (Quad)   (Total)
    R2        1.90160   0.00015   0.00000   0.00033   0.00033   1.90193
    R3        2.62545   0.00174   0.00000  -0.00085  -0.00085   2.62460
    R4        2.56918   0.00164   0.00000  -0.00058  -0.00058   2.56860
    R5        2.03490  -0.00000   0.00000  -0.00003  -0.00003   2.03488
    R6        2.56547  -0.00053   0.00000   0.00055   0.00055   2.56602
    R7        2.67404  -0.00029   0.00000  -0.00050  -0.00050   2.67354
    R8        2.68003   0.00007   0.00000   0.00106   0.00106   2.68109
    R9        2.03479   0.00002   0.00000  -0.00003  -0.00003   2.03476
   R10        2.04407  -0.00002   0.00000   0.00003   0.00003   2.04410
   R11        2.04639   0.00004   0.00000  -0.00027  -0.00027   2.04611
   R12        2.58285  -0.00041   0.00000  -0.00144  -0.00144   2.58142
   R13        2.04893   0.00002   0.00000   0.00001   0.00001   2.04895
   R14        2.68072   0.00021   0.00000   0.00170   0.00170   2.68242
   R15        2.05200   0.00006   0.00000   0.00023   0.00023   2.05224
   R16        2.59624  -0.00001   0.00000  -0.00137  -0.00137   2.59486
   R17        2.23014   0.00077   0.00000   0.00040   0.00040   2.23054
    A3        2.18202  -0.00939   0.00000   0.00065   0.00065   2.18267
    A4        2.16879  -0.00957   0.00000  -0.00118  -0.00118   2.16760
    A5        2.10435  -0.00003   0.00000   0.00009   0.00009   2.10444
    A6        1.89448   0.00537   0.00000  -0.00017  -0.00017   1.89431
    A7        1.86943   0.00584   0.00000   0.00029   0.00029   1.86972
    A8        2.21169  -0.00005   0.00000  -0.00121  -0.00121   2.21048
    A9        2.19899  -0.00030   0.00000  -0.00061  -0.00061   2.19838
   A10        2.11103  -0.00002   0.00000  -0.00091  -0.00091   2.11012
   A11        2.10048  -0.00021   0.00000   0.00112   0.00112   2.10160
   A12        2.06110  -0.00046   0.00000   0.00109   0.00109   2.06219
   A13        2.04690  -0.00008   0.00000   0.00017   0.00017   2.04707
   A14        2.22538  -0.00068   0.00000  -0.00016  -0.00016   2.22522
   A15        2.06077  -0.00010   0.00000  -0.00089  -0.00089   2.05988
   A16        2.23327  -0.00033   0.00000   0.00143   0.00143   2.23470
   A17        2.52855  -0.00048   0.00000   0.00180   0.00180   2.53035
    D4       -2.98151  -0.00135   0.00000  -0.00757  -0.00757  -2.98908
    D5        0.12749  -0.00015   0.00000  -0.00743  -0.00743   0.12005
    D6        3.14504  -0.00011   0.00000   0.00118   0.00118   3.14622
    D7        3.00653   0.00022   0.00000   0.00659   0.00659   3.01313
    D8       -2.98561   0.00052   0.00000  -0.00159  -0.00159  -2.98720
    D9       -3.11293  -0.00000   0.00000  -0.00029  -0.00029  -3.11322
   D10       -0.49948   0.00068   0.00000   0.00003   0.00003  -0.49945
   D11        2.53982   0.00006   0.00000   0.00329   0.00329   2.54311
   D12        2.98740   0.00063   0.00000   0.00023   0.00023   2.98763
   D13       -3.05917   0.00072   0.00000   0.00082   0.00082  -3.05835
   D14        3.04595   0.00065   0.00000   0.00042   0.00042   3.04637
   D15       -2.86381   0.00033   0.00000   0.00154   0.00154  -2.86227
   D16        2.89453   0.00018   0.00000  -0.00186  -0.00186   2.89268
   D17        3.11596  -0.00012   0.00000  -0.00427  -0.00427   3.11169
         Item               Value     Threshold  Converged?
 Maximum Force            0.009570     0.000450     NO 
 RMS     Force            0.002380     0.000300     NO 
 Maximum Displacement     0.007574     0.001800     NO 
 RMS     Displacement     0.002206     0.001200     NO 
 Predicted change in Energy=-8.441333D-06
 GradGradGradGradGradGradGradGradGradGradGradGradGradGradGradGradGradGrad

 ---------------------------------------------------------------------------------------------------
                            Z-MATRIX (ANGSTROMS AND DEGREES)
   CD    Cent   Atom    N1       Length/X        N2       Alpha/Y        N3        Beta/Z          J
 ---------------------------------------------------------------------------------------------------
      1      1  H 
      2      2  N        1   1.006455(     1)
      3      3  C        2   1.388878(     2)      1  125.058(    17)
      4      4  C        2   1.359246(     3)      1  124.195(    18)      3 -171.262(    32)      0
      5      5  H        3   1.076811(     4)      2  120.575(    19)      1    6.879(    33)      0
      6      6  C        3   1.357880(     5)      2  108.536(    20)      5  180.265(    34)      0
      7      7  C        4   1.414775(     6)      2  107.127(    21)      1  172.639(    35)      0
      8      8  C        4   1.418774(     7)      2  126.651(    22)      7 -171.154(    36)      0
      9      9  H        6   1.076748(     8)      3  125.958(    23)      2 -178.374(    37)      0
     10     10  H        8   1.081689(     9)      4  120.901(    24)      2  -28.616(    38)      0
     11     11  H        7   1.082757(    10)      4  120.413(    25)      2  145.709(    39)      0
     12     12  C        8   1.366027(    11)      4  118.155(    26)     10  171.178(    40)      0
     13     13  H       12   1.084255(    12)      8  117.289(    27)      4 -175.230(    41)      0
     14     14  C       12   1.419477(    13)      8  127.495(    28)     13  174.544(    42)      0
     15     15  H       14   1.085997(    14)     12  118.023(    29)      8 -163.996(    43)      0
     16     16  C       14   1.373141(    15)     12  128.039(    30)     15  165.738(    44)      0
     17     17  O       16   1.180351(    16)     14  144.978(    31)     12  178.287(    45)      0
 ---------------------------------------------------------------------------------------------------
                         Z-Matrix orientation:                         
 ---------------------------------------------------------------------
 Center     Atomic      Atomic             Coordinates (Angstroms)
 Number     Number       Type             X           Y           Z
 ---------------------------------------------------------------------
      1          1           0        0.000000    0.000000    0.000000
      2          7           0        0.000000    0.000000    1.006455
      3          6           0        1.136896    0.000000    1.804233
      4          6           0       -1.111229   -0.170801    1.770358
      5          1           0        2.113956    0.111035    1.365431
      6          6           0        0.756483   -0.160099    3.097869
      7          6           0       -0.680687   -0.279871    3.113610
      8          6           0       -2.431203   -0.403548    1.305154
      9          1           0        1.411605   -0.175670    3.952246
     10          1           0       -2.755697   -0.028275    0.343944
     11          1           0       -1.288024    0.116203    3.917744
     12          6           0       -3.221640   -1.264135    2.012706
     13          1           0       -4.198699   -1.493248    1.602251
     14          6           0       -2.877561   -1.988901    3.183705
     15          1           0       -3.512305   -2.821005    3.473691
     16          6           0       -1.693638   -1.961044    3.878736
     17          8           0       -1.115638   -2.375993    4.820523
 ---------------------------------------------------------------------
                    Distance matrix (angstroms):
                    1          2          3          4          5
     1  H    0.000000
     2  N    1.006455   0.000000
     3  C    2.132555   1.388878   0.000000
     4  C    2.097182   1.359246   2.254858   0.000000
     5  H    2.519035   2.147092   1.076811   3.262701   0.000000
     6  C    3.192913   2.229778   1.357880   2.291451   2.217564
     7  C    3.199411   2.231987   2.257521   1.414775   3.319483
     8  C    2.788732   2.482503   3.625364   1.418774   4.574593
     9  H    4.200445   3.271264   2.172621   3.335468   2.695758
    10  H    2.777222   2.834358   4.157586   2.181569   4.977586
    11  H    4.125679   3.185610   3.218799   2.173682   4.252975
    12  C    4.003497   3.604101   4.542943   2.389131   5.547850
    13  H    4.735617   4.495979   5.544290   3.362974   6.517623
    14  C    4.729911   4.120255   4.687700   2.902235   5.712363
    15  H    5.688663   5.136303   5.688605   3.961072   6.685539
    16  C    4.664622   3.868346   4.020098   2.826558   5.010788
    17  O    5.488846   4.630022   4.451657   3.763827   5.343524
                    6          7          8          9         10
     6  C    0.000000
     7  C    1.442238   0.000000
     8  C    3.665302   2.519944   0.000000
     9  H    1.076748   2.256513   4.671851   0.000000
    10  H    4.465074   3.469873   1.081689   5.514342   0.000000
    11  H    2.220033   1.082757   2.898728   2.715580   3.866132
    12  C    4.268716   2.938913   1.366027   5.139409   2.128196
    13  H    5.344902   4.016578   2.097558   6.223664   2.410754
    14  C    4.069172   2.784233   2.498306   4.719682   3.452991
    15  H    5.044226   3.821660   3.422781   5.609965   4.262289
    16  C    3.139467   2.106617   3.097276   3.582667   4.166332
    17  O    3.373804   2.737966   4.240173   3.461543   5.314257
                   11         12         13         14         15
    11  H    0.000000
    12  C    3.045221   0.000000
    13  H    4.052636   1.084255   0.000000
    14  C    2.738047   1.419477   2.119451   0.000000
    15  H    3.711038   2.154717   2.395070   1.085997   0.000000
    16  C    2.116838   2.510486   3.417096   1.373141   2.052107
    17  O    2.656269   3.681753   4.543322   2.435854   2.784961
                   16         17
    16  C    0.000000
    17  O    1.180351   0.000000
 Symmetry turned off by external request.
 Stoichiometry    C8H7NO
 Framework group  C1[X(C8H7NO)]
 Deg. of freedom    45
 Full point group                 C1      NOp   1
 Rotational constants (GHZ):           2.1602125           1.3603658           0.8754254
 Standard basis: def2TZVP (5D, 7F)
 The following finite field(s) will be applied:
 An electric field of             -0.0015 -0.0003  0.0020
   352 basis functions,   566 primitive gaussians,   402 cartesian basis functions
    35 alpha electrons       35 beta electrons
       nuclear repulsion energy       479.5993651204 Hartrees.
 NAtoms=   17 NActive=   17 NUniq=   17 SFac= 1.00D+00 NAtFMM=   60 NAOKFM=F Big=F
 Integral buffers will be    131072 words long.
 Raffenetti 2 integral format.
 Two-electron integral symmetry is turned off.
 One-electron integrals computed using PRISM.
   1 Symmetry operations used in ECPInt.
 ECPInt:  NShTT=    9591 NPrTT=   29644 LenC2=    9331 LenP2D=   22708.
 LDataN:  DoStor=T MaxTD1= 6 Len=  172
 NBasis=   352 RedAO= T EigKep=  3.65D-05  NBF=   352
 NBsUse=   352 1.00D-06 EigRej= -1.00D+00 NBFU=   352
 The nuclear repulsion energy is now       480.5312957618 hartrees.
 Initial guess from the checkpoint file:  "checkpoint.chk"
 B after Tr=     0.006850   -0.010583    0.000740
         Rot=    0.999993    0.002451    0.001616    0.002520 Ang=   0.44 deg.
 Requested convergence on RMS density matrix=1.00D-08 within 128 cycles.
 Requested convergence on MAX density matrix=1.00D-06.
 Requested convergence on             energy=1.00D-06.
 No special actions if energy rises.
 SCF Done:  E(RB3LYP) =  -439.138976011     A.U. after   10 cycles
            NFock= 10  Conv=0.78D-08     -V/T= 2.0049
   1 Symmetry operations used in ECPInt.
 ECPInt:  NShTT=    9591 NPrTT=   29644 LenC2=    9331 LenP2D=   22708.
 LDataN:  DoStor=T MaxTD1= 7 Len=  274
 Calling FoFJK, ICntrl=      2127 FMM=F ISym2X=0 I1Cent= 0 IOpClX= 0 NMat=1 NMatS=1 NMatT=0.
 -------------------------------------------------------------------
 Center     Atomic                   Forces (Hartrees/Bohr)
 Number     Number              X              Y              Z
 -------------------------------------------------------------------
      1        1           0.000811386   -0.000569263    0.000001033
      2        7          -0.000776121    0.000685383   -0.000007899
      3        6           0.000057333   -0.000323710   -0.000022865
      4        6          -0.000094068    0.000182880   -0.000015310
      5        1          -0.000000288    0.000016998    0.000002250
      6        6           0.000299822    0.000053445    0.000016493
      7        6          -0.000286659   -0.000043112    0.000025797
      8        6           0.000025547    0.000018482   -0.000003242
      9        1           0.000015455    0.000003023   -0.000005416
     10        1          -0.000000055   -0.000004338   -0.000002570
     11        1          -0.000018042   -0.000005351    0.000000274
     12        6          -0.000015761   -0.000016410    0.000013761
     13        1          -0.000000991    0.000000394    0.000001136
     14        6          -0.000019223   -0.000008371   -0.000009052
     15        1          -0.000001480   -0.000000056    0.000000148
     16        6          -0.000004536    0.000014518   -0.000004968
     17        8           0.000007680   -0.000004512    0.000010429
 -------------------------------------------------------------------
 Cartesian Forces:  Max     0.000811386 RMS     0.000216345
 -----------------------------------------------------------------------------------------------
                       Internal Coordinate Forces (Hartree/Bohr or radian)
  Cent   Atom   N1       Length/X         N2         Alpha/Y        N3         Beta/Z          J
 -----------------------------------------------------------------------------------------------
      1  H 
      2  N        1  -0.000001(     1)
      3  C        2   0.000299(     2)      1  -0.001388(    17)
      4  C        2   0.000326(     3)      1  -0.001393(    18)      3  -0.000534(    32)     0
      5  H        3   0.000001(     4)      2   0.000002(    19)      1  -0.000056(    33)     0
      6  C        3  -0.000084(     5)      2   0.000821(    20)      5  -0.000086(    34)     0
      7  C        4  -0.000064(     6)      2   0.000833(    21)      1  -0.000042(    35)     0
      8  C        4   0.000006(     7)      2  -0.000043(    22)      7   0.000004(    36)     0
      9  H        6   0.000005(     8)      3  -0.000032(    23)      2   0.000002(    37)     0
     10  H        8   0.000001(     9)      4   0.000003(    24)      2   0.000043(    38)     0
     11  H        7   0.000008(    10)      4  -0.000021(    25)      2   0.000023(    39)     0
     12  C        8   0.000035(    11)      4   0.000070(    26)     10   0.000034(    40)     0
     13  H       12   0.000000(    12)      8   0.000002(    27)      4   0.000031(    41)     0
     14  C       12  -0.000008(    13)      8   0.000030(    28)     13   0.000033(    42)     0
     15  H       14   0.000001(    14)     12  -0.000002(    29)      8   0.000017(    43)     0
     16  C       14   0.000006(    15)     12  -0.000013(    30)     15   0.000019(    44)     0
     17  O       16   0.000014(    16)     14   0.000002(    31)     12   0.000000(    45)     0
 -----------------------------------------------------------------------------------------------
 Internal  Forces:  Max     0.001393052 RMS     0.000357657

 GradGradGradGradGradGradGradGradGradGradGradGradGradGradGradGradGradGrad
 Berny optimization.
 Search for a saddle point.
 Step number   3 out of a maximum of   55
 All quantities printed in internal units (Hartrees-Bohrs-Radians)
 Swapping is turned off.
 Update second derivatives using D2CorN and points    1    2    3
 ITU=  0  0  0
     Eigenvalues ---   -0.24533  -0.00143   0.01813   0.01907   0.03184
     Eigenvalues ---    0.03364   0.04084   0.04953   0.06012   0.09959
     Eigenvalues ---    0.10908   0.11745   0.14792   0.16594   0.17452
     Eigenvalues ---    0.17963   0.18494   0.20995   0.23478   0.27253
     Eigenvalues ---    0.30718   0.32261   0.33386   0.34728   0.35194
     Eigenvalues ---    0.35387   0.35746   0.37198   0.37331   0.37627
     Eigenvalues ---    0.39430   0.42189   0.44541   0.46953   0.48183
     Eigenvalues ---    0.49873   0.52292   0.59042   0.82368   0.92586
     Eigenvalues ---    1.16880   1.52967   2.04413   2.27871  15.95738
 Eigenvectors required to have negative eigenvalues:
                          A17       D11       A12       D8        R16
   1                    0.60461   0.45424   0.27537  -0.22444  -0.21691
                          A16       A11       A8        A14       R17
   1                    0.20374   0.17993  -0.17843   0.15823  -0.13962
 RFO step:  Lambda0=8.629589487D-09 Lambda=-1.47231672D-03.
 Linear search not attempted -- option 19 set.
 Maximum step size (   0.100) exceeded in Quadratic search.
    -- Step size scaled by   0.400
 Variable       Old X    -DE/DX   Delta X   Delta X   Delta X     New X
                                 (Linear)    (Quad)   (Total)
    R2        1.90193  -0.00000   0.00000  -0.00032  -0.00032   1.90161
    R3        2.62460   0.00030   0.00000  -0.00111  -0.00111   2.62349
    R4        2.56860   0.00033   0.00000  -0.00061  -0.00061   2.56800
    R5        2.03488   0.00000   0.00000  -0.00003  -0.00003   2.03485
    R6        2.56602  -0.00008   0.00000   0.00051   0.00051   2.56653
    R7        2.67354  -0.00006   0.00000   0.00031   0.00031   2.67385
    R8        2.68109   0.00001   0.00000   0.00015   0.00015   2.68124
    R9        2.03476   0.00001   0.00000  -0.00004  -0.00004   2.03472
   R10        2.04410   0.00000   0.00000   0.00002   0.00002   2.04412
   R11        2.04611   0.00001   0.00000   0.00003   0.00003   2.04614
   R12        2.58142   0.00003   0.00000  -0.00007  -0.00007   2.58134
   R13        2.04895   0.00000   0.00000  -0.00001  -0.00001   2.04894
   R14        2.68242  -0.00001   0.00000   0.00027   0.00027   2.68269
   R15        2.05224   0.00000   0.00000   0.00006   0.00006   2.05230
   R16        2.59486   0.00001   0.00000   0.00024   0.00024   2.59510
   R17        2.23054   0.00001   0.00000   0.00029   0.00029   2.23083
    A3        2.18267  -0.00139   0.00000   0.00469   0.00469   2.18737
    A4        2.16760  -0.00139   0.00000   0.00350   0.00350   2.17110
    A5        2.10444   0.00000   0.00000   0.00043   0.00043   2.10487
    A6        1.89431   0.00082   0.00000  -0.00050  -0.00050   1.89382
    A7        1.86972   0.00083   0.00000  -0.00054  -0.00054   1.86917
    A8        2.21048  -0.00004   0.00000   0.00070   0.00070   2.21118
    A9        2.19838  -0.00003   0.00000  -0.00034  -0.00034   2.19804
   A10        2.11012   0.00000   0.00000   0.00025   0.00025   2.11037
   A11        2.10160  -0.00002   0.00000  -0.00078  -0.00078   2.10083
   A12        2.06219   0.00007   0.00000  -0.00034  -0.00034   2.06186
   A13        2.04707   0.00000   0.00000   0.00021   0.00021   2.04728
   A14        2.22522   0.00003   0.00000  -0.00034  -0.00034   2.22487
   A15        2.05988  -0.00000   0.00000  -0.00037  -0.00037   2.05952
   A16        2.23470  -0.00001   0.00000   0.00026   0.00026   2.23496
   A17        2.53035   0.00000   0.00000  -0.00080  -0.00080   2.52955
    D4       -2.98908  -0.00053   0.00000  -0.06783  -0.06783  -3.05691
    D5        0.12005  -0.00006   0.00000  -0.05418  -0.05418   0.06587
    D6        3.14622  -0.00009   0.00000   0.00537   0.00537   3.15158
    D7        3.01313  -0.00004   0.00000   0.04795   0.04795   3.06108
    D8       -2.98720   0.00000   0.00000   0.00108   0.00108  -2.98611
    D9       -3.11322   0.00000   0.00000  -0.00635  -0.00635  -3.11957
   D10       -0.49945   0.00004   0.00000  -0.00299  -0.00299  -0.50244
   D11        2.54311   0.00002   0.00000   0.00605   0.00605   2.54915
   D12        2.98763   0.00003   0.00000   0.00025   0.00025   2.98788
   D13       -3.05835   0.00003   0.00000  -0.00058  -0.00058  -3.05893
   D14        3.04637   0.00003   0.00000  -0.00041  -0.00041   3.04597
   D15       -2.86227   0.00002   0.00000   0.00183   0.00183  -2.86045
   D16        2.89268   0.00002   0.00000  -0.00075  -0.00075   2.89193
   D17        3.11169   0.00000   0.00000  -0.00183  -0.00183   3.10986
         Item               Value     Threshold  Converged?
 Maximum Force            0.001393     0.000450     NO 
 RMS     Force            0.000358     0.000300     NO 
 Maximum Displacement     0.067832     0.001800     NO 
 RMS     Displacement     0.014907     0.001200     NO 
 Predicted change in Energy=-3.098247D-05
 GradGradGradGradGradGradGradGradGradGradGradGradGradGradGradGradGradGrad

 ---------------------------------------------------------------------------------------------------
                            Z-MATRIX (ANGSTROMS AND DEGREES)
   CD    Cent   Atom    N1       Length/X        N2       Alpha/Y        N3        Beta/Z          J
 ---------------------------------------------------------------------------------------------------
      1      1  H 
      2      2  N        1   1.006289(     1)
      3      3  C        2   1.388289(     2)      1  125.327(    17)
      4      4  C        2   1.358925(     3)      1  124.395(    18)      3 -175.148(    32)      0
      5      5  H        3   1.076797(     4)      2  120.600(    19)      1    3.774(    33)      0
      6      6  C        3   1.358151(     5)      2  108.508(    20)      5  180.572(    34)      0
      7      7  C        4   1.414942(     6)      2  107.096(    21)      1  175.387(    35)      0
      8      8  C        4   1.418851(     7)      2  126.691(    22)      7 -171.092(    36)      0
      9      9  H        6   1.076728(     8)      3  125.939(    23)      2 -178.738(    37)      0
     10     10  H        8   1.081702(     9)      4  120.915(    24)      2  -28.788(    38)      0
     11     11  H        7   1.082771(    10)      4  120.368(    25)      2  146.056(    39)      0
     12     12  C        8   1.365988(    11)      4  118.136(    26)     10  171.193(    40)      0
     13     13  H       12   1.084252(    12)      8  117.300(    27)      4 -175.264(    41)      0
     14     14  C       12   1.419618(    13)      8  127.476(    28)     13  174.521(    42)      0
     15     15  H       14   1.086029(    14)     12  118.002(    29)      8 -163.891(    43)      0
     16     16  C       14   1.373269(    15)     12  128.054(    30)     15  165.695(    44)      0
     17     17  O       16   1.180503(    16)     14  144.933(    31)     12  178.182(    45)      0
 ---------------------------------------------------------------------------------------------------
                         Z-Matrix orientation:                         
 ---------------------------------------------------------------------
 Center     Atomic      Atomic             Coordinates (Angstroms)
 Number     Number       Type             X           Y           Z
 ---------------------------------------------------------------------
      1          1           0        0.000000    0.000000    0.000000
      2          7           0        0.000000    0.000000    1.006289
      3          6           0        1.132660    0.000000    1.809052
      4          6           0       -1.117318   -0.094840    1.773937
      5          1           0        2.114641    0.061008    1.371467
      6          6           0        0.741819   -0.097610    3.106083
      7          6           0       -0.691346   -0.167841    3.121259
      8          6           0       -2.445745   -0.293123    1.316659
      9          1           0        1.392933   -0.102916    3.963617
     10          1           0       -2.756067    0.057757    0.341640
     11          1           0       -1.285336    0.279728    3.908184
     12          6           0       -3.268661   -1.094381    2.056062
     13          1           0       -4.254510   -1.300302    1.654439
     14          6           0       -2.951462   -1.787474    3.253694
     15          1           0       -3.617363   -2.583434    3.573820
     16          6           0       -1.766608   -1.779449    3.947902
     17          8           0       -1.205331   -2.180411    4.905913
 ---------------------------------------------------------------------
                    Distance matrix (angstroms):
                    1          2          3          4          5
     1  H    0.000000
     2  N    1.006289   0.000000
     3  C    2.134382   1.388289   0.000000
     4  C    2.098629   1.358925   2.252249   0.000000
     5  H    2.521180   2.146808   1.076797   3.260649   0.000000
     6  C    3.194930   2.229117   1.358151   2.287141   2.217814
     7  C    3.201311   2.231419   2.253232   1.414942   3.314771
     8  C    2.793060   2.482725   3.623997   1.418851   4.574444
     9  H    4.202513   3.270573   2.172667   3.331085   2.695733
    10  H    2.777761   2.835666   4.156781   2.181801   4.978388
    11  H    4.123620   3.186116   3.214235   2.173372   4.247661
    12  C    4.013628   3.603310   4.542060   2.388924   5.548292
    13  H    4.746453   4.495747   5.544032   3.362944   6.519151
    14  C    4.742648   4.117890   4.686374   2.901513   5.711835
    15  H    5.703651   5.133387   5.687816   3.960165   6.685754
    16  C    4.676887   3.865286   4.018317   2.825883   5.008932
    17  O    5.502272   4.627535   4.450948   3.763858   5.342142
                    6          7          8          9         10
     6  C    0.000000
     7  C    1.434964   0.000000
     8  C    3.660714   2.519960   0.000000
     9  H    1.076728   2.249000   4.666692   0.000000
    10  H    4.461109   3.469907   1.081702   5.509876   0.000000
    11  H    2.212489   1.082771   2.896672   2.706034   3.864267
    12  C    4.263806   2.938653   1.365988   5.133443   2.128243
    13  H    5.340135   4.016239   2.097650   6.217689   2.411037
    14  C    4.064203   2.783680   2.498187   4.713332   3.452986
    15  H    5.039897   3.821189   3.422424   5.604283   4.262008
    16  C    3.135194   2.106373   3.097391   3.576830   4.166471
    17  O    3.371770   2.738541   4.240663   3.457584   5.314768
                   11         12         13         14         15
    11  H    0.000000
    12  C    3.041728   0.000000
    13  H    4.048686   1.084252   0.000000
    14  C    2.734530   1.419618   2.119643   0.000000
    15  H    3.707809   2.154637   2.395080   1.086029   0.000000
    16  C    2.115043   2.510884   3.417486   1.373269   2.052224
    17  O    2.655964   3.682179   4.543585   2.435816   2.784744
                   16         17
    16  C    0.000000
    17  O    1.180503   0.000000
 Symmetry turned off by external request.
 Stoichiometry    C8H7NO
 Framework group  C1[X(C8H7NO)]
 Deg. of freedom    45
 Full point group                 C1      NOp   1
 Rotational constants (GHZ):           2.1614954           1.3614651           0.8760520
 Standard basis: def2TZVP (5D, 7F)
 The following finite field(s) will be applied:
 An electric field of             -0.0015 -0.0003  0.0020
   352 basis functions,   566 primitive gaussians,   402 cartesian basis functions
    35 alpha electrons       35 beta electrons
       nuclear repulsion energy       479.7803615723 Hartrees.
 NAtoms=   17 NActive=   17 NUniq=   17 SFac= 1.00D+00 NAtFMM=   60 NAOKFM=F Big=F
 Integral buffers will be    131072 words long.
 Raffenetti 2 integral format.
 Two-electron integral symmetry is turned off.
 One-electron integrals computed using PRISM.
   1 Symmetry operations used in ECPInt.
 ECPInt:  NShTT=    9591 NPrTT=   29644 LenC2=    9331 LenP2D=   22709.
 LDataN:  DoStor=T MaxTD1= 6 Len=  172
 NBasis=   352 RedAO= T EigKep=  3.64D-05  NBF=   352
 NBsUse=   352 1.00D-06 EigRej= -1.00D+00 NBFU=   352
 The nuclear repulsion energy is now       480.7223807941 hartrees.
 Initial guess from the checkpoint file:  "checkpoint.chk"
 B after Tr=    -0.001749   -0.054677    0.004117
         Rot=    0.999653    0.018826    0.000658    0.018402 Ang=   3.02 deg.
 ExpMin= 9.52D-02 ExpMax= 2.70D+04 ExpMxC= 9.22D+02 IAcc=2 IRadAn=         4 AccDes= 0.00D+00
 Harris functional with IExCor=  402 and IRadAn=       4 diagonalized for initial guess.
 HarFok:  IExCor=  402 AccDes= 0.00D+00 IRadAn=         4 IDoV= 1 UseB2=F ITyADJ=14
 ICtDFT=  3500011 ScaDFX=  1.000000  1.000000  1.000000  1.000000
 FoFCou: FMM=F IPFlag=           0 FMFlag=      100000 FMFlg1=           0
         NFxFlg=           0 DoJE=T BraDBF=F KetDBF=T FulRan=T
         wScrn=  0.000000 ICntrl=       500 IOpCl=  0 I1Cent=   200000004 NGrid=           0
         NMat0=    1 NMatS0=      1 NMatT0=    0 NMatD0=    1 NMtDS0=    0 NMtDT0=    0
 Symmetry not used in FoFCou.
 Requested convergence on RMS density matrix=1.00D-08 within 128 cycles.
 Requested convergence on MAX density matrix=1.00D-06.
 Requested convergence on             energy=1.00D-06.
 No special actions if energy rises.
 Integral accuracy reduced to 1.0D-05 until final iterations.
 Initial convergence to 1.0D-05 achieved.  Increase integral accuracy.
 SCF Done:  E(RB3LYP) =  -439.138927520     A.U. after   11 cycles
            NFock= 11  Conv=0.61D-08     -V/T= 2.0049
   1 Symmetry operations used in ECPInt.
 ECPInt:  NShTT=    9591 NPrTT=   29644 LenC2=    9331 LenP2D=   22709.
 LDataN:  DoStor=T MaxTD1= 7 Len=  274
 Calling FoFJK, ICntrl=      2127 FMM=F ISym2X=0 I1Cent= 0 IOpClX= 0 NMat=1 NMatS=1 NMatT=0.
 -------------------------------------------------------------------
 Center     Atomic                   Forces (Hartrees/Bohr)
 Number     Number              X              Y              Z
 -------------------------------------------------------------------
      1        1           0.000873947   -0.001246956   -0.000006084
      2        7          -0.000801905    0.002186462    0.000757014
      3        6           0.000935186   -0.000698343   -0.000669054
      4        6          -0.000905826   -0.000224925   -0.000393406
      5        1           0.000007792    0.000040865    0.000011701
      6        6           0.004477235    0.000101895    0.000277030
      7        6          -0.004417593    0.000035484    0.000070650
      8        6           0.000000822   -0.000057446    0.000030962
      9        1           0.000222097    0.000036819   -0.000072674
     10        1          -0.000025555    0.000003067    0.000006082
     11        1          -0.000258934   -0.000102921   -0.000019602
     12        6           0.000030346   -0.000009234   -0.000058720
     13        1          -0.000005103    0.000009129    0.000006176
     14        6           0.000093092   -0.000029295   -0.000027119
     15        1           0.000002189    0.000030053    0.000041333
     16        6          -0.000297584   -0.000060519    0.000179046
     17        8           0.000069794   -0.000014134   -0.000133336
 -------------------------------------------------------------------
 Cartesian Forces:  Max     0.004477235 RMS     0.001001086
 -----------------------------------------------------------------------------------------------
                       Internal Coordinate Forces (Hartree/Bohr or radian)
  Cent   Atom   N1       Length/X         N2         Alpha/Y        N3         Beta/Z          J
 -----------------------------------------------------------------------------------------------
      1  H 
      2  N        1   0.000006(     1)
      3  C        2   0.004341(     2)      1  -0.021619(    17)
      4  C        2   0.004559(     3)      1  -0.021559(    18)      3  -0.000657(    32)     0
      5  H        3   0.000005(     4)      2   0.000025(    19)      1   0.000185(    33)     0
      6  C        3  -0.001167(     5)      2   0.012153(    20)      5   0.000113(    34)     0
      7  C        4  -0.001356(     6)      2   0.012354(    21)      1   0.000164(    35)     0
      8  C        4   0.000127(     7)      2  -0.000277(    22)      7  -0.000245(    36)     0
      9  H        6   0.000076(     8)      3  -0.000454(    23)      2   0.000030(    37)     0
     10  H        8   0.000003(     9)      4   0.000048(    24)      2  -0.000112(    38)     0
     11  H        7   0.000085(    10)      4  -0.000319(    25)      2   0.000381(    39)     0
     12  C        8   0.000112(    11)      4   0.000762(    26)     10  -0.000091(    40)     0
     13  H       12   0.000001(    12)      8   0.000002(    27)      4  -0.000124(    41)     0
     14  C       12   0.000057(    13)      8   0.000600(    28)     13  -0.000102(    42)     0
     15  H       14  -0.000011(    14)     12   0.000060(    29)      8  -0.000064(    43)     0
     16  C       14  -0.000174(    15)     12   0.000244(    30)     15   0.000009(    44)     0
     17  O       16  -0.000070(    16)     14   0.000195(    31)     12   0.000130(    45)     0
 -----------------------------------------------------------------------------------------------
 Internal  Forces:  Max     0.021619331 RMS     0.005328360

 GradGradGradGradGradGradGradGradGradGradGradGradGradGradGradGradGradGrad
 Berny optimization.
 Search for a saddle point.
 Step number   4 out of a maximum of   55
 All quantities printed in internal units (Hartrees-Bohrs-Radians)
 Swapping is turned off.
 Update second derivatives using D2CorN and points    1    2    3    4
 ITU=  0  0  0  0
     Eigenvalues ---   -0.24540   0.01092   0.01813   0.01907   0.03200
     Eigenvalues ---    0.03542   0.04087   0.04963   0.06012   0.09958
     Eigenvalues ---    0.10906   0.11744   0.14797   0.16594   0.17452
     Eigenvalues ---    0.17964   0.18495   0.20995   0.23477   0.27256
     Eigenvalues ---    0.30725   0.32259   0.33411   0.34729   0.35194
     Eigenvalues ---    0.35386   0.35749   0.37198   0.37331   0.37627
     Eigenvalues ---    0.39430   0.42189   0.44540   0.46952   0.48184
     Eigenvalues ---    0.49874   0.52293   0.59042   0.82370   0.92588
     Eigenvalues ---    1.16881   1.52967   2.04413   2.27871  15.95984
 Eigenvectors required to have negative eigenvalues:
                          A17       D11       A12       D8        R16
   1                    0.60453   0.45435   0.27532  -0.22453  -0.21692
                          A16       A11       A8        A14       R17
   1                    0.20369   0.17995  -0.17839   0.15823  -0.13962
 RFO step:  Lambda0=3.030852713D-08 Lambda=-1.50428446D-04.
 Linear search not attempted -- option 19 set.
 Variable       Old X    -DE/DX   Delta X   Delta X   Delta X     New X
[...]
   zz         0.131603D+03      0.195015D+02      0.216984D+02

 ----------------------------------------------------------------------
 1\1\GINC-BHC0105\Freq\RB3LYP\def2TZVP\C8H7N1O1\DHANAWAY\10-Jun-2022\1\
 \#N Geom=AllCheck Guess=TCheck SCRF=Check GenChk RB3LYP/def2TZVP Freq\
 \ts_zmat_initalOpt\\0,1\H\N,1,R2\C,2,R3,1,A3\C,2,R4,1,A4,3,D4,0\H,3,R5
 ,2,A5,1,D5,0\C,3,R6,2,A6,5,D6,0\C,4,R7,2,A7,1,D7,0\C,4,R8,2,A8,7,D8,0\
 H,6,R9,3,A9,2,D9,0\H,8,R10,4,A10,2,D10,0\H,7,R11,4,A11,2,D11,0\C,8,R12
 ,4,A12,10,D12,0\H,12,R13,8,A13,4,D13,0\C,12,R14,8,A14,13,D14,0\H,14,R1
 5,12,A15,8,D15,0\C,14,R16,12,A16,15,D16,0\O,16,R17,14,A17,12,D17,0\\R2
 =1.00641215\R3=1.38874697\R4=1.35923138\R5=1.07680884\R6=1.35794269\R7
 =1.41478581\R8=1.41882063\R9=1.07674358\R10=1.08169264\R11=1.08276376\
 R12=1.3660092\R13=1.08425567\R14=1.41950705\R15=1.08599695\R16=1.37314
 933\R17=1.18036904\A3=125.11904341\A4=124.23839132\A5=120.58180308\A6=
 108.53112549\A7=107.12030707\A8=126.65659716\A9=125.95348927\A10=120.9
 070088\A11=120.40220937\A12=118.15216787\A13=117.29024181\A14=127.4925
 0541\A15=118.02279187\A16=128.04195792\A17=144.9748455\D4=-172.5481018
 1\D5=5.92808817\D6=180.2861561\D7=173.54027753\D8=-171.11371388\D9=-17
 8.48008122\D10=-28.70009017\D11=145.83817206\D12=171.19436042\D13=-175
 .25473975\D14=174.54557409\D15=-164.00229867\D16=165.75056875\D17=178.
 3156108\\Version=ES64L-G16RevA.03\HF=-439.1389809\RMSD=4.227e-09\RMSF=
 2.659e-04\ZeroPoint=0.129955\Thermal=0.1375553\Dipole=0.504704,0.72965
 25,-1.7086239\DipoleDeriv=0.1555043,-0.006275,-0.0387245,-0.00688,0.30
 25329,-0.0484052,-0.0558081,-0.0307274,0.2541544,-0.4870064,-0.2269516
 ,0.0823066,-0.1006601,-0.2214214,0.0725623,0.3493259,0.1527736,-0.5178
 718,0.0177569,-0.065591,0.2323114,-0.0017418,-0.1274751,-0.0361309,0.0
 944511,0.0508828,0.1835362,0.6050748,0.2110421,-0.2229199,0.1367236,0.
 0464657,0.0116536,-0.3077526,-0.18347,0.4675093,0.0214334,-0.0145903,0
 .0235054,-0.0015048,0.1846607,0.0211379,0.0355181,0.0118548,0.0660857,
 0.0084914,0.0614004,-0.0322359,-0.0347288,-0.241844,-0.0433343,0.03140
 61,-0.0254694,-0.0379267,-0.0408832,-0.1847352,0.2083943,-0.1541023,-0
 .3706632,0.4429065,0.1167933,0.2549803,-0.4856677,-0.4022171,-0.132655
 7,0.2078812,-0.1530716,-0.3897036,0.1145231,0.053759,0.0101313,-0.1653
 098,0.0208204,-0.0234397,-0.0440944,0.0051035,0.1542439,0.0185321,-0.0
 583124,0.0002808,0.0367252,0.0244179,-0.0334293,-0.0336698,0.011518,0.
 1340369,0.0690892,-0.0398449,0.0905479,-0.0324052,0.0381814,0.0204534,
 0.0194797,0.0672472,0.1835805,-0.118229,0.0198321,-0.0061953,0.0814659
 ,0.1495865,0.0704924,0.0566319,0.141543,0.2725771,-0.4294284,-0.240464
 6,-0.4762349,0.4730275,-0.0794247,-0.0423422,-0.0721862,-0.028845,0.09
 91442,0.0050074,-0.0518956,0.0038617,0.0778502,-0.3970879,0.3332706,-0
 .424852,-0.1053027,-0.3351014,0.0727517,0.1871342,0.3626544,-0.7613706
 ,-0.0247346,-0.1377206,0.0311566,-0.0798022,0.0252628,0.1023576,-0.032
 2839,0.0659378,0.0947242,0.8308584,-0.1715406,0.6118887,0.3347638,1.00
 24673,-0.8634879,0.1389136,-1.1961473,1.8383755,-0.4407715,0.3426124,-
 0.6048731,-0.0302597,-0.7187633,0.6084942,-0.2407712,0.9143388,-1.5729
 023\Polar=128.6830101,22.0219394,83.3329293,-0.6191733,-26.3321381,112
 .2488452\PG=C01 [X(C8H7N1O1)]\NImag=1\\0.06099750,0.00329309,0.0117283
 0,-0.00106397,-0.00092782,0.46978840,-0.07423699,-0.00675529,-0.001061
 91,0.59966474,-0.00509840,-0.00633762,0.00151985,0.04291698,0.08324396
 ,-0.00051361,-0.00303871,-0.45229986,-0.00811326,-0.02594318,0.9301173
 0,0.01175663,0.00184827,0.00447235,-0.21858001,-0.00479037,-0.07656714
 ,0.75516594,0.00055746,-0.00707771,-0.00008066,0.00131329,-0.04750041,
 0.00218608,0.05235723,0.12513773,-0.02493004,0.00152598,-0.00754475,-0
 .06335084,-0.00212361,-0.16544604,-0.15475047,-0.05893991,0.68852022,0
 .01070506,0.00197042,-0.00232021,-0.23827641,-0.01237091,0.07936439,-0
 .08876119,-0.00658587,-0.01226386,0.75101728,0.00156395,-0.00462870,-0
 .00015617,-0.02752711,-0.06257647,0.01509682,-0.00639487,0.01041645,0.
 00217007,0.07662076,0.18714277,0.02755336,0.00375474,-0.01148641,0.081
 66926,0.01680620,-0.19137570,0.01622586,0.00344394,0.01784415,0.054169
 71,-0.02908846,0.60705967,0.00001524,0.00012178,-0.00013460,-0.0179593
 3,-0.00154761,0.01174184,-0.30138087,-0.02576777,0.10881340,-0.0008947
 0,-0.00012419,-0.00384177,0.31865944,0.00004856,-0.00094523,-0.0000731
 6,0.00041910,-0.00235940,-0.00034202,-0.02644301,-0.02926636,0.0141497
 6,0.00075636,0.00189332,-0.00020190,0.02760970,0.02310836,0.00083053,-
 0.00008265,0.00053334,-0.02347390,-0.00234147,0.01249524,0.11769003,0.
 01529208,-0.11267462,-0.00255325,0.00022216,-0.00431960,-0.11748040,-0
 .01505651,0.10568875,-0.00589328,0.00149153,-0.00183332,-0.00157521,-0
 .00238403,-0.01423848,-0.12932627,-0.01369006,0.07624861,-0.02871532,0
 .00094730,-0.04337102,0.00147158,-0.00247917,0.02389093,0.59264158,0.0
 0003510,0.00188022,-0.00029045,0.00343833,0.01348502,0.00664967,-0.013
 68172,-0.06715069,0.03255703,-0.00087142,0.00890098,-0.00170227,0.0000
 4575,0.00252725,0.00177679,0.02301641,0.12729480,-0.00427119,-0.001181
 31,0.00056580,-0.04931677,0.00640968,-0.07690494,0.09314549,0.03414669
 ,-0.38663672,-0.01962248,-0.00104188,-0.01363574,-0.00058123,0.0004024
 5,0.00160788,0.10895399,-0.04243250,0.81817765,-0.00575908,-0.00274908
 ,0.00237424,-0.01830076,-0.00191128,0.00984516,-0.03021840,-0.00592493
 ,0.07088454,-0.11604726,0.00994612,-0.07660888,0.00067790,0.00031044,0
 .00150992,-0.23814230,-0.01324344,-0.01244758,0.56482978,-0.00106482,0
 .00512775,-0.00082168,-0.01692172,0.01274448,0.00396064,-0.00140835,0.
 01159574,0.02339459,-0.01297264,-0.06891421,-0.02571551,0.00015422,0.0
 0694703,0.00059749,0.01276444,-0.06118466,-0.01102166,-0.07937782,0.13
 116991,0.00392405,0.00030532,0.00027029,0.04468096,0.00757706,-0.06688
 508,0.01970251,0.00468152,-0.02136678,-0.04279294,0.00788752,-0.257042
 25,0.00008709,0.00160411,-0.00500055,-0.00975217,-0.00288289,-0.093818
 98,-0.06671003,0.09132049,0.65716503,0.00162073,0.00049002,-0.00140471
 ,-0.04621536,-0.01693173,0.00637765,0.00578847,-0.00150805,0.00186855,
 -0.24232248,-0.02597557,-0.05276440,-0.00057937,-0.00036208,-0.0008442
 5,-0.00408520,0.00029500,-0.00165272,-0.00229429,0.02373287,-0.0301283
 3,0.57645692,0.00040863,-0.00250366,-0.00112665,-0.00719174,-0.0015546
 4,0.00290646,-0.00178584,0.00235585,-0.00599642,-0.01992600,-0.0612933
 4,0.01431523,-0.00044798,0.00155400,-0.00028001,-0.00594712,0.00219740
 ,0.00343176,0.00946848,0.01907390,-0.01115863,0.15085810,0.30526053,-0
 .00060807,-0.00069844,0.00147646,0.02601765,0.00109295,0.01840845,0.00
 316944,0.00118908,-0.00378151,-0.08389466,0.00208269,-0.13711882,0.000
 99736,-0.00000267,0.00122369,0.00076694,0.00045309,-0.00580679,-0.0318
 2054,-0.00543316,-0.00187724,0.06636377,-0.24503430,0.59956507,0.00082
 021,-0.00014250,0.00027957,0.00039209,-0.00070740,0.00365601,0.0104515
 6,0.00014918,0.00858561,-0.00591569,-0.00076576,0.00161210,-0.00004434
 ,0.00033447,-0.00078091,-0.16710481,-0.00043105,-0.14561398,-0.0066772
 0,0.00088746,-0.02254619,0.00020443,0.00018578,-0.00134794,0.16719987,
 0.00025974,0.00193486,0.00024178,-0.00184216,0.00567094,0.00094228,0.0
 0219640,0.00028007,0.00315754,-0.00043172,0.00257382,-0.00035260,0.000
 17192,-0.00366784,-0.00033629,0.00196886,-0.02773703,0.00387013,-0.002
 85748,-0.00225650,-0.00274237,0.00015296,0.00122511,-0.00037231,0.0000
 6325,0.02182927,-0.00110133,0.00029944,-0.00002957,0.00170233,0.000623
 66,-0.00455697,-0.01954433,-0.00082024,-0.01173477,0.00232921,0.000647
 42,-0.00029135,0.00046559,-0.00023738,0.00048364,-0.14219761,0.0048256
 8,-0.24590336,0.00290311,-0.00043795,0.00759470,-0.00006294,0.00005993
 ,0.00040643,0.15602337,-0.00485160,0.25409614,-0.00082094,0.00023923,0
 .00019941,0.00279697,-0.00042289,0.00120705,-0.00065710,0.00007840,-0.
 00108945,-0.00167215,0.01048328,-0.02503945,-0.00000145,-0.00005982,0.
 00002992,-0.00102715,-0.00015494,-0.00108088,-0.00290662,0.00088355,-0
 .00086519,-0.08266682,0.01934379,-0.08044202,-0.00036932,-0.00023393,0
 .00013274,0.07939392,0.00035700,0.00032120,0.00043277,0.00139710,-0.00
 044295,-0.00142399,-0.00001767,-0.00033802,0.00032676,-0.00822723,0.00
 188092,-0.01052291,0.00001777,-0.00002385,0.00002143,0.00032955,0.0001
 8217,-0.00066527,-0.00291564,-0.00036651,0.00231360,0.02638908,-0.0604
 1106,0.09462716,-0.00020557,0.00009591,-0.00001930,-0.01977899,0.06549
 293,-0.00056415,0.00021562,0.00003290,0.00085321,-0.00041235,0.0001512
 7,-0.00077594,-0.00027799,-0.00010539,-0.00392580,0.00170709,-0.008402
 72,-0.00000682,0.00002853,0.00001019,0.00025475,-0.00004918,-0.0002956
 2,-0.00187329,-0.00021450,0.00252951,-0.07589643,0.09869587,-0.2737318
 6,-0.00016010,0.00005776,0.00007729,0.08648104,-0.10510935,0.28928547,
 0.00048889,0.00100637,-0.00000444,0.00182165,0.00242681,-0.00360174,-0
 .00707767,-0.00054102,-0.00193402,0.00821209,-0.00603014,-0.00317127,0
 .00016356,-0.00115185,0.00116839,-0.00997619,0.01017884,0.02342913,-0.
 13425891,0.06350830,0.11117253,-0.00075529,-0.00136600,0.00028096,0.00
 068997,-0.00087713,-0.00067182,-0.00015320,0.00035540,0.00018436,0.141
 00492,-0.00040312,0.00103884,0.00089388,0.00626762,0.00192601,0.002121
 98,-0.00306852,0.00194573,-0.00704933,0.00149256,-0.00174787,0.0165729
 8,-0.00023777,0.00052538,0.00051384,-0.01002591,-0.00111913,0.00732678
 ,0.08064073,-0.05174152,-0.10778242,-0.00537091,-0.00588514,0.00143594
 ,0.00023009,-0.00082536,-0.00021336,-0.00041412,0.00044002,0.00029494,
 -0.06463879,0.07301463,0.00093393,0.00059710,-0.00042515,-0.00360249,0
 .00011323,-0.00502703,-0.00079614,-0.00164941,0.00246030,0.01695656,-0
 .01031246,-0.01626538,0.00011054,-0.00041890,0.00016030,0.00055597,0.0
 0268387,0.00321033,0.11031251,-0.08673482,-0.20035226,0.00102210,0.002
 86169,-0.00032084,0.00055418,0.00048597,-0.00006914,-0.00016925,0.0001
 5424,0.00005692,-0.12697192,0.08938526,0.21659286,0.00002826,-0.000205
 87,0.00019280,0.00554303,0.00151613,-0.00644054,-0.00463995,0.00006613
 ,-0.00333051,-0.04858891,-0.02598594,0.01159251,-0.00018791,0.00001552
 ,-0.00028338,-0.00244832,0.00038113,0.00291752,0.00311933,-0.00220247,
 0.00304132,-0.19971022,-0.12886427,0.09583490,-0.00001756,0.00026470,0
 .00002928,0.00917816,0.00385999,-0.00684908,-0.00009535,-0.00086668,0.
 00066647,0.62484655,-0.00085216,-0.00025539,0.00059471,0.00498072,0.00
 588180,-0.00394083,-0.00105904,0.00120010,0.00462933,-0.03591674,-0.00
 890250,-0.01414978,0.00028672,0.00019401,0.00036464,0.00630036,-0.0002
 9817,-0.00000878,-0.00437635,-0.01688535,0.01221896,-0.11470156,-0.176
 77326,0.12524806,0.00028877,-0.00036288,-0.00008249,-0.00547052,-0.008
 88826,0.00316164,-0.00009645,0.00392305,-0.00067691,0.18776784,0.38241
 500,0.00030998,-0.00040812,-0.00132673,-0.00779354,-0.00395148,0.00648
 530,0.00005981,-0.00025189,-0.00756780,0.03680221,0.00189146,0.0380914
 9,-0.00050841,-0.00034764,-0.00069629,-0.01039682,0.00057770,0.0011464
 2,0.01056267,0.02530221,-0.01916613,0.04836451,0.09074140,-0.18108691,
 -0.00028638,0.00045149,0.00015544,0.01753794,0.02070036,-0.01092422,-0
 .00114068,-0.00787605,0.00118164,0.07472024,-0.21687790,0.48938008,-0.
 00000824,-0.00009134,-0.00007200,0.00006330,-0.00035168,-0.00021519,-0
 .00027977,0.00019511,-0.00021060,0.00080094,-0.00405833,0.00111435,-0.
 00003500,0.00020899,-0.00000417,-0.00030304,-0.00022189,0.00017863,0.0
 0038546,0.00073088,-0.00038784,-0.01495196,-0.00466709,-0.00794104,-0.
 00001340,0.00000732,-0.00000160,0.00011637,0.00204801,0.00115637,-0.00
 007242,-0.00011777,0.00005404,-0.27674273,-0.05480441,-0.09905129,0.29
 423415,-0.00001257,0.00009066,0.00000266,-0.00191117,0.00018855,-0.001
 75006,-0.00002938,-0.00022346,0.00126489,-0.00506021,0.00305992,0.0061
 9841,-0.00010179,-0.00014150,-0.00012452,0.00066345,0.00016889,-0.0004
 6955,-0.00024470,-0.00115570,0.00105919,-0.01872884,0.00085032,-0.0084
 6359,-0.00000842,-0.00005860,-0.00001759,0.00219606,-0.00320951,-0.002
 23629,0.00014868,0.00032850,-0.00020907,-0.05615111,-0.06105282,-0.011
 83013,0.06423417,0.05393593,-0.00000482,0.00013130,0.00001951,-0.00056
 393,-0.00007274,0.00003274,0.00028719,-0.00026806,0.00061670,0.0002650
 9,0.00504506,0.00079281,0.00001990,-0.00016101,-0.00000521,0.00057836,
 0.00008652,-0.00030189,-0.00030766,-0.00070971,0.00079325,0.01528347,0
 .00574157,0.00835633,0.00000175,-0.00003095,-0.00000736,0.00120786,-0.
 00261766,-0.00030952,0.00018759,0.00037115,-0.00011935,-0.09905984,-0.
 01511816,-0.09009985,0.10704546,0.00792505,0.09263657,-0.00069047,0.00
 034467,0.00067263,-0.00010143,0.00324470,-0.00451019,-0.00110361,0.000
 43162,0.00910013,-0.02565552,-0.00483476,-0.01991016,0.00027842,0.0006
 6384,0.00051056,0.01155757,-0.00153068,-0.00164088,-0.01907755,-0.0302
 9405,0.01847817,0.03728342,0.01505518,0.00555155,0.00028647,-0.0004353
 3,-0.00023224,0.00105135,-0.00566009,0.00029105,-0.00148825,0.00699498
 ,-0.00132649,-0.10296751,-0.02023113,-0.01424763,-0.00340102,0.0100581
 6,-0.02497636,0.49853411,-0.00005419,-0.00009617,-0.00034708,-0.007043
 39,-0.00135357,0.00207110,0.00150286,0.00009270,0.00460991,0.00728024,
 -0.00149776,-0.00358868,-0.00001510,0.00063418,0.00028043,0.00407626,-
 0.00360223,-0.00072996,-0.01794490,-0.00839131,0.00485291,-0.00657251,
 -0.01359689,0.02560554,-0.00008359,-0.00010033,-0.00012449,-0.00381253
 ,0.00392678,0.00291685,-0.00026272,0.00386470,-0.00128831,0.01665001,-
 0.12741499,0.11601767,-0.00340136,0.00637853,-0.00388756,0.14502895,0.
 38889133,-0.00057100,0.00033071,0.00063795,0.00363417,0.00117455,-0.00
 232193,0.00073375,0.00073343,0.00298596,-0.02078030,-0.00400824,-0.014
 06585,0.00013395,-0.00005484,0.00026439,0.00452001,0.00268354,-0.00046
 926,0.00238159,-0.01140589,0.00628930,0.02520002,0.04400420,-0.0254331
 1,0.00042196,-0.00016619,-0.00003030,0.00052292,0.00173645,0.00234920,
 -0.00061296,0.00231060,0.00067236,-0.05872701,0.08539751,-0.20375624,-
 0.00036816,0.00385845,-0.00964855,0.16305108,-0.22659267,0.47069123,-0
 .00019162,-0.00001910,-0.00006753,-0.00195008,0.00012346,0.00002611,0.
 00028167,0.00022078,0.00228084,-0.00192086,-0.00092142,-0.00411517,0.0
 0002664,0.00017914,0.00008221,0.00207480,-0.00077144,-0.00068664,-0.00
 333242,-0.00431510,0.00310845,0.00191465,0.00150648,-0.00387961,-0.000
 04734,-0.00010231,-0.00003822,0.00067530,-0.00017396,-0.00052530,0.000
 21416,0.00110747,-0.00045323,0.00730352,0.00514815,0.00054255,0.000162
 55,0.00147177,0.00113855,-0.14480982,-0.13046568,0.03662599,0.15407570
 ,0.00014530,0.00007251,0.00010899,0.00176175,0.00051915,-0.00076718,-0
 .00121251,-0.00025379,-0.00103477,-0.00149519,0.00087173,-0.00009770,0
 .00002308,0.00006333,0.00003556,-0.00037578,-0.00062744,0.00104730,-0.
 00105423,0.00158239,-0.00068496,0.00371382,0.00096214,0.00311793,-0.00
 005087,0.00000927,-0.00000837,-0.00077912,0.00017138,0.00056884,-0.000
 23146,0.00046191,0.00010031,-0.00994576,-0.01017900,0.00317566,0.00084
 638,-0.00044668,-0.00086579,-0.13576903,-0.19501609,0.06892524,0.14395
 687,0.20389866,0.00000049,0.00012339,0.00012758,0.00147926,0.00053941,
 -0.00078539,-0.00116840,-0.00018274,-0.00008486,-0.00351536,0.00077735
 ,-0.00149736,0.00005147,0.00012278,0.00008725,0.00077337,-0.00084927,0
 .00078624,-0.00358649,-0.00180646,0.00101042,0.00069366,0.00333076,-0.
 00069302,0.00000859,-0.00001129,-0.00003028,0.00068793,0.00016013,-0.0
 0068635,-0.00037035,0.00118081,0.00000689,0.01564704,0.01910617,-0.005
 85148,0.00069401,-0.00138354,-0.00002775,0.02926776,0.06369754,-0.0583
 0853,-0.03650755,-0.07594583,0.06219126,0.00162013,-0.00122225,-0.0006
 5937,0.00600403,-0.00484183,0.00133477,-0.00346982,-0.00118725,-0.0176
 4058,0.03872972,0.00601513,0.04254133,-0.00028796,0.00008732,-0.000375
 30,-0.02302557,-0.00876060,0.00988010,0.00338707,0.05510823,-0.0407830
 7,-0.03855852,-0.03684790,0.01570546,-0.00054120,0.00109031,0.00020472
 ,-0.00384713,0.00238998,0.00172759,0.00161520,-0.01345767,0.00296206,-
 0.01648433,0.05011616,-0.07200260,0.00008706,0.00381890,0.00006550,-0.
 21128188,-0.02760836,-0.10048144,-0.01639895,-0.00032461,-0.00409235,0
 .49790122,0.00140113,-0.00127274,0.00031729,0.01402324,-0.00253964,-0.
 00054497,0.00088695,-0.00131515,-0.02003209,0.02111124,-0.00455360,0.0
 3726009,-0.00014505,-0.00125893,-0.00105568,-0.02385256,0.00454878,0.0
 0320401,0.03871515,0.05197405,-0.03486106,-0.02041599,-0.01446897,0.00
 583396,0.00065218,0.00218220,0.00058043,-0.00297941,0.00201933,0.00117
 760,-0.00153470,-0.03127414,0.00226931,0.01757444,0.01607805,-0.025806
 27,-0.00104500,0.00204810,0.00570517,0.01560643,-0.06312724,0.02562285
 ,-0.01718636,-0.00217211,-0.00781818,-0.17262013,0.17224111,0.00000981
 ,-0.00062505,-0.00079349,-0.00922864,0.00032601,-0.00258145,-0.0037448
 6,0.00117495,0.01121069,-0.00194029,0.00422289,-0.02376971,0.00010541,
 0.00084841,0.00015230,0.01154940,-0.00477077,-0.00360921,-0.02631878,-
 0.02926355,0.01491232,0.00540288,-0.00217435,0.00508475,-0.00190089,-0
 .00134027,-0.00016965,0.00113972,-0.00110712,-0.00057539,0.00325462,0.
 00302287,-0.00230034,-0.03542684,-0.00021794,-0.01774525,-0.00208320,0
 .00688687,-0.00259231,-0.12974793,-0.00255021,-0.15073472,-0.00165182,
 0.00330116,0.00332858,0.49004394,-0.18191343,0.70891302,-0.00045204,0.
 00038006,0.00043105,0.00090978,0.00113005,0.00064717,0.00205037,-0.000
 16423,0.00171868,-0.01069458,-0.00295846,-0.00765636,0.00007816,-0.000
 13751,0.00008308,0.00387715,0.00227660,-0.00159051,0.00461525,-0.00921
 300,0.00977069,0.00887089,0.01021751,-0.00475414,0.00068626,0.00060459
 ,0.00005973,0.00090982,-0.00016472,-0.00037149,-0.00033317,0.00186779,
 -0.00080882,0.00186395,-0.01738035,0.01652743,-0.00004226,-0.00034300,
 -0.00116810,-0.03841427,0.02272600,-0.05568457,0.00192211,0.00079136,-
 0.00006307,-0.23544907,0.12980843,-0.29946253,0.25960166,-0.00058469,0
 .00092288,-0.00028825,-0.00732554,0.00100478,0.00181591,0.00109956,0.0
 0010121,0.00739027,-0.00537365,-0.00262546,-0.01293178,-0.00004366,0.0
 0021624,0.00017273,0.00719647,0.00053384,-0.00228789,-0.00648109,-0.02
 931948,0.02629167,0.00493540,0.00300772,-0.00068192,-0.00039602,-0.000
 79293,-0.00022378,0.00088197,-0.00085046,-0.00052508,-0.00089415,0.005
 12440,0.00263890,-0.00387379,0.00132059,0.00849153,0.00048799,-0.00076
 113,-0.00127417,0.00132652,0.01040835,0.00545031,0.00024124,0.00008262
 ,-0.00104104,0.14824455,-0.12910910,0.20417954,-0.13944112,0.14073592,
 0.00006602,-0.00032149,0.00045373,0.00646844,-0.00133775,0.00049408,0.
 00186085,-0.00037687,-0.00669478,0.00372198,0.00285668,0.01548278,0.00
 002668,-0.00026004,-0.00001071,-0.00630290,0.00068345,0.00188819,0.008
 89950,0.02898948,-0.02505557,-0.00782284,-0.00031853,-0.00467108,0.001
 49326,0.00099691,0.00000910,-0.00046029,0.00099271,0.00053829,-0.00119
 838,-0.00250988,0.00053788,0.00547513,0.00035178,0.00178052,0.00009223
 ,-0.00071115,-0.00013613,-0.03033105,0.01905702,-0.01912191,0.00412037
 ,-0.00097638,0.00042680,-0.32843074,0.19006100,-0.53873014,0.34232176,
 -0.23717694,0.57280895\\-0.00082999,0.00079858,0.00000024,0.00082973,-
 0.00119827,0.00001293,0.00001306,0.00038681,-0.00001286,-0.00001195,-0
 .00001207,-0.00000839,-0.00000060,0.00001579,0.00000181,0.00005015,0.0
 0000894,0.00000441,-0.00004800,0.00000556,0.00000244,0.00000114,-0.000
 00439,0.00000089,0.00000235,0.00000318,-0.00000076,-0.00000040,0.00000
 108,0.00000049,-0.00000402,-0.00000316,-0.00000030,-0.00000005,-0.0000
 0256,-0.00000198,-0.00000039,0.00000073,0.00000058,0.00000204,-0.00000
 107,-0.00000141,-0.00000097,0.00000118,0.00000109,-0.00000341,-0.00000
 002,0.00000130,0.00000131,-0.00000032,-0.00000049\\\@


 THERE IS NO CURE FOR BIRTH AND DEATH SAVE TO ENJOY THE INTERVAL.

                               -- GEORGE SANTAYANA
 Job cpu time:       0 days  2 hours 13 minutes 20.4 seconds.
 Elapsed time:       0 days  0 hours 11 minutes  7.5 seconds.
 File lengths (MBytes):  RWF=    183 Int=      0 D2E=      0 Chk=     32 Scr=      1
 Normal termination of Gaussian 16 at Fri Jun 10 23:00:59 2022.
