 Entering Gaussian System, Link 0=g16
 Input=ts_zmat_field_N100.gjf
 Output=ts_zmat_field_N100.out
 Initial command:
 /software/gaussian/g16-a03/l1.exe "/local_scratch/11174814/Gau-11070.inp" -scrdir="/local_scratch/11174814/"
 Entering Link 1 = /software/gaussian/g16-a03/l1.exe PID=     11071.
  
 Copyright (c) 1988,1990,1992,1993,1995,1998,2003,2009,2016,
            Gaussian, Inc.  All Rights Reserved.
  
 This is part of the Gaussian(R) 16 program.  It is based on
 the Gaussian(R) 09 system (copyright 2009, Gaussian, Inc.),
 the Gaussian(R) 03 system (copyright 2003, Gaussian, Inc.),
 the Gaussian(R) 98 system (copyright 1998, Gaussian, Inc.),
 the Gaussian(R) 94 system (copyright 1995, Gaussian, Inc.),
 the Gaussian 92(TM) system (copyright 1992, Gaussian, Inc.),
 the Gaussian 90(TM) system (copyright 1990, Gaussian, Inc.),
 the Gaussian 88(TM) system (copyright 1988, Gaussian, Inc.),
 the Gaussian 86(TM) system (copyright 1986, Carnegie Mellon
 University), and the Gaussian 82(TM) system (copyright 1983,
 Carnegie Mellon University). Gaussian is a federally registered
 trademark of Gaussian, Inc.
  
 This software contains proprietary and confidential information,
 including trade secrets, belonging to Gaussian, Inc.
  
 This software is provided under written license and may be
 used, copied, transmitted, or stored only in accord with that
 written license.
  
 The following legend is applicable only to US Government
 contracts under FAR:
  
                    RESTRICTED RIGHTS LEGEND
  
 Use, reproduction and disclosure by the US Government is
 subject to restrictions as set forth in subparagraphs (a)
 and (c) of the Commercial Computer Software - Restricted
 Rights clause in FAR 52.227-19.
  
 Gaussian, Inc.
 340 Quinnipiac St., Bldg. 40, Wallingford CT 06492
  
  
 ---------------------------------------------------------------
 Warning -- This program may not be used in any manner that
 competes with the business of Gaussian, Inc. or will provide
 assistance to any competitor of Gaussian, Inc.  The licensee
 of this program is prohibited from giving any competitor of
 Gaussian, Inc. access to this program.  By using this program,
 the user acknowledges that Gaussian, Inc. is engaged in the
 business of creating and licensing software in the field of
 computational chemistry and represents and warrants to the
 licensee that it is not a competitor of Gaussian, Inc. and that
 it will not use this program in any manner prohibited above.
 ---------------------------------------------------------------
  

 Cite this work as:
 Gaussian 16, Revision A.03,
 M. J. Frisch, G. W. Trucks, H. B. Schlegel, G. E. Scuseria, 
 M. A. Robb, J. R. Cheeseman, G. Scalmani, V. Barone, 
 G. A. Petersson, H. Nakatsuji, X. Li, M. Caricato, A. V. Marenich, 
 J. Bloino, B. G. Janesko, R. Gomperts, B. Mennucci, H. P. Hratchian, 
 J. V. Ortiz, A. F. Izmaylov, J. L. Sonnenberg, D. Williams-Young, 
 F. Ding, F. Lipparini, F. Egidi, J. Goings, B. Peng, A. Petrone, 
 T. Henderson, D. Ranasinghe, V. G. Zakrzewski, J. Gao, N. Rega, 
 G. Zheng, W. Liang, M. Hada, M. Ehara, K. Toyota, R. Fukuda, 
 J. Hasegawa, M. Ishida, T. Nakajima, Y. Honda, O. Kitao, H. Nakai, 
 T. Vreven, K. Throssell, J. A. Montgomery, Jr., J. E. Peralta, 
 F. Ogliaro, M. J. Bearpark, J. J. Heyd, E. N. Brothers, K. N. Kudin, 
 V. N. Staroverov, T. A. Keith, R. Kobayashi, J. Normand, 
 K. Raghavachari, A. P. Rendell, J. C. Burant, S. S. Iyengar, 
 J. Tomasi, M. Cossi, J. M. Millam, M. Klene, C. Adamo, R. Cammi, 
 J. W. Ochterski, R. L. Martin, K. Morokuma, O. Farkas, 
 J. B. Foresman, and D. J. Fox, Gaussian, Inc., Wallingford CT, 2016.
 
 ******************************************
 Gaussian 16:  ES64L-G16RevA.03 25-Dec-2016
                11-Jun-2022 
 ******************************************
 %nprocshared=12
 Will use up to   12 processors via shared memory.
 %chk=checkpoint.chk
 %mem=12GB
 ----------------------------------------------------------------------
 # Opt=(TS, CalcFC, noeigentest, Z-matrix, MaxStep=10) geom=allcheckpoi
 nt guess=read Field=read NoSymm B3LYP/Def2TZVP freq=noraman pop=none
 ----------------------------------------------------------------------
 1/5=1,8=10,10=4,11=1,18=40,26=3,29=7,38=1/1,3;
 2/12=2,15=1,29=3,40=1/2;
 3/5=44,7=101,11=2,14=-6,25=1,30=1,71=2,74=-5,116=-2,140=1/1,2,3;
 4/5=1/1;
 5/5=2,38=6/2;
 8/6=4,10=90,11=11/1;
 11/6=1,8=1,9=11,15=111,16=1,31=1/1,2,10;
 10/6=1,13=1,31=1/2;
 7/10=1,18=20,25=1,30=1/1,2,3,16;
 1/5=1,8=10,10=4,11=1,18=40,26=3/3(2);
 2/15=1,29=3/2;
 99//99;
 2/15=1,29=3/2;
 3/5=44,7=101,11=2,14=-2,25=1,30=1,71=1,74=-5/1,2,3;
 4/5=5,16=3,69=1/1;
 5/5=2,38=5/2;
 7/30=1/1,2,3,16;
 1/5=1,8=10,11=1,18=40,26=3/3(-5);
 2/15=1,29=3/2;
 99/9=1/99;
 Structure from the checkpoint file:  "checkpoint.chk"
 -----------------
 ts_zmat_initalOpt
 -----------------
 Charge =  0 Multiplicity = 1
 Z-Matrix found in chk file.
 H
 N,1,R2
 C,2,R3,1,A3
 C,2,R4,1,A4,3,D4,0
 H,3,R5,2,A5,1,D5,0
 C,3,R6,2,A6,5,D6,0
 C,4,R7,2,A7,1,D7,0
 C,4,R8,2,A8,7,D8,0
 H,6,R9,3,A9,2,D9,0
 H,8,R10,4,A10,2,D10,0
 H,7,R11,4,A11,2,D11,0
 C,8,R12,4,A12,10,D12,0
 H,12,R13,8,A13,4,D13,0
 C,12,R14,8,A14,13,D14,0
 H,14,R15,12,A15,8,D15,0
 C,14,R16,12,A16,15,D16,0
 O,16,R17,14,A17,12,D17,0
      Variables:
 R2=1.00773925
 R3=1.38415998
 R4=1.35736083
 R5=1.07695071
 R6=1.36102237
 R7=1.41289343
 R8=1.42284333
 R9=1.07664501
 R10=1.08192363
 R11=1.08176753
 R12=1.36005358
 R13=1.08426614
 R14=1.42726016
 R15=1.08735195
 R16=1.36671448
 R17=1.18253482
 A3=125.69854909
 A4=123.91811332
 A5=120.66340552
 A6=108.4149918
 A7=107.19419115
 A8=126.11979974
 A9=125.64681423
 A10=120.46337178
 A11=120.91962486
 A12=118.81154884
 A13=117.40242961
 A14=127.39086977
 A15=117.6083421
 A16=128.81635503
 A17=145.92692083
 D4=-180.9718109
 D5=-0.58468913
 D6=180.49783808
 D7=179.91283133
 D8=-172.09398949
 D9=-178.62029207
 D10=-28.76859325
 D11=147.84772766
 D12=171.98740116
 D13=-175.54449684
 D14=174.83397737
 D15=-163.61844613
 D16=165.1522194
 D17=176.85395782
 Recover connectivity data from disk.

 GradGradGradGradGradGradGradGradGradGradGradGradGradGradGradGradGradGrad
 Berny optimization.
 Initialization pass.
                       ----------------------------
                       !    Initial Parameters    !
                       ! (Angstroms and Degrees)  !
 ----------------------                            ----------------------
 !      Name          Value   Derivative information (Atomic Units)     !
 ------------------------------------------------------------------------
 !       R2          1.0077   calculate D2E/DX2 analytically            !
 !       R3          1.3842   calculate D2E/DX2 analytically            !
 !       R4          1.3574   calculate D2E/DX2 analytically            !
 !       R5          1.077    calculate D2E/DX2 analytically            !
 !       R6          1.361    calculate D2E/DX2 analytically            !
 !       R7          1.4129   calculate D2E/DX2 analytically            !
 !       R8          1.4228   calculate D2E/DX2 analytically            !
 !       R9          1.0766   calculate D2E/DX2 analytically            !
 !       R10         1.0819   calculate D2E/DX2 analytically            !
 !       R11         1.0818   calculate D2E/DX2 analytically            !
 !       R12         1.3601   calculate D2E/DX2 analytically            !
 !       R13         1.0843   calculate D2E/DX2 analytically            !
 !       R14         1.4273   calculate D2E/DX2 analytically            !
 !       R15         1.0874   calculate D2E/DX2 analytically            !
 !       R16         1.3667   calculate D2E/DX2 analytically            !
 !       R17         1.1825   calculate D2E/DX2 analytically            !
 !       A3        125.6985   calculate D2E/DX2 analytically            !
 !       A4        123.9181   calculate D2E/DX2 analytically            !
 !       A5        120.6634   calculate D2E/DX2 analytically            !
 !       A6        108.415    calculate D2E/DX2 analytically            !
 !       A7        107.1942   calculate D2E/DX2 analytically            !
 !       A8        126.1198   calculate D2E/DX2 analytically            !
 !       A9        125.6468   calculate D2E/DX2 analytically            !
 !       A10       120.4634   calculate D2E/DX2 analytically            !
 !       A11       120.9196   calculate D2E/DX2 analytically            !
 !       A12       118.8115   calculate D2E/DX2 analytically            !
 !       A13       117.4024   calculate D2E/DX2 analytically            !
 !       A14       127.3909   calculate D2E/DX2 analytically            !
 !       A15       117.6083   calculate D2E/DX2 analytically            !
 !       A16       128.8164   calculate D2E/DX2 analytically            !
 !       A17       145.9269   calculate D2E/DX2 analytically            !
 !       D4       -180.9718   calculate D2E/DX2 analytically            !
 !       D5         -0.5847   calculate D2E/DX2 analytically            !
 !       D6        180.4978   calculate D2E/DX2 analytically            !
 !       D7        179.9128   calculate D2E/DX2 analytically            !
 !       D8       -172.094    calculate D2E/DX2 analytically            !
 !       D9       -178.6203   calculate D2E/DX2 analytically            !
 !       D10       -28.7686   calculate D2E/DX2 analytically            !
 !       D11       147.8477   calculate D2E/DX2 analytically            !
 !       D12       171.9874   calculate D2E/DX2 analytically            !
 !       D13      -175.5445   calculate D2E/DX2 analytically            !
 !       D14       174.834    calculate D2E/DX2 analytically            !
 !       D15      -163.6184   calculate D2E/DX2 analytically            !
 !       D16       165.1522   calculate D2E/DX2 analytically            !
 !       D17       176.854    calculate D2E/DX2 analytically            !
 ------------------------------------------------------------------------
 Trust Radius=1.00D-01 FncErr=1.00D-07 GrdErr=1.00D-06 EigMax=2.50D+02 EigMin=1.00D-04
 Number of steps in this run=     55 maximum allowed number of steps=    100.
 Search for a saddle point of order  1.
 GradGradGradGradGradGradGradGradGradGradGradGradGradGradGradGradGradGrad

 ---------------------------------------------------------------------------------------------------
                            Z-MATRIX (ANGSTROMS AND DEGREES)
   CD    Cent   Atom    N1       Length/X        N2       Alpha/Y        N3        Beta/Z          J
 ---------------------------------------------------------------------------------------------------
      1      1  H 
      2      2  N        1   1.007739(     1)
      3      3  C        2   1.384160(     2)      1  125.699(    17)
      4      4  C        2   1.357361(     3)      1  123.918(    18)      3 -180.972(    32)      0
      5      5  H        3   1.076951(     4)      2  120.663(    19)      1   -0.585(    33)      0
      6      6  C        3   1.361022(     5)      2  108.415(    20)      5  180.498(    34)      0
      7      7  C        4   1.412893(     6)      2  107.194(    21)      1  179.913(    35)      0
      8      8  C        4   1.422843(     7)      2  126.120(    22)      7 -172.094(    36)      0
      9      9  H        6   1.076645(     8)      3  125.647(    23)      2 -178.620(    37)      0
     10     10  H        8   1.081924(     9)      4  120.463(    24)      2  -28.769(    38)      0
     11     11  H        7   1.081768(    10)      4  120.920(    25)      2  147.848(    39)      0
     12     12  C        8   1.360054(    11)      4  118.812(    26)     10  171.987(    40)      0
     13     13  H       12   1.084266(    12)      8  117.402(    27)      4 -175.544(    41)      0
     14     14  C       12   1.427260(    13)      8  127.391(    28)     13  174.834(    42)      0
     15     15  H       14   1.087352(    14)     12  117.608(    29)      8 -163.618(    43)      0
     16     16  C       14   1.366714(    15)     12  128.816(    30)     15  165.152(    44)      0
     17     17  O       16   1.182535(    16)     14  145.927(    31)     12  176.854(    45)      0
 ---------------------------------------------------------------------------------------------------
                         Z-Matrix orientation:                         
 ---------------------------------------------------------------------
 Center     Atomic      Atomic             Coordinates (Angstroms)
 Number     Number       Type             X           Y           Z
 ---------------------------------------------------------------------
      1          1           0        0.000000    0.000000    0.000000
      2          7           0        0.000000    0.000000    1.007739
      3          6           0        1.124074    0.000000    1.815425
      4          6           0       -1.126225    0.019104    1.765157
      5          1           0        2.110637   -0.009453    1.383653
      6          6           0        0.719714    0.001957    3.114991
      7          6           0       -0.719744    0.010155    3.118287
      8          6           0       -2.460080   -0.114652    1.288268
      9          1           0        1.368476    0.023507    3.973948
     10          1           0       -2.720393    0.208624    0.289124
     11          1           0       -1.303396    0.513546    3.877345
     12          6           0       -3.359792   -0.801884    2.041909
     13          1           0       -4.348602   -0.953536    1.623711
     14          6           0       -3.129005   -1.445203    3.294885
     15          1           0       -3.865173   -2.171071    3.631794
     16          6           0       -1.979541   -1.497010    4.032420
     17          8           0       -1.475824   -1.866266    5.036565
 ---------------------------------------------------------------------
                    Distance matrix (angstroms):
                    1          2          3          4          5
     1  H    0.000000
     2  N    1.007739   0.000000
     3  C    2.135254   1.384160   0.000000
     4  C    2.093926   1.357361   2.250941   0.000000
     5  H    2.523762   2.143872   1.076951   3.259392   0.000000
     6  C    3.197055   2.226769   1.361022   2.286883   2.220884
     7  C    3.200289   2.229921   2.257702   1.412893   3.319698
     8  C    2.779347   2.478676   3.624527   1.422843   4.572922
     9  H    4.203040   3.266753   2.172443   3.332013   2.694720
    10  H    2.743657   2.821430   4.141623   2.180817   4.958266
    11  H    4.122666   3.193307   3.226120   2.176512   4.260006
    12  C    4.012557   3.605652   4.560633   2.395712   5.566583
    13  H    4.738777   4.494329   5.558432   3.368939   6.532281
    14  C    4.768181   4.136462   4.729281   2.914686   5.759170
    15  H    5.730884   5.151579   5.736316   3.972787   6.740699
    16  C    4.734980   3.912584   4.097381   2.857837   5.094933
    17  O    5.570278   4.678936   4.540723   3.791959   5.445569
                    6          7          8          9         10
     6  C    0.000000
     7  C    1.439485   0.000000
     8  C    3.669006   2.528501   0.000000
     9  H    1.076645   2.256767   4.678655   0.000000
    10  H    4.456744   3.470756   1.081924   5.507363   0.000000
    11  H    2.221684   1.081768   2.904458   2.718156   3.869909
    12  C    4.294186   2.964431   1.360054   5.174028   2.121842
    13  H    5.368865   4.041172   2.093506   6.258052   2.404747
    14  C    4.115735   2.820247   2.498868   4.779704   3.454954
    15  H    5.100032   3.862015   3.419833   5.685448   4.259919
    16  C    3.220956   2.166627   3.110016   3.677582   4.179750
    17  O    3.464548   2.787903   4.252839   3.576373   5.328444
                   11         12         13         14         15
    11  H    0.000000
    12  C    3.054169   0.000000
    13  H    4.062571   1.084266   0.000000
    14  C    2.740220   1.427260   2.126494   0.000000
    15  H    3.718893   2.158197   2.397601   1.087352   0.000000
    16  C    2.126865   2.520005   3.421943   1.366714   2.042172
    17  O    2.652739   3.694619   4.553405   2.437981   2.788418
                   16         17
    16  C    0.000000
    17  O    1.182535   0.000000
 Symmetry turned off by external request.
 Stoichiometry    C8H7NO
 Framework group  C1[X(C8H7NO)]
 Deg. of freedom    45
 Full point group                 C1      NOp   1
 Rotational constants (GHZ):           2.1681586           1.3265240           0.8614643
 Standard basis: def2TZVP (5D, 7F)
 The following finite field(s) will be applied:
 An electric field of             -0.0061 -0.0013  0.0079
   352 basis functions,   566 primitive gaussians,   402 cartesian basis functions
    35 alpha electrons       35 beta electrons
       nuclear repulsion energy       477.8382849072 Hartrees.
 NAtoms=   17 NActive=   17 NUniq=   17 SFac= 1.00D+00 NAtFMM=   60 NAOKFM=F Big=F
 Integral buffers will be    131072 words long.
 Raffenetti 2 integral format.
 Two-electron integral symmetry is turned off.
 One-electron integrals computed using PRISM.
   1 Symmetry operations used in ECPInt.
 ECPInt:  NShTT=    9591 NPrTT=   29644 LenC2=    9322 LenP2D=   22670.
 LDataN:  DoStor=T MaxTD1= 6 Len=  172
 NBasis=   352 RedAO= T EigKep=  3.78D-05  NBF=   352
 NBsUse=   352 1.00D-06 EigRej= -1.00D+00 NBFU=   352
 The nuclear repulsion energy is now       481.6665284691 hartrees.
 Initial guess from the checkpoint file:  "checkpoint.chk"
 B after Tr=    -0.000000    0.000000   -0.000000
         Rot=    1.000000   -0.000000   -0.000000    0.000000 Ang=   0.00 deg.
 Requested convergence on RMS density matrix=1.00D-08 within 128 cycles.
 Requested convergence on MAX density matrix=1.00D-06.
 Requested convergence on             energy=1.00D-06.
 No special actions if energy rises.
 SCF Done:  E(RB3LYP) =  -439.156061391     A.U. after   11 cycles
            NFock= 11  Conv=0.48D-08     -V/T= 2.0050
 DoSCS=F DFT=T ScalE2(SS,OS)=  1.000000  1.000000
 Range of M.O.s used for correlation:     1   352
 NBasis=   352 NAE=    35 NBE=    35 NFC=     0 NFV=     0
 NROrb=    352 NOA=    35 NOB=    35 NVA=   317 NVB=   317

 **** Warning!!: The largest alpha MO coefficient is  0.27308620D+02

   1 Symmetry operations used in ECPInt.
 ECPInt:  NShTT=    9591 NPrTT=   29644 LenC2=    9322 LenP2D=   22670.
 LDataN:  DoStor=T MaxTD1= 7 Len=  274
 Symmetrizing basis deriv contribution to polar:
 IMax=3 JMax=2 DiffMx= 0.00D+00
 G2DrvN: will do    18 centers at a time, making    1 passes.
 Calling FoFCou, ICntrl=  3107 FMM=F I1Cent=   0 AccDes= 0.00D+00.
 End of G2Drv F.D. properties file   721 does not exist.
 End of G2Drv F.D. properties file   722 does not exist.
 End of G2Drv F.D. properties file   788 does not exist.
          IDoAtm=11111111111111111
          Differentiating once with respect to nuclear coordinates.
 CalDSu exits because no D1Ps are significant.
          There are    54 degrees of freedom in the 1st order CPHF.  IDoFFX=6 NUNeed=     0.
     48 vectors produced by pass  0 Test12= 2.05D-14 1.85D-09 XBig12= 1.25D-01 1.15D-01.
 AX will form    48 AO Fock derivatives at one time.
     48 vectors produced by pass  1 Test12= 2.05D-14 1.85D-09 XBig12= 2.42D-02 3.76D-02.
     48 vectors produced by pass  2 Test12= 2.05D-14 1.85D-09 XBig12= 2.80D-04 2.09D-03.
     48 vectors produced by pass  3 Test12= 2.05D-14 1.85D-09 XBig12= 9.75D-07 1.38D-04.
     48 vectors produced by pass  4 Test12= 2.05D-14 1.85D-09 XBig12= 2.75D-09 6.31D-06.
     48 vectors produced by pass  5 Test12= 2.05D-14 1.85D-09 XBig12= 6.62D-12 3.02D-07.
     20 vectors produced by pass  6 Test12= 2.05D-14 1.85D-09 XBig12= 1.11D-14 1.25D-08.
 InvSVY:  IOpt=1 It=  1 EMax= 4.44D-16
 Solved reduced A of dimension   308 with    54 vectors.
 End of Minotr F.D. properties file   721 does not exist.
 End of Minotr F.D. properties file   722 does not exist.
 End of Minotr F.D. properties file   788 does not exist.
   1 Symmetry operations used in ECPInt.
 ECPInt:  NShTT=    9591 NPrTT=   29644 LenC2=    9322 LenP2D=   22670.
 LDataN:  DoStor=T MaxTD1= 8 Len=  415
 Calling FoFJK, ICntrl=    100147 FMM=F ISym2X=0 I1Cent= 0 IOpClX= 0 NMat=1 NMatS=1 NMatT=0.
 -------------------------------------------------------------------
 Center     Atomic                   Forces (Hartrees/Bohr)
 Number     Number              X              Y              Z
 -------------------------------------------------------------------
      1        1           0.002622798   -0.002173610   -0.000739686
      2        7          -0.003273818    0.003561926    0.001559865
      3        6          -0.000401467   -0.001265189   -0.000282367
      4        6           0.001132915   -0.000077540   -0.001713220
      5        1           0.000123545    0.000076599   -0.000152534
      6        6           0.000043155   -0.000168530    0.000238777
      7        6          -0.000630777   -0.001172692    0.001520203
      8        6          -0.000706006   -0.000423519    0.000354180
      9        1           0.000113241    0.000059231   -0.000145872
     10        1           0.000083958   -0.000031628    0.000002256
     11        1           0.000045207    0.000479417   -0.000145079
     12        6           0.000088500    0.000856041   -0.001335964
     13        1          -0.000025012   -0.000018449   -0.000207246
     14        6           0.000229943   -0.000244955    0.001884292
     15        1          -0.000339282   -0.000394405   -0.000102475
     16        6           0.000428294    0.002483820   -0.004450484
     17        8           0.000464806   -0.001546518    0.003715354
 -------------------------------------------------------------------
 Cartesian Forces:  Max     0.004450484 RMS     0.001389443
 -----------------------------------------------------------------------------------------------
                       Internal Coordinate Forces (Hartree/Bohr or radian)
  Cent   Atom   N1       Length/X         N2         Alpha/Y        N3         Beta/Z          J
 -----------------------------------------------------------------------------------------------
      1  H 
      2  N        1   0.000740(     1)
      3  C        2  -0.000298(     2)      1  -0.001542(    17)
      4  C        2  -0.000909(     3)      1  -0.002081(    18)      3  -0.001305(    32)     0
      5  H        3   0.000174(     4)      2  -0.000183(    19)      1   0.000361(    33)     0
      6  C        3   0.000042(     5)      2   0.000818(    20)      5   0.000223(    34)     0
      7  C        4   0.001153(     6)      2   0.002633(    21)      1   0.000720(    35)     0
      8  C        4  -0.000228(     7)      2   0.000712(    22)      7   0.002145(    36)     0
      9  H        6  -0.000047(     8)      3  -0.000364(    23)      2   0.000096(    37)     0
     10  H        8  -0.000032(     9)      4  -0.000143(    24)      2   0.002711(    38)     0
     11  H        7   0.000097(    10)      4  -0.000426(    25)      2  -0.000785(    39)     0
     12  C        8  -0.001409(    11)      4  -0.002524(    26)     10   0.002629(    40)     0
     13  H       12   0.000105(    12)      8  -0.000317(    27)      4   0.002377(    41)     0
     14  C       12   0.000911(    13)      8  -0.002665(    28)     13   0.002206(    42)     0
     15  H       14   0.000461(    14)     12  -0.000419(    29)      8   0.000926(    43)     0
     16  C       14   0.000319(    15)     12  -0.000864(    30)     15   0.000628(    44)     0
     17  O       16   0.003836(    16)     14  -0.002883(    31)     12  -0.000231(    45)     0
 -----------------------------------------------------------------------------------------------
 Internal  Forces:  Max     0.003835783 RMS     0.001433332

 GradGradGradGradGradGradGradGradGradGradGradGradGradGradGradGradGradGrad
 Berny optimization.
 Search for a saddle point.
 Step number   1 out of a maximum of   55
 All quantities printed in internal units (Hartrees-Bohrs-Radians)
 Swapping is turned off.
 Second derivative matrix not updated -- analytic derivatives used.
 ITU=  0
     Eigenvalues ---   -0.19610   0.01145   0.01702   0.02052   0.02972
     Eigenvalues ---    0.03674   0.03938   0.04755   0.05977   0.10010
     Eigenvalues ---    0.11048   0.11640   0.14402   0.16120   0.16559
     Eigenvalues ---    0.17975   0.18159   0.21164   0.23390   0.27151
     Eigenvalues ---    0.30743   0.31899   0.34254   0.34671   0.35123
     Eigenvalues ---    0.35594   0.35924   0.36938   0.37262   0.37461
     Eigenvalues ---    0.39662   0.42349   0.44797   0.46733   0.48222
     Eigenvalues ---    0.49920   0.53696   0.58658   0.81315   0.86583
     Eigenvalues ---    1.02847   1.49864   2.01879   2.11407  16.40333
 Eigenvectors required to have negative eigenvalues:
                          A17       D11       A12       D8        R16
   1                    0.61027   0.47807   0.29074  -0.21920  -0.20072
                          A16       A8        A11       A14       R17
   1                    0.20070  -0.17590   0.17124   0.14321  -0.12334
 RFO step:  Lambda0=1.250174938D-04 Lambda=-1.63531552D-04.
 Linear search not attempted -- option 19 set.
 Variable       Old X    -DE/DX   Delta X   Delta X   Delta X     New X
                                 (Linear)    (Quad)   (Total)
    R2        1.90435   0.00074   0.00000   0.00152   0.00152   1.90587
    R3        2.61568  -0.00030   0.00000  -0.00430  -0.00430   2.61138
    R4        2.56504  -0.00091   0.00000  -0.00065  -0.00065   2.56439
    R5        2.03514   0.00017   0.00000   0.00040   0.00040   2.03554
    R6        2.57196   0.00004   0.00000   0.00323   0.00323   2.57519
    R7        2.66998   0.00115   0.00000  -0.00152  -0.00152   2.66846
    R8        2.68878  -0.00023   0.00000   0.00288   0.00288   2.69166
    R9        2.03456  -0.00005   0.00000  -0.00004  -0.00004   2.03452
   R10        2.04454  -0.00003   0.00000   0.00036   0.00036   2.04490
   R11        2.04424   0.00010   0.00000  -0.00091  -0.00091   2.04333
   R12        2.57013  -0.00141   0.00000  -0.00484  -0.00484   2.56528
   R13        2.04897   0.00011   0.00000  -0.00003  -0.00003   2.04893
   R14        2.69713   0.00091   0.00000   0.00726   0.00726   2.70439
   R15        2.05480   0.00046   0.00000   0.00171   0.00171   2.05651
   R16        2.58272   0.00032   0.00000  -0.00648  -0.00648   2.57624
   R17        2.23467   0.00384   0.00000   0.00230   0.00230   2.23696
    A3        2.19385  -0.00154   0.00000   0.00237   0.00237   2.19622
    A4        2.16278  -0.00208   0.00000  -0.00325  -0.00325   2.15953
    A5        2.10597  -0.00018   0.00000   0.00054   0.00054   2.10651
    A6        1.89220   0.00082   0.00000  -0.00070  -0.00070   1.89150
    A7        1.87089   0.00263   0.00000   0.00057   0.00057   1.87146
    A8        2.20121   0.00071   0.00000  -0.00488  -0.00488   2.19632
    A9        2.19295  -0.00036   0.00000  -0.00265  -0.00265   2.19031
   A10        2.10248  -0.00014   0.00000  -0.00460  -0.00460   2.09788
   A11        2.11045  -0.00043   0.00000   0.00536   0.00536   2.11581
   A12        2.07365  -0.00252   0.00000   0.00759   0.00759   2.08124
   A13        2.04906  -0.00032   0.00000   0.00095   0.00095   2.05001
   A14        2.22339  -0.00266   0.00000  -0.00065  -0.00065   2.22274
   A15        2.05265  -0.00042   0.00000  -0.00374  -0.00374   2.04892
   A16        2.24827  -0.00086   0.00000   0.00774   0.00774   2.25601
   A17        2.54691  -0.00288   0.00000   0.00964   0.00964   2.55655
    D4       -3.15855  -0.00130   0.00000  -0.04699  -0.04699  -3.20554
    D5       -0.01020   0.00036   0.00000  -0.03374  -0.03374  -0.04395
    D6        3.15028   0.00022   0.00000  -0.00225  -0.00225   3.14804
    D7        3.14007   0.00072   0.00000   0.03679   0.03679   3.17686
    D8       -3.00361   0.00215   0.00000  -0.01167  -0.01167  -3.01527
    D9       -3.11751   0.00010   0.00000   0.00356   0.00356  -3.11395
   D10       -0.50211   0.00271   0.00000   0.00330   0.00330  -0.49880
   D11        2.58043  -0.00078   0.00000   0.01679   0.01679   2.59722
   D12        3.00175   0.00263   0.00000   0.00981   0.00981   3.01156
   D13       -3.06383   0.00238   0.00000  -0.00535  -0.00535  -3.06918
   D14        3.05143   0.00221   0.00000   0.00287   0.00287   3.05429
   D15       -2.85568   0.00093   0.00000   0.00177   0.00177  -2.85391
   D16        2.88245   0.00063   0.00000  -0.00397  -0.00397   2.87848
   D17        3.08668  -0.00023   0.00000  -0.01260  -0.01260   3.07408
         Item               Value     Threshold  Converged?
 Maximum Force            0.003836     0.000450     NO 
 RMS     Force            0.001433     0.000300     NO 
 Maximum Displacement     0.046987     0.001800     NO 
 RMS     Displacement     0.011499     0.001200     NO 
 Predicted change in Energy=-1.965402D-05
 GradGradGradGradGradGradGradGradGradGradGradGradGradGradGradGradGradGrad

 ---------------------------------------------------------------------------------------------------
                            Z-MATRIX (ANGSTROMS AND DEGREES)
   CD    Cent   Atom    N1       Length/X        N2       Alpha/Y        N3        Beta/Z          J
 ---------------------------------------------------------------------------------------------------
      1      1  H 
      2      2  N        1   1.008541(     1)
      3      3  C        2   1.381884(     2)      1  125.834(    17)
      4      4  C        2   1.357016(     3)      1  123.732(    18)      3 -183.664(    32)      0
      5      5  H        3   1.077163(     4)      2  120.694(    19)      1   -2.518(    33)      0
      6      6  C        3   1.362732(     5)      2  108.375(    20)      5  180.369(    34)      0
      7      7  C        4   1.412090(     6)      2  107.227(    21)      1  182.021(    35)      0
      8      8  C        4   1.424367(     7)      2  125.840(    22)      7 -172.762(    36)      0
      9      9  H        6   1.076622(     8)      3  125.495(    23)      2 -178.416(    37)      0
     10     10  H        8   1.082113(     9)      4  120.200(    24)      2  -28.579(    38)      0
     11     11  H        7   1.081285(    10)      4  121.227(    25)      2  148.809(    39)      0
     12     12  C        8   1.357490(    11)      4  119.246(    26)     10  172.550(    40)      0
     13     13  H       12   1.084250(    12)      8  117.457(    27)      4 -175.851(    41)      0
     14     14  C       12   1.431100(    13)      8  127.354(    28)     13  174.998(    42)      0
     15     15  H       14   1.088256(    14)     12  117.394(    29)      8 -163.517(    43)      0
     16     16  C       14   1.363286(    15)     12  129.260(    30)     15  164.925(    44)      0
     17     17  O       16   1.183750(    16)     14  146.479(    31)     12  176.132(    45)      0
 ---------------------------------------------------------------------------------------------------
                         Z-Matrix orientation:                         
 ---------------------------------------------------------------------
 Center     Atomic      Atomic             Coordinates (Angstroms)
 Number     Number       Type             X           Y           Z
 ---------------------------------------------------------------------
      1          1           0        0.000000    0.000000    0.000000
      2          7           0        0.000000    0.000000    1.008541
      3          6           0        1.120312    0.000000    1.817556
      4          6           0       -1.126251    0.072120    1.762099
      5          1           0        2.107825   -0.040691    1.389256
      6          6           0        0.711987    0.048489    3.116771
      7          6           0       -0.723321    0.093979    3.115306
      8          6           0       -2.461848   -0.028508    1.277459
      9          1           0        1.360940    0.084586    3.975066
     10          1           0       -2.699316    0.280507    0.267961
     11          1           0       -1.299422    0.621047    3.863293
     12          6           0       -3.397491   -0.653881    2.036578
     13          1           0       -4.387308   -0.774897    1.610885
     14          6           0       -3.208745   -1.269929    3.314430
     15          1           0       -3.980488   -1.955694    3.658583
     16          6           0       -2.079311   -1.353983    4.073287
     17          8           0       -1.602764   -1.706621    5.097891
 ---------------------------------------------------------------------
                    Distance matrix (angstroms):
                    1          2          3          4          5
     1  H    0.000000
     2  N    1.008541   0.000000
     3  C    2.135090   1.381884   0.000000
     4  C    2.092519   1.357016   2.248404   0.000000
     5  H    2.524800   2.142318   1.077163   3.257451   0.000000
     6  C    3.197426   2.225738   1.362732   2.283596   2.222752
     7  C    3.199555   2.229458   2.256539   1.412090   3.318550
     8  C    2.773700   2.476656   3.622760   1.424367   4.571057
     9  H    4.202435   3.264902   2.172534   3.329188   2.694429
    10  H    2.727048   2.813085   4.131523   2.179543   4.946623
    11  H    4.123012   3.197469   3.228908   2.178606   4.262405
    12  C    4.014742   3.609344   4.570128   2.400197   5.577054
    13  H    4.737498   4.495748   5.565703   3.372654   6.540255
    14  C    4.784790   4.150409   4.753324   2.923630   5.786471
    15  H    5.749283   5.166406   5.764744   3.981878   6.773820
    16  C    4.769536   3.943282   4.142364   2.878139   5.144013
    17  O    5.609804   4.712132   4.592199   3.810314   5.504341
                    6          7          8          9         10
     6  C    0.000000
     7  C    1.436030   0.000000
     8  C    3.669090   2.532816   0.000000
     9  H    1.076622   2.254644   4.680126   0.000000
    10  H    4.450453   3.470838   1.082113   5.501517   0.000000
    11  H    2.220560   1.081285   2.908555   2.716212   3.873252
    12  C    4.306733   2.978948   1.357490   5.190928   2.118616
    13  H    5.380378   4.055000   2.091809   6.274585   2.401383
    14  C    4.141188   2.842047   2.499647   4.811775   3.456059
    15  H    5.131241   3.886573   3.419073   5.726583   4.258910
    16  C    3.266986   2.202959   3.117670   3.730209   4.187656
    17  O    3.516152   2.818905   4.260256   3.640426   5.336602
                   11         12         13         14         15
    11  H    0.000000
    12  C    3.060101   0.000000
    13  H    4.069034   1.084250   0.000000
    14  C    2.742728   1.431100   2.129820   0.000000
    15  H    3.724193   2.159978   2.398511   1.088256   0.000000
    16  C    2.133791   2.525059   3.424268   1.363286   2.036789
    17  O    2.652223   3.701479   4.558619   2.439387   2.790558
                   16         17
    16  C    0.000000
    17  O    1.183750   0.000000
 Symmetry turned off by external request.
 Stoichiometry    C8H7NO
 Framework group  C1[X(C8H7NO)]
 Deg. of freedom    45
 Full point group                 C1      NOp   1
 Rotational constants (GHZ):           2.1739800           1.3066760           0.8532085
 Standard basis: def2TZVP (5D, 7F)
 The following finite field(s) will be applied:
 An electric field of             -0.0061 -0.0013  0.0079
   352 basis functions,   566 primitive gaussians,   402 cartesian basis functions
    35 alpha electrons       35 beta electrons
       nuclear repulsion energy       476.8216662850 Hartrees.
 NAtoms=   17 NActive=   17 NUniq=   17 SFac= 1.00D+00 NAtFMM=   60 NAOKFM=F Big=F
 Integral buffers will be    131072 words long.
 Raffenetti 2 integral format.
 Two-electron integral symmetry is turned off.
 One-electron integrals computed using PRISM.
   1 Symmetry operations used in ECPInt.
 ECPInt:  NShTT=    9591 NPrTT=   29644 LenC2=    9317 LenP2D=   22641.
 LDataN:  DoStor=T MaxTD1= 6 Len=  172
 NBasis=   352 RedAO= T EigKep=  3.83D-05  NBF=   352
 NBsUse=   352 1.00D-06 EigRej= -1.00D+00 NBFU=   352
 The nuclear repulsion energy is now       480.6750337159 hartrees.
 Initial guess from the checkpoint file:  "checkpoint.chk"
 B after Tr=     0.012255   -0.054575    0.014530
         Rot=    0.999737    0.014273    0.004763    0.017297 Ang=   2.63 deg.
 ExpMin= 9.52D-02 ExpMax= 2.70D+04 ExpMxC= 9.22D+02 IAcc=2 IRadAn=         4 AccDes= 0.00D+00
 Harris functional with IExCor=  402 and IRadAn=       4 diagonalized for initial guess.
 HarFok:  IExCor=  402 AccDes= 0.00D+00 IRadAn=         4 IDoV= 1 UseB2=F ITyADJ=14
 ICtDFT=  3500011 ScaDFX=  1.000000  1.000000  1.000000  1.000000
 FoFCou: FMM=F IPFlag=           0 FMFlag=      100000 FMFlg1=           0
         NFxFlg=           0 DoJE=T BraDBF=F KetDBF=T FulRan=T
         wScrn=  0.000000 ICntrl=       500 IOpCl=  0 I1Cent=   200000004 NGrid=           0
         NMat0=    1 NMatS0=      1 NMatT0=    0 NMatD0=    1 NMtDS0=    0 NMtDT0=    0
 Symmetry not used in FoFCou.
 Requested convergence on RMS density matrix=1.00D-08 within 128 cycles.
 Requested convergence on MAX density matrix=1.00D-06.
 Requested convergence on             energy=1.00D-06.
 No special actions if energy rises.
 Integral accuracy reduced to 1.0D-05 until final iterations.
 Initial convergence to 1.0D-05 achieved.  Increase integral accuracy.
 SCF Done:  E(RB3LYP) =  -439.156079231     A.U. after   13 cycles
            NFock= 13  Conv=0.32D-08     -V/T= 2.0050
   1 Symmetry operations used in ECPInt.
 ECPInt:  NShTT=    9591 NPrTT=   29644 LenC2=    9317 LenP2D=   22641.
 LDataN:  DoStor=T MaxTD1= 7 Len=  274
 Calling FoFJK, ICntrl=      2127 FMM=F ISym2X=0 I1Cent= 0 IOpClX= 0 NMat=1 NMatS=1 NMatT=0.
 -------------------------------------------------------------------
 Center     Atomic                   Forces (Hartrees/Bohr)
 Number     Number              X              Y              Z
 -------------------------------------------------------------------
      1        1           0.002847115   -0.002809104   -0.000003613
      2        7          -0.002831650    0.004320450    0.000134474
      3        6           0.000205076   -0.001536263   -0.000128570
      4        6          -0.000268615    0.000043553   -0.000150108
      5        1           0.000001854   -0.000006458    0.000001818
      6        6           0.001016438    0.000009373    0.000062208
      7        6          -0.000945763   -0.000009470    0.000085293
      8        6           0.000096779    0.000035364   -0.000022819
      9        1           0.000048786   -0.000003929   -0.000017874
     10        1           0.000003155   -0.000012235   -0.000006825
     11        1          -0.000067475   -0.000011579    0.000000395
     12        6          -0.000073154   -0.000033447    0.000060065
     13        1          -0.000002081   -0.000000265    0.000003417
     14        6          -0.000062730    0.000000237   -0.000036232
     15        1          -0.000004260   -0.000001554   -0.000003911
     16        6           0.000012346    0.000027657   -0.000059027
     17        8           0.000024177   -0.000012330    0.000081309
 -------------------------------------------------------------------
 Cartesian Forces:  Max     0.004320450 RMS     0.000962023
 -----------------------------------------------------------------------------------------------
                       Internal Coordinate Forces (Hartree/Bohr or radian)
  Cent   Atom   N1       Length/X         N2         Alpha/Y        N3         Beta/Z          J
 -----------------------------------------------------------------------------------------------
      1  H 
      2  N        1   0.000004(     1)
      3  C        2   0.000983(     2)      1  -0.004865(    17)
      4  C        2   0.001043(     3)      1  -0.004807(    18)      3   0.000140(    32)     0
      5  H        3   0.000001(     4)      2   0.000005(    19)      1  -0.000079(    33)     0
      6  C        3  -0.000277(     5)      2   0.002752(    20)      5  -0.000068(    34)     0
      7  C        4  -0.000207(     6)      2   0.002747(    21)      1  -0.000107(    35)     0
      8  C        4  -0.000000(     7)      2  -0.000108(    22)      7   0.000042(    36)     0
      9  H        6   0.000015(     8)      3  -0.000101(    23)      2  -0.000006(    37)     0
     10  H        8   0.000002(     9)      4  -0.000002(    24)      2   0.000148(    38)     0
     11  H        7   0.000031(    10)      4  -0.000083(    25)      2   0.000080(    39)     0
     12  C        8   0.000107(    11)      4   0.000154(    26)     10   0.000122(    40)     0
     13  H       12   0.000001(    12)      8   0.000007(    27)      4   0.000091(    41)     0
     14  C       12  -0.000026(    13)      8   0.000066(    28)     13   0.000094(    42)     0
     15  H       14   0.000003(    14)     12  -0.000011(    29)      8   0.000042(    43)     0
     16  C       14   0.000042(    15)     12  -0.000014(    30)     15   0.000041(    44)     0
     17  O       16   0.000084(    16)     14  -0.000015(    31)     12  -0.000021(    45)     0
 -----------------------------------------------------------------------------------------------
 Internal  Forces:  Max     0.004865037 RMS     0.001194984

 GradGradGradGradGradGradGradGradGradGradGradGradGradGradGradGradGradGrad
 Berny optimization.
 Search for a saddle point.
 Step number   2 out of a maximum of   55
 All quantities printed in internal units (Hartrees-Bohrs-Radians)
 Swapping is turned off.
 Update second derivatives using D2CorN and points    1    2
 ITU=  0  0
     Eigenvalues ---   -0.19553   0.01227   0.01702   0.02051   0.02971
     Eigenvalues ---    0.03690   0.03930   0.04755   0.05977   0.10010
     Eigenvalues ---    0.11048   0.11643   0.14389   0.16120   0.16559
     Eigenvalues ---    0.17975   0.18158   0.21164   0.23390   0.27152
     Eigenvalues ---    0.30745   0.31899   0.34255   0.34671   0.35125
     Eigenvalues ---    0.35594   0.35925   0.36938   0.37262   0.37461
     Eigenvalues ---    0.39663   0.42348   0.44797   0.46733   0.48222
     Eigenvalues ---    0.49921   0.53697   0.58658   0.81316   0.86583
     Eigenvalues ---    1.02838   1.49866   2.01880   2.11399  16.40324
 Eigenvectors required to have negative eigenvalues:
                          A17       D11       A12       D8        A16
   1                    0.61044   0.47795   0.29086  -0.21876   0.20067
                          R16       A8        A11       A14       R17
   1                   -0.20050  -0.17612   0.17114   0.14332  -0.12330
 RFO step:  Lambda0=9.285888282D-08 Lambda=-4.44616507D-06.
 Linear search not attempted -- option 19 set.
 Variable       Old X    -DE/DX   Delta X   Delta X   Delta X     New X
                                 (Linear)    (Quad)   (Total)
    R2        1.90587   0.00000   0.00000   0.00001   0.00001   1.90588
    R3        2.61138   0.00098   0.00000   0.00003   0.00003   2.61141
    R4        2.56439   0.00104   0.00000   0.00019   0.00019   2.56458
    R5        2.03554   0.00000   0.00000   0.00001   0.00001   2.03555
    R6        2.57519  -0.00028   0.00000   0.00001   0.00001   2.57520
    R7        2.66846  -0.00021   0.00000   0.00004   0.00004   2.66851
    R8        2.69166  -0.00000   0.00000  -0.00015  -0.00015   2.69152
    R9        2.03452   0.00002   0.00000   0.00000   0.00000   2.03452
   R10        2.04490   0.00000   0.00000   0.00002   0.00002   2.04491
   R11        2.04333   0.00003   0.00000   0.00001   0.00001   2.04335
   R12        2.56528   0.00011   0.00000   0.00015   0.00015   2.56543
   R13        2.04893   0.00000   0.00000  -0.00001  -0.00001   2.04892
   R14        2.70439  -0.00003   0.00000  -0.00006  -0.00006   2.70433
   R15        2.05651   0.00000   0.00000   0.00001   0.00001   2.05652
   R16        2.57624   0.00004   0.00000   0.00001   0.00001   2.57625
   R17        2.23696   0.00008   0.00000  -0.00002  -0.00002   2.23695
    A3        2.19622  -0.00487   0.00000  -0.00060  -0.00060   2.19562
    A4        2.15953  -0.00481   0.00000  -0.00003  -0.00003   2.15950
    A5        2.10651   0.00000   0.00000  -0.00004  -0.00004   2.10647
    A6        1.89150   0.00275   0.00000   0.00010   0.00010   1.89160
    A7        1.87146   0.00275   0.00000   0.00001   0.00001   1.87147
    A8        2.19632  -0.00011   0.00000  -0.00023  -0.00023   2.19610
    A9        2.19031  -0.00010   0.00000   0.00003   0.00003   2.19034
   A10        2.09788  -0.00000   0.00000  -0.00020  -0.00020   2.09768
   A11        2.11581  -0.00008   0.00000  -0.00001  -0.00001   2.11580
   A12        2.08124   0.00015   0.00000   0.00037   0.00037   2.08161
   A13        2.05001   0.00001   0.00000  -0.00003  -0.00003   2.04998
   A14        2.22274   0.00007   0.00000   0.00010   0.00010   2.22284
   A15        2.04892  -0.00001   0.00000  -0.00007  -0.00007   2.04885
   A16        2.25601  -0.00001   0.00000   0.00026   0.00026   2.25626
   A17        2.55655  -0.00002   0.00000   0.00040   0.00040   2.55695
    D4       -3.20554   0.00014   0.00000   0.00316   0.00316  -3.20238
    D5       -0.04395  -0.00008   0.00000   0.00200   0.00200  -0.04195
    D6        3.14804  -0.00007   0.00000  -0.00001  -0.00001   3.14803
    D7        3.17686  -0.00011   0.00000  -0.00206  -0.00206   3.17480
    D8       -3.01527   0.00004   0.00000  -0.00044  -0.00044  -3.01571
    D9       -3.11395  -0.00001   0.00000   0.00012   0.00012  -3.11383
   D10       -0.49880   0.00015   0.00000   0.00143   0.00143  -0.49738
   D11        2.59722   0.00008   0.00000  -0.00017  -0.00017   2.59705
   D12        3.01156   0.00012   0.00000  -0.00014  -0.00014   3.01142
   D13       -3.06918   0.00009   0.00000  -0.00005  -0.00005  -3.06922
   D14        3.05429   0.00009   0.00000  -0.00002  -0.00002   3.05428
   D15       -2.85391   0.00004   0.00000  -0.00016  -0.00016  -2.85407
   D16        2.87848   0.00004   0.00000   0.00008   0.00008   2.87857
   D17        3.07408  -0.00002   0.00000  -0.00112  -0.00112   3.07296
         Item               Value     Threshold  Converged?
 Maximum Force            0.004865     0.000450     NO 
 RMS     Force            0.001195     0.000300     NO 
 Maximum Displacement     0.003165     0.001800     NO 
 RMS     Displacement     0.000711     0.001200     YES
 Predicted change in Energy=-2.176653D-06
 GradGradGradGradGradGradGradGradGradGradGradGradGradGradGradGradGradGrad

 ---------------------------------------------------------------------------------------------------
                            Z-MATRIX (ANGSTROMS AND DEGREES)
   CD    Cent   Atom    N1       Length/X        N2       Alpha/Y        N3        Beta/Z          J
 ---------------------------------------------------------------------------------------------------
      1      1  H 
      2      2  N        1   1.008549(     1)
      3      3  C        2   1.381898(     2)      1  125.800(    17)
      4      4  C        2   1.357118(     3)      1  123.730(    18)      3 -183.483(    32)      0
      5      5  H        3   1.077167(     4)      2  120.692(    19)      1   -2.403(    33)      0
      6      6  C        3   1.362735(     5)      2  108.381(    20)      5  180.369(    34)      0
      7      7  C        4   1.412113(     6)      2  107.227(    21)      1  181.903(    35)      0
      8      8  C        4   1.424289(     7)      2  125.827(    22)      7 -172.788(    36)      0
      9      9  H        6   1.076623(     8)      3  125.497(    23)      2 -178.409(    37)      0
     10     10  H        8   1.082121(     9)      4  120.188(    24)      2  -28.498(    38)      0
     11     11  H        7   1.081292(    10)      4  121.227(    25)      2  148.800(    39)      0
     12     12  C        8   1.357567(    11)      4  119.268(    26)     10  172.542(    40)      0
     13     13  H       12   1.084243(    12)      8  117.455(    27)      4 -175.853(    41)      0
     14     14  C       12   1.431070(    13)      8  127.359(    28)     13  174.997(    42)      0
     15     15  H       14   1.088261(    14)     12  117.390(    29)      8 -163.526(    43)      0
     16     16  C       14   1.363292(    15)     12  129.274(    30)     15  164.930(    44)      0
     17     17  O       16   1.183741(    16)     14  146.502(    31)     12  176.068(    45)      0
 ---------------------------------------------------------------------------------------------------
                         Z-Matrix orientation:                         
 ---------------------------------------------------------------------
 Center     Atomic      Atomic             Coordinates (Angstroms)
 Number     Number       Type             X           Y           Z
 ---------------------------------------------------------------------
      1          1           0        0.000000    0.000000    0.000000
      2          7           0        0.000000    0.000000    1.008549
      3          6           0        1.120811    0.000000    1.816897
      4          6           0       -1.126580    0.068562    1.762132
      5          1           0        2.108098   -0.038844    1.387894
      6          6           0        0.713338    0.045915    3.116475
      7          6           0       -0.723885    0.088922    3.115456
      8          6           0       -2.461734   -0.033464    1.276794
      9          1           0        1.362823    0.081486    3.974391
     10          1           0       -2.698918    0.276042    0.267371
     11          1           0       -1.301083    0.613680    3.864231
     12          6           0       -3.397281   -0.660727    2.034608
     13          1           0       -4.386608   -0.782474    1.608002
     14          6           0       -3.208934   -1.277857    3.311963
     15          1           0       -3.980313   -1.964715    3.654764
     16          6           0       -2.080205   -1.361667    4.071905
     17          8           0       -1.604124   -1.714144    5.096771
 ---------------------------------------------------------------------
                    Distance matrix (angstroms):
                    1          2          3          4          5
     1  H    0.000000
     2  N    1.008549   0.000000
     3  C    2.134790   1.381898   0.000000
     4  C    2.092604   1.357118   2.249102   0.000000
     5  H    2.524250   2.142309   1.077167   3.258025   0.000000
     6  C    3.197401   2.225828   1.362735   2.284744   2.222731
     7  C    3.199685   2.229568   2.257668   1.412113   3.319777
     8  C    2.773348   2.476532   3.623183   1.424289   4.571186
     9  H    4.202346   3.264988   2.172555   3.330373   2.694417
    10  H    2.726141   2.812419   4.131290   2.179359   4.945920
    11  H    4.123312   3.197552   3.230132   2.178629   4.263866
    12  C    4.014687   3.609831   4.571336   2.400457   5.578009
    13  H    4.737116   4.495991   5.566647   3.372804   6.540844
    14  C    4.785319   4.151614   4.755505   2.924213   5.788612
    15  H    5.749809   5.167732   5.767090   3.982470   6.776167
    16  C    4.770933   3.945319   4.145564   2.879238   5.147394
    17  O    5.611469   4.714347   4.595774   3.811287   5.508448
                    6          7          8          9         10
     6  C    0.000000
     7  C    1.437866   0.000000
     8  C    3.670396   2.532938   0.000000
     9  H    1.076623   2.256584   4.681611   0.000000
    10  H    4.451274   3.470931   1.082121   5.502508   0.000000
    11  H    2.222474   1.081292   2.908734   2.718779   3.873673
    12  C    4.308941   2.979473   1.357567   5.193480   2.118578
    13  H    5.382487   4.055526   2.091854   6.277115   2.401259
    14  C    4.144250   2.842916   2.499747   4.815349   3.456047
    15  H    5.134467   3.887494   3.419145   5.730463   4.258803
    16  C    3.270782   2.204225   3.118065   3.734520   4.188004
    17  O    3.519945   2.819837   4.260564   3.645106   5.336902
                   11         12         13         14         15
    11  H    0.000000
    12  C    3.060340   0.000000
    13  H    4.069432   1.084243   0.000000
    14  C    2.742774   1.431070   2.129743   0.000000
    15  H    3.724281   2.159911   2.398334   1.088261   0.000000
    16  C    2.133578   2.525191   3.424292   1.363292   2.036685
    17  O    2.651369   3.701614   4.558699   2.439529   2.790779
                   16         17
    16  C    0.000000
    17  O    1.183741   0.000000
 Symmetry turned off by external request.
 Stoichiometry    C8H7NO
 Framework group  C1[X(C8H7NO)]
 Deg. of freedom    45
 Full point group                 C1      NOp   1
 Rotational constants (GHZ):           2.1742379           1.3052422           0.8525310
 Standard basis: def2TZVP (5D, 7F)
 The following finite field(s) will be applied:
 An electric field of             -0.0061 -0.0013  0.0079
   352 basis functions,   566 primitive gaussians,   402 cartesian basis functions
    35 alpha electrons       35 beta electrons
       nuclear repulsion energy       476.7195597093 Hartrees.
 NAtoms=   17 NActive=   17 NUniq=   17 SFac= 1.00D+00 NAtFMM=   60 NAOKFM=F Big=F
 Integral buffers will be    131072 words long.
 Raffenetti 2 integral format.
 Two-electron integral symmetry is turned off.
 One-electron integrals computed using PRISM.
   1 Symmetry operations used in ECPInt.
 ECPInt:  NShTT=    9591 NPrTT=   29644 LenC2=    9317 LenP2D=   22640.
 LDataN:  DoStor=T MaxTD1= 6 Len=  172
 NBasis=   352 RedAO= T EigKep=  3.84D-05  NBF=   352
 NBsUse=   352 1.00D-06 EigRej= -1.00D+00 NBFU=   352
 The nuclear repulsion energy is now       480.5728842110 hartrees.
 Initial guess from the checkpoint file:  "checkpoint.chk"
 B after Tr=     0.000655   -0.000414    0.000293
         Rot=    1.000000   -0.000540    0.000196   -0.000595 Ang=  -0.09 deg.
 Requested convergence on RMS density matrix=1.00D-08 within 128 cycles.
 Requested convergence on MAX density matrix=1.00D-06.
 Requested convergence on             energy=1.00D-06.
 No special actions if energy rises.
 SCF Done:  E(RB3LYP) =  -439.156080983     A.U. after    9 cycles
            NFock=  9  Conv=0.56D-08     -V/T= 2.0050
   1 Symmetry operations used in ECPInt.
 ECPInt:  NShTT=    9591 NPrTT=   29644 LenC2=    9317 LenP2D=   22640.
 LDataN:  DoStor=T MaxTD1= 7 Len=  274
 Calling FoFJK, ICntrl=      2127 FMM=F ISym2X=0 I1Cent= 0 IOpClX= 0 NMat=1 NMatS=1 NMatT=0.
 -------------------------------------------------------------------
 Center     Atomic                   Forces (Hartrees/Bohr)
 Number     Number              X              Y              Z
 -------------------------------------------------------------------
      1        1           0.002820783   -0.002775764    0.000000912
      2        7          -0.002829619    0.004194523   -0.000013278
      3        6          -0.000016345   -0.001482840    0.000020499
      4        6           0.000021609    0.000064576    0.000004168
      5        1          -0.000000183    0.000006729   -0.000000601
      6        6          -0.000109158    0.000009013   -0.000016604
      7        6           0.000113506   -0.000020417    0.000001841
      8        6           0.000001482    0.000003914   -0.000002426
      9        1          -0.000006067   -0.000002075    0.000002356
     10        1          -0.000000063   -0.000001886   -0.000000112
     11        1           0.000005893    0.000004631   -0.000000073
     12        6           0.000001778   -0.000003368    0.000006386
     13        1           0.000000774   -0.000001700   -0.000001061
     14        6          -0.000010092   -0.000003484   -0.000004246
     15        1          -0.000000223    0.000001378    0.000000459
     16        6           0.000007161    0.000012200   -0.000003733
     17        8          -0.000001233   -0.000005430    0.000005512
 -------------------------------------------------------------------
 Cartesian Forces:  Max     0.004194523 RMS     0.000923474
 -----------------------------------------------------------------------------------------------
                       Internal Coordinate Forces (Hartree/Bohr or radian)
  Cent   Atom   N1       Length/X         N2         Alpha/Y        N3         Beta/Z          J
 -----------------------------------------------------------------------------------------------
      1  H 
      2  N        1  -0.000001(     1)
      3  C        2  -0.000104(     2)      1   0.000519(    17)
      4  C        2  -0.000110(     3)      1   0.000513(    18)      3  -0.000151(    32)     0
      5  H        3  -0.000000(     4)      2  -0.000001(    19)      1   0.000001(    33)     0
      6  C        3   0.000021(     5)      2  -0.000307(    20)      5  -0.000010(    34)     0
      7  C        4   0.000036(     6)      2  -0.000314(    21)      1  -0.000010(    35)     0
      8  C        4   0.000000(     7)      2  -0.000009(    22)      7   0.000018(    36)     0
      9  H        6  -0.000002(     8)      3   0.000013(    23)      2  -0.000004(    37)     0
     10  H        8  -0.000000(     9)      4   0.000001(    24)      2   0.000019(    38)     0
     11  H        7  -0.000001(    10)      4   0.000005(    25)      2  -0.000012(    39)     0
     12  C        8   0.000003(    11)      4   0.000003(    26)     10   0.000016(    40)     0
     13  H       12  -0.000000(    12)      8  -0.000001(    27)      4   0.000021(    41)     0
     14  C       12  -0.000004(    13)      8   0.000006(    28)     13   0.000017(    42)     0
     15  H       14  -0.000001(    14)     12   0.000000(    29)      8   0.000007(    43)     0
     16  C       14   0.000005(    15)     12  -0.000003(    30)     15   0.000009(    44)     0
     17  O       16   0.000006(    16)     14  -0.000010(    31)     12   0.000003(    45)     0
 -----------------------------------------------------------------------------------------------
 Internal  Forces:  Max     0.000518634 RMS     0.000131260

 GradGradGradGradGradGradGradGradGradGradGradGradGradGradGradGradGradGrad
 Berny optimization.
 Search for a saddle point.
 Step number   3 out of a maximum of   55
 All quantities printed in internal units (Hartrees-Bohrs-Radians)
 Swapping is turned off.
 Update second derivatives using D2CorN and points    1    2    3
 ITU=  0  0  0
     Eigenvalues ---   -0.19494   0.01690   0.02026   0.02191   0.02973
     Eigenvalues ---    0.03829   0.04256   0.04789   0.05975   0.10017
     Eigenvalues ---    0.11057   0.11635   0.14349   0.16101   0.16555
     Eigenvalues ---    0.17975   0.18158   0.21164   0.23390   0.27154
     Eigenvalues ---    0.30755   0.31900   0.34266   0.34714   0.35137
     Eigenvalues ---    0.35594   0.35963   0.36939   0.37262   0.37463
     Eigenvalues ---    0.39664   0.42346   0.44797   0.46733   0.48223
     Eigenvalues ---    0.49923   0.53699   0.58660   0.81316   0.86585
     Eigenvalues ---    1.02785   1.49863   2.01878   2.11390  16.42070
 Eigenvectors required to have negative eigenvalues:
                          A17       D11       A12       D8        A16
   1                    0.61073   0.47891   0.29127  -0.21734   0.20078
                          R16       A8        A11       A14       R17
   1                   -0.20046  -0.17652   0.17102   0.14364  -0.12321
 RFO step:  Lambda0=1.673944178D-10 Lambda=-3.26784409D-07.
 Linear search not attempted -- option 19 set.
 Variable       Old X    -DE/DX   Delta X   Delta X   Delta X     New X
                                 (Linear)    (Quad)   (Total)
    R2        1.90588  -0.00000   0.00000  -0.00000  -0.00000   1.90588
    R3        2.61141  -0.00010   0.00000  -0.00001  -0.00001   2.61140
    R4        2.56458  -0.00011   0.00000   0.00002   0.00002   2.56460
    R5        2.03555  -0.00000   0.00000  -0.00000  -0.00000   2.03555
    R6        2.57520   0.00002   0.00000   0.00000   0.00000   2.57520
    R7        2.66851   0.00004   0.00000   0.00000   0.00000   2.66851
    R8        2.69152   0.00000   0.00000  -0.00001  -0.00001   2.69151
    R9        2.03452  -0.00000   0.00000  -0.00000  -0.00000   2.03452
   R10        2.04491  -0.00000   0.00000   0.00000   0.00000   2.04491
   R11        2.04335  -0.00000   0.00000   0.00000   0.00000   2.04335
   R12        2.56543   0.00000   0.00000   0.00000   0.00000   2.56543
   R13        2.04892  -0.00000   0.00000  -0.00000  -0.00000   2.04892
   R14        2.70433  -0.00000   0.00000  -0.00000  -0.00000   2.70433
   R15        2.05652  -0.00000   0.00000   0.00000   0.00000   2.05652
   R16        2.57625   0.00001   0.00000  -0.00001  -0.00001   2.57624
   R17        2.23695   0.00001   0.00000   0.00002   0.00002   2.23696
    A3        2.19562   0.00052   0.00000   0.00003   0.00003   2.19566
    A4        2.15950   0.00051   0.00000  -0.00002  -0.00002   2.15948
    A5        2.10647  -0.00000   0.00000   0.00001   0.00001   2.10648
    A6        1.89160  -0.00031   0.00000  -0.00001  -0.00001   1.89158
    A7        1.87147  -0.00031   0.00000  -0.00001  -0.00001   1.87146
    A8        2.19610  -0.00001   0.00000  -0.00002  -0.00002   2.19608
    A9        2.19034   0.00001   0.00000  -0.00000  -0.00000   2.19033
   A10        2.09768   0.00000   0.00000  -0.00002  -0.00002   2.09767
   A11        2.11580   0.00001   0.00000  -0.00003  -0.00003   2.11578
   A12        2.08161   0.00000   0.00000   0.00003   0.00003   2.08164
   A13        2.04998  -0.00000   0.00000  -0.00000  -0.00000   2.04998
   A14        2.22284   0.00001   0.00000   0.00000   0.00000   2.22284
   A15        2.04885   0.00000   0.00000   0.00000   0.00000   2.04885
   A16        2.25626  -0.00000   0.00000   0.00004   0.00004   2.25631
   A17        2.55695  -0.00001   0.00000   0.00002   0.00002   2.55696
    D4       -3.20238  -0.00015   0.00000  -0.00216  -0.00216  -3.20454
    D5       -0.04195   0.00000   0.00000  -0.00123  -0.00123  -0.04317
    D6        3.14803  -0.00001   0.00000  -0.00021  -0.00021   3.14782
    D7        3.17480  -0.00001   0.00000   0.00136   0.00136   3.17616
    D8       -3.01571   0.00002   0.00000   0.00004   0.00004  -3.01567
    D9       -3.11383  -0.00000   0.00000  -0.00010  -0.00010  -3.11393
   D10       -0.49738   0.00002   0.00000   0.00009   0.00009  -0.49729
   D11        2.59705  -0.00001   0.00000   0.00020   0.00020   2.59724
   D12        3.01142   0.00002   0.00000  -0.00012  -0.00012   3.01130
   D13       -3.06922   0.00002   0.00000  -0.00003  -0.00003  -3.06925
   D14        3.05428   0.00002   0.00000  -0.00001  -0.00001   3.05427
   D15       -2.85407   0.00001   0.00000  -0.00018  -0.00018  -2.85425
   D16        2.87857   0.00001   0.00000   0.00021   0.00021   2.87877
   D17        3.07296   0.00000   0.00000  -0.00013  -0.00013   3.07284
         Item               Value     Threshold  Converged?
 Maximum Force            0.000519     0.000450     NO 
 RMS     Force            0.000131     0.000300     YES
 Maximum Displacement     0.002164     0.001800     NO 
 RMS     Displacement     0.000428     0.001200     YES
 Predicted change in Energy=-1.633085D-07
 GradGradGradGradGradGradGradGradGradGradGradGradGradGradGradGradGradGrad

 ---------------------------------------------------------------------------------------------------
                            Z-MATRIX (ANGSTROMS AND DEGREES)
   CD    Cent   Atom    N1       Length/X        N2       Alpha/Y        N3        Beta/Z          J
 ---------------------------------------------------------------------------------------------------
      1      1  H 
      2      2  N        1   1.008547(     1)
      3      3  C        2   1.381892(     2)      1  125.802(    17)
      4      4  C        2   1.357127(     3)      1  123.729(    18)      3 -183.607(    32)      0
      5      5  H        3   1.077167(     4)      2  120.692(    19)      1   -2.474(    33)      0
      6      6  C        3   1.362737(     5)      2  108.380(    20)      5  180.357(    34)      0
      7      7  C        4   1.412114(     6)      2  107.227(    21)      1  181.981(    35)      0
      8      8  C        4   1.424285(     7)      2  125.826(    22)      7 -172.785(    36)      0
      9      9  H        6   1.076623(     8)      3  125.497(    23)      2 -178.415(    37)      0
     10     10  H        8   1.082122(     9)      4  120.187(    24)      2  -28.492(    38)      0
     11     11  H        7   1.081294(    10)      4  121.225(    25)      2  148.811(    39)      0
     12     12  C        8   1.357568(    11)      4  119.269(    26)     10  172.535(    40)      0
     13     13  H       12   1.084242(    12)      8  117.455(    27)      4 -175.855(    41)      0
     14     14  C       12   1.431069(    13)      8  127.359(    28)     13  174.997(    42)      0
     15     15  H       14   1.088262(    14)     12  117.391(    29)      8 -163.536(    43)      0
     16     16  C       14   1.363286(    15)     12  129.277(    30)     15  164.942(    44)      0
     17     17  O       16   1.183750(    16)     14  146.503(    31)     12  176.061(    45)      0
 ---------------------------------------------------------------------------------------------------
                         Z-Matrix orientation:                         
 ---------------------------------------------------------------------
 Center     Atomic      Atomic             Coordinates (Angstroms)
 Number     Number       Type             X           Y           Z
 ---------------------------------------------------------------------
      1          1           0        0.000000    0.000000    0.000000
      2          7           0        0.000000    0.000000    1.008547
      3          6           0        1.120777    0.000000    1.816931
      4          6           0       -1.126450    0.071001    1.762115
      5          1           0        2.108056   -0.039978    1.388013
      6          6           0        0.713281    0.047769    3.116437
      7          6           0       -0.723641    0.092323    3.115391
      8          6           0       -2.461758   -0.029739    1.276942
      9          1           0        1.362758    0.083703    3.974345
     10          1           0       -2.698515    0.278848    0.267137
     11          1           0       -1.300169    0.618598    3.863620
     12          6           0       -3.398166   -0.654848    2.035473
     13          1           0       -4.387672   -0.775679    1.609023
     14          6           0       -3.210653   -1.270834    3.313502
     15          1           0       -3.983069   -1.956098    3.657160
     16          6           0       -2.082065   -1.355395    4.073560
     17          8           0       -1.606499   -1.707345    5.098856
 ---------------------------------------------------------------------
                    Distance matrix (angstroms):
                    1          2          3          4          5
     1  H    0.000000
     2  N    1.008547   0.000000
     3  C    2.134802   1.381892   0.000000
     4  C    2.092601   1.357127   2.249016   0.000000
     5  H    2.524298   2.142310   1.077167   3.257959   0.000000
     6  C    3.197379   2.225815   1.362737   2.284587   2.222734
     7  C    3.199662   2.229567   2.257521   1.412114   3.319615
     8  C    2.773394   2.476524   3.623124   1.424285   4.571175
     9  H    4.202324   3.264976   2.172555   3.330207   2.694416
    10  H    2.726005   2.812371   4.131176   2.179346   4.945821
    11  H    4.123186   3.197584   3.229950   2.178615   4.263608
    12  C    4.014911   3.609839   4.571372   2.400475   5.578150
    13  H    4.737330   4.495989   5.566679   3.372814   6.540993
    14  C    4.785666   4.151641   4.755631   2.924248   5.788884
    15  H    5.750302   5.167814   5.767322   3.982537   6.776603
    16  C    4.771371   3.945427   4.145801   2.879338   5.147776
    17  O    5.611969   4.714498   4.596095   3.811405   5.508937
                    6          7          8          9         10
     6  C    0.000000
     7  C    1.437613   0.000000
     8  C    3.670234   2.532951   0.000000
     9  H    1.076623   2.256310   4.681428   0.000000
    10  H    4.451097   3.470947   1.082122   5.502310   0.000000
    11  H    2.222185   1.081294   2.908699   2.718373   3.873692
    12  C    4.308846   2.979526   1.357568   5.193369   2.118564
    13  H    5.382387   4.055576   2.091853   6.277000   2.401236
    14  C    4.144249   2.843004   2.499747   4.815347   3.456029
    15  H    5.134546   3.887597   3.419163   5.730554   4.258793
    16  C    3.270919   2.204380   3.118108   3.734655   4.188033
    17  O    3.520197   2.819996   4.260616   3.645389   5.336944
                   11         12         13         14         15
    11  H    0.000000
    12  C    3.060291   0.000000
    13  H    4.069385   1.084242   0.000000
    14  C    2.742723   1.431069   2.129742   0.000000
    15  H    3.724196   2.159914   2.398324   1.088262   0.000000
    16  C    2.133562   2.525211   3.424302   1.363286   2.036676
    17  O    2.651351   3.701640   4.558713   2.439537   2.790779
                   16         17
    16  C    0.000000
    17  O    1.183750   0.000000
 Symmetry turned off by external request.
 Stoichiometry    C8H7NO
 Framework group  C1[X(C8H7NO)]
 Deg. of freedom    45
 Full point group                 C1      NOp   1
 Rotational constants (GHZ):           2.1743507           1.3051488           0.8524980
 Standard basis: def2TZVP (5D, 7F)
 The following finite field(s) will be applied:
 An electric field of             -0.0061 -0.0013  0.0079
   352 basis functions,   566 primitive gaussians,   402 cartesian basis functions
    35 alpha electrons       35 beta electrons
       nuclear repulsion energy       476.7195947917 Hartrees.
 NAtoms=   17 NActive=   17 NUniq=   17 SFac= 1.00D+00 NAtFMM=   60 NAOKFM=F Big=F
 Integral buffers will be    131072 words long.
 Raffenetti 2 integral format.
 Two-electron integral symmetry is turned off.
 One-electron integrals computed using PRISM.
   1 Symmetry operations used in ECPInt.
 ECPInt:  NShTT=    9591 NPrTT=   29644 LenC2=    9317 LenP2D=   22640.
 LDataN:  DoStor=T MaxTD1= 6 Len=  172
 NBasis=   352 RedAO= T EigKep=  3.84D-05  NBF=   352
 NBsUse=   352 1.00D-06 EigRej= -1.00D+00 NBFU=   352
 The nuclear repulsion energy is now       480.5734813121 hartrees.
 Initial guess from the checkpoint file:  "checkpoint.chk"
 B after Tr=    -0.000079   -0.001559    0.000166
         Rot=    1.000000    0.000557    0.000001    0.000638 Ang=   0.10 deg.
 Requested convergence on RMS density matrix=1.00D-08 within 128 cycles.
 Requested convergence on MAX density matrix=1.00D-06.
 Requested convergence on             energy=1.00D-06.
 No special actions if energy rises.
 SCF Done:  E(RB3LYP) =  -439.156081200     A.U. after    7 cycles
            NFock=  7  Conv=0.67D-08     -V/T= 2.0050
   1 Symmetry operations used in ECPInt.
 ECPInt:  NShTT=    9591 NPrTT=   29644 LenC2=    9317 LenP2D=   22640.
 LDataN:  DoStor=T MaxTD1= 7 Len=  274
 Calling FoFJK, ICntrl=      2127 FMM=F ISym2X=0 I1Cent= 0 IOpClX= 0 NMat=1 NMatS=1 NMatT=0.
 -------------------------------------------------------------------
 Center     Atomic                   Forces (Hartrees/Bohr)
 Number     Number              X              Y              Z
 -------------------------------------------------------------------
      1        1           0.002819083   -0.002796844    0.000000110
      2        7          -0.002819591    0.004266696    0.000006802
      3        6           0.000007538   -0.001493907   -0.000004055
      4        6          -0.000005495    0.000031537   -0.000003489
      5        1          -0.000000112   -0.000006037    0.000000405
      6        6           0.000034966    0.000000789    0.000001815
      7        6          -0.000032939    0.000006611   -0.000000760
      8        6           0.000000715   -0.000011839   -0.000003254
      9        1           0.000001835   -0.000000773   -0.000000668
     10        1          -0.000002026    0.000005113    0.000002205
     11        1          -0.000002211   -0.000001488    0.000000060
     12        6           0.000002657   -0.000002020   -0.000001065
     13        1           0.000000110   -0.000000608   -0.000000185
     14        6          -0.000002987    0.000000823    0.000002266
     15        1           0.000000929   -0.000000353   -0.000000048
     16        6          -0.000003261    0.000008274    0.000002944
     17        8           0.000000789   -0.000005972   -0.000003082
 -------------------------------------------------------------------
 Cartesian Forces:  Max     0.004266696 RMS     0.000930528
 -----------------------------------------------------------------------------------------------
                       Internal Coordinate Forces (Hartree/Bohr or radian)
  Cent   Atom   N1       Length/X         N2         Alpha/Y        N3         Beta/Z          J
 -----------------------------------------------------------------------------------------------
      1  H 
      2  N        1  -0.000000(     1)
      3  C        2   0.000034(     2)      1  -0.000167(    17)
      4  C        2   0.000035(     3)      1  -0.000171(    18)      3  -0.000038(    32)     0
      5  H        3  -0.000000(     4)      2   0.000000(    19)      1  -0.000012(    33)     0
      6  C        3  -0.000010(     5)      2   0.000095(    20)      5  -0.000002(    34)     0
      7  C        4  -0.000011(     6)      2   0.000093(    21)      1   0.000011(    35)     0
      8  C        4   0.000003(     7)      2  -0.000006(    22)      7   0.000002(    36)     0
      9  H        6   0.000001(     8)      3  -0.000004(    23)      2  -0.000001(    37)     0
     10  H        8  -0.000000(     9)      4   0.000002(    24)      2  -0.000008(    38)     0
     11  H        7   0.000000(    10)      4  -0.000002(    25)      2   0.000004(    39)     0
     12  C        8   0.000002(    11)      4   0.000012(    26)     10   0.000002(    40)     0
     13  H       12   0.000000(    12)      8   0.000000(    27)      4   0.000003(    41)     0
     14  C       12   0.000000(    13)      8   0.000010(    28)     13   0.000002(    42)     0
     15  H       14  -0.000000(    14)     12   0.000001(    29)      8   0.000002(    43)     0
     16  C       14  -0.000002(    15)     12   0.000002(    30)     15   0.000001(    44)     0
     17  O       16  -0.000001(    16)     14  -0.000001(    31)     12   0.000008(    45)     0
 -----------------------------------------------------------------------------------------------
 Internal  Forces:  Max     0.000171315 RMS     0.000042142

 GradGradGradGradGradGradGradGradGradGradGradGradGradGradGradGradGradGrad
 Berny optimization.
 Search for a saddle point.
 Step number   4 out of a maximum of   55
 All quantities printed in internal units (Hartrees-Bohrs-Radians)
 Swapping is turned off.
 Update second derivatives using D2CorN and points    1    2    3    4
 ITU=  0  0  0  0
     Eigenvalues ---   -0.19521   0.00992   0.01577   0.01891   0.02945
     Eigenvalues ---    0.03568   0.04100   0.04760   0.05950   0.10016
     Eigenvalues ---    0.11035   0.11604   0.14220   0.16040   0.16546
     Eigenvalues ---    0.17976   0.18157   0.21165   0.23391   0.27155
     Eigenvalues ---    0.30762   0.31878   0.34270   0.34691   0.35144
     Eigenvalues ---    0.35594   0.35977   0.36937   0.37262   0.37465
     Eigenvalues ---    0.39662   0.42341   0.44795   0.46733   0.48225
     Eigenvalues ---    0.49923   0.53702   0.58662   0.81320   0.86589
     Eigenvalues ---    1.02630   1.49845   2.01865   2.11380  16.43051
 Eigenvectors required to have negative eigenvalues:
                          A17       D11       A12       D8        A16
   1                    0.61147   0.47717   0.29326  -0.21640   0.20190
                          R16       A8        A11       A14       R17
   1                   -0.20023  -0.17761   0.17001   0.14471  -0.12317
 RFO step:  Lambda0=2.398900523D-12 Lambda=-1.69478339D-07.
 Linear search not attempted -- option 19 set.
 Variable       Old X    -DE/DX   Delta X   Delta X   Delta X     New X
                                 (Linear)    (Quad)   (Total)
    R2        1.90588  -0.00000   0.00000   0.00000   0.00000   1.90588
    R3        2.61140   0.00003   0.00000   0.00002   0.00002   2.61141
    R4        2.56460   0.00004   0.00000   0.00002   0.00002   2.56462
    R5        2.03555  -0.00000   0.00000   0.00000   0.00000   2.03555
    R6        2.57520  -0.00001   0.00000  -0.00001  -0.00001   2.57519
    R7        2.66851  -0.00001   0.00000  -0.00002  -0.00002   2.66849
    R8        2.69151   0.00000   0.00000   0.00004   0.00004   2.69155
    R9        2.03452   0.00000   0.00000  -0.00000  -0.00000   2.03452
   R10        2.04491  -0.00000   0.00000  -0.00000  -0.00000   2.04491
   R11        2.04335   0.00000   0.00000  -0.00000  -0.00000   2.04335
   R12        2.56543   0.00000   0.00000  -0.00002  -0.00002   2.56541
   R13        2.04892   0.00000   0.00000   0.00000   0.00000   2.04892
   R14        2.70433   0.00000   0.00000   0.00003   0.00003   2.70435
   R15        2.05652  -0.00000   0.00000   0.00000   0.00000   2.05652
   R16        2.57624  -0.00000   0.00000  -0.00000  -0.00000   2.57623
   R17        2.23696  -0.00000   0.00000   0.00002   0.00002   2.23698
    A3        2.19566  -0.00017   0.00000   0.00001   0.00001   2.19566
    A4        2.15948  -0.00017   0.00000  -0.00011  -0.00011   2.15937
    A5        2.10648   0.00000   0.00000  -0.00001  -0.00001   2.10647
    A6        1.89158   0.00010   0.00000   0.00002   0.00002   1.89160
    A7        1.87146   0.00009   0.00000   0.00001   0.00001   1.87147
    A8        2.19608  -0.00001   0.00000   0.00000   0.00000   2.19608
    A9        2.19033  -0.00000   0.00000  -0.00000  -0.00000   2.19033
   A10        2.09767   0.00000   0.00000   0.00004   0.00004   2.09771
   A11        2.11578  -0.00000   0.00000   0.00003   0.00003   2.11581
   A12        2.08164   0.00001   0.00000  -0.00005  -0.00005   2.08159
   A13        2.04998   0.00000   0.00000   0.00002   0.00002   2.05000
   A14        2.22284   0.00001   0.00000  -0.00004  -0.00004   2.22280
   A15        2.04885   0.00000   0.00000   0.00002   0.00002   2.04887
   A16        2.25631   0.00000   0.00000  -0.00005  -0.00005   2.25626
   A17        2.55696  -0.00000   0.00000  -0.00006  -0.00006   2.55690
    D4       -3.20454  -0.00004   0.00000  -0.00236  -0.00236  -3.20690
    D5       -0.04317  -0.00001   0.00000  -0.00235  -0.00235  -0.04553
    D6        3.14782  -0.00000   0.00000   0.00058   0.00058   3.14839
    D7        3.17616   0.00001   0.00000   0.00172   0.00172   3.17789
    D8       -3.01567   0.00000   0.00000   0.00010   0.00010  -3.01557
    D9       -3.11393  -0.00000   0.00000  -0.00030  -0.00030  -3.11423
   D10       -0.49729  -0.00001   0.00000  -0.00072  -0.00072  -0.49801
   D11        2.59724   0.00000   0.00000   0.00041   0.00041   2.59765
   D12        3.01130   0.00000   0.00000   0.00040   0.00040   3.01169
   D13       -3.06925   0.00000   0.00000  -0.00018  -0.00018  -3.06943
   D14        3.05427   0.00000   0.00000   0.00005   0.00005   3.05432
   D15       -2.85425   0.00000   0.00000   0.00006   0.00006  -2.85419
   D16        2.87877   0.00000   0.00000  -0.00002  -0.00002   2.87875
   D17        3.07284   0.00001   0.00000   0.00040   0.00040   3.07323
         Item               Value     Threshold  Converged?
 Maximum Force            0.000171     0.000450     YES
 RMS     Force            0.000042     0.000300     YES
 Maximum Displacement     0.002365     0.001800     NO 
 RMS     Displacement     0.000589     0.001200     YES
 Predicted change in Energy=-8.473797D-08
[...]
   zz         0.136891D+03      0.202851D+02      0.225702D+02

 ----------------------------------------------------------------------
 1\1\GINC-BHC0034\Freq\RB3LYP\def2TZVP\C8H7N1O1\DHANAWAY\11-Jun-2022\1\
 \#N Geom=AllCheck Guess=TCheck SCRF=Check GenChk RB3LYP/def2TZVP Freq\
 \ts_zmat_initalOpt\\0,1\H\N,1,R2\C,2,R3,1,A3\C,2,R4,1,A4,3,D4,0\H,3,R5
 ,2,A5,1,D5,0\C,3,R6,2,A6,5,D6,0\C,4,R7,2,A7,1,D7,0\C,4,R8,2,A8,7,D8,0\
 H,6,R9,3,A9,2,D9,0\H,8,R10,4,A10,2,D10,0\H,7,R11,4,A11,2,D11,0\C,8,R12
 ,4,A12,10,D12,0\H,12,R13,8,A13,4,D13,0\C,12,R14,8,A14,13,D14,0\H,14,R1
 5,12,A15,8,D15,0\C,14,R16,12,A16,15,D16,0\O,16,R17,14,A17,12,D17,0\\R2
 =1.00854955\R3=1.38190055\R4=1.35713594\R5=1.07716701\R6=1.36273273\R7
 =1.41210521\R8=1.42430572\R9=1.07662207\R10=1.08212085\R11=1.08129265\
 R12=1.35755526\R13=1.08424287\R14=1.43108272\R15=1.08826287\R16=1.3632
 8456\R17=1.18375964\A3=125.8021958\A4=123.72293857\A5=120.69203605\A6=
 108.38080501\A7=107.22754929\A8=125.82609821\A9=125.49669567\A10=120.1
 8991133\A11=121.22678373\A12=119.26658452\A13=117.45630672\A14=127.356
 79204\A15=117.39153416\A16=129.27401249\A17=146.4993605\D4=-183.742109
 86\D5=-2.60842318\D6=180.389728\D7=182.07955397\D8=-172.77948165\D9=-1
 78.43220701\D10=-28.53359944\D11=148.83447195\D12=172.55731581\D13=-17
 5.86535227\D14=174.999715\D15=-163.53278605\D16=164.94043141\D17=176.0
 8331094\\Version=ES64L-G16RevA.03\HF=-439.1560813\RMSD=5.375e-09\RMSF=
 9.393e-04\ZeroPoint=0.1299445\Thermal=0.1375716\Dipole=1.2377025,0.792
 3106,-2.4970886\DipoleDeriv=0.1710615,0.0060101,-0.0508659,-0.0168711,
 0.2979699,0.0059814,-0.0758975,-0.0252232,0.327477,-0.4213237,-0.16220
 1,0.1394186,0.0598594,-0.1421654,-0.087696,0.310675,0.0181618,-0.52900
 95,-0.0129376,-0.0413256,0.1975211,-0.0201462,-0.0781277,-0.0007417,0.
 0163439,0.0817813,0.1812986,0.369953,0.0439849,-0.2153351,0.0091034,0.
 0021083,0.1032098,-0.4751449,-0.1409089,0.5144058,0.0938505,0.0069467,
 -0.0043236,0.017197,0.1887275,-0.0010743,0.0057233,-0.0069015,0.089244
 4,-0.0664299,0.0311946,-0.0355238,-0.0657584,-0.2604672,0.0142378,0.12
 17749,0.0102106,-0.0486512,-0.0126083,-0.1772295,0.2740569,-0.2051429,
 -0.2480446,0.366358,0.2769238,0.2401842,-0.5605253,-0.1618351,-0.00434
 79,0.155434,-0.0939618,-0.2533218,0.0584966,0.0578678,0.0099318,-0.126
 6095,0.0212674,-0.0140424,-0.0433175,0.0144916,0.158733,-0.0006368,-0.
 0647503,-0.0106892,0.0217376,0.0359562,-0.0168679,-0.0189033,0.0087521
 ,0.1426609,0.0465516,-0.0281481,0.0556242,-0.0084176,0.0444537,0.04436
 01,0.0134732,0.1054217,0.1598847,-0.147105,0.014731,-0.031291,0.085700
 9,0.0748537,0.0388874,0.0365437,0.0783706,0.0560523,-0.3087752,-0.1960
 213,-0.3005891,0.4393491,-0.1121764,-0.0307962,-0.0764181,-0.0136701,0
 .1085673,0.0142721,-0.0530971,0.0142737,0.062045,-0.4100455,0.2431943,
 -0.3744194,-0.0168398,-0.2880223,0.0371158,0.2246394,0.2162334,-0.7298
 728,-0.1153807,-0.1667212,0.0911118,-0.1241792,0.0398333,0.1118055,-0.
 0016562,0.0863297,0.049549,0.9183672,0.0136251,0.3923367,0.3871055,0.7
 136066,-0.7961446,-0.0981147,-1.1176228,2.1390293,-0.417026,0.1853285,
 -0.4807894,-0.1237317,-0.5979946,0.5841449,-0.035849,0.900495,-1.90675
 08\Polar=137.1404472,17.459339,73.355849,-6.6421707,-21.503071,117.503
 7876\PG=C01 [X(C8H7N1O1)]\NImag=1\\0.06240190,-0.00138843,0.01375700,-
 0.00160063,0.00208431,0.46414783,-0.07547526,-0.00102050,-0.00028471,0
 .61100850,0.00110525,-0.00921846,-0.00171822,-0.01093893,0.08842607,-0
 .00084719,0.00251591,-0.44860547,-0.01011265,0.01543680,0.94081446,0.0
 1204749,0.00004904,0.00366139,-0.22348812,0.00228453,-0.08055871,0.775
 80343,-0.00072396,-0.00614191,-0.00002920,0.00434683,-0.05243946,-0.00
 227789,-0.02397600,0.12580526,-0.02445223,0.00036553,-0.00767136,-0.06
 142473,-0.00166879,-0.17230914,-0.15418507,0.01915202,0.67850012,0.010
 01150,0.00156887,-0.00135206,-0.24125779,0.01364385,0.08638127,-0.0928
 4130,0.00267552,-0.02164935,0.76216654,-0.00019738,-0.00422930,0.00036
 453,0.00870878,-0.06342099,-0.00690495,0.00372557,0.01202964,0.0023318
 1,0.01260275,0.16974560,0.02839576,-0.00369347,-0.01125632,0.08656886,
 -0.00103849,-0.19363319,0.01438196,0.00173428,0.01673446,0.05165115,0.
 01474131,0.62082325,0.00010729,0.00003965,-0.00008089,-0.01772212,0.00
 121553,0.01074541,-0.30801525,0.01111805,0.10790009,-0.00051305,-0.000
 26721,-0.00360133,0.32366368,-0.00000448,-0.00126054,-0.00010890,-0.00
 138599,-0.00137106,0.00024608,0.01209828,-0.03018388,-0.00530102,0.000
 66318,0.00228762,-0.00050522,-0.01247213,0.02245505,0.00068225,0.00004
 324,0.00064230,-0.02417791,0.00145125,0.01260358,0.11758228,-0.0053832
 7,-0.11157207,-0.00293731,-0.00022117,-0.00417795,-0.11542220,0.005457
 75,0.10405313,-0.00544869,0.00073134,-0.00218440,0.00543644,0.00161299
 ,-0.01266946,-0.13677338,-0.00037278,0.07556174,-0.03561314,-0.0012576
 1,-0.04545675,0.00223896,0.00038650,0.02320786,0.59744537,0.00007845,0
 .00203536,0.00004626,-0.00075763,0.01352727,-0.00357941,0.00305827,-0.
 06528245,-0.01264308,0.00082676,0.00973207,0.00027174,0.00022133,0.003
 37246,-0.00048378,-0.00937221,0.12306336,-0.00448333,-0.00031211,0.000
 92907,-0.05358732,-0.00203186,-0.07825816,0.09787931,-0.01108160,-0.37
 227974,-0.01539391,-0.00059541,-0.01517182,-0.00065593,0.00002655,0.00
 158073,0.11173537,0.03229285,0.80835031,-0.00602463,-0.00019684,0.0018
 1909,-0.02661320,-0.00109353,0.01233264,-0.02792053,0.00823689,0.07623
 943,-0.10709415,0.00745172,-0.07747687,0.00077072,0.00090632,0.0014902
 3,-0.24181218,0.00290328,-0.01820708,0.54957833,0.00092938,0.00450127,
 -0.00125536,-0.01146755,0.01449933,-0.00515658,0.00695222,0.01305133,0
 .01120461,-0.00538592,-0.07044073,-0.03724857,0.00053733,0.00638206,-0
 .00089909,0.02826463,-0.06362977,-0.01306343,-0.12439055,0.17510097,0.
 00378289,-0.00027429,0.00135848,0.04751884,-0.00718738,-0.06979665,0.0
 1950190,-0.00070912,-0.02079698,-0.04539526,-0.00963655,-0.26331893,-0
 .00015120,0.00021255,-0.00480689,-0.01256888,-0.00581793,-0.09341157,-
 0.05386205,0.14518597,0.64212264,0.00150745,-0.00072455,-0.00091804,-0
 .05016388,-0.00770266,0.00257978,0.00644196,-0.00099597,0.00725279,-0.
 24060639,-0.00829801,-0.05327656,-0.00064931,-0.00000226,-0.00077237,0
 .00101691,-0.00003956,-0.00387893,-0.00467680,0.01502682,-0.02733936,0
 .62742244,-0.00011185,-0.00291430,-0.00077385,0.00223571,0.00091225,0.
 00345246,-0.00140281,0.00212932,-0.00576096,-0.00714970,-0.05647792,0.
 01020218,-0.00009072,0.00172329,-0.00017475,-0.00385575,0.00274317,0.0
 0173177,0.00515391,0.01061110,-0.00677098,0.12475403,0.22865793,-0.000
 37904,-0.00013856,0.00145163,0.02372943,-0.00021435,0.01830773,0.00423
 446,0.00001330,-0.00275163,-0.08119302,0.00335718,-0.14137536,0.000847
 89,-0.00005446,0.00123878,0.00119087,-0.00082374,-0.00646164,-0.032738
 23,-0.00268706,-0.00149460,0.00318690,-0.20955909,0.65627351,0.0008315
 2,-0.00000234,0.00028926,0.00031477,0.00010721,0.00380843,0.01069808,0
 .00039025,0.00865007,-0.00597425,0.00027087,0.00153269,-0.00004163,-0.
 00007750,-0.00075248,-0.16521977,-0.00568334,-0.14502598,-0.00687897,-
 0.00151326,-0.02254168,0.00035217,0.00013405,-0.00138409,0.16533312,-0
 .00006841,0.00191031,0.00006010,-0.00068257,0.00560761,-0.00079416,-0.
 00092971,0.00033325,0.00102277,0.00080684,0.00281249,-0.00037564,-0.00
 008635,-0.00356772,0.00022942,-0.00308227,-0.02745888,-0.01104097,-0.0
 0207421,-0.00226219,0.00047128,0.00003361,0.00135609,-0.00036666,0.006
 13278,0.02170781,-0.00113458,-0.00003278,-0.00002556,0.00165746,-0.000
 43363,-0.00487531,-0.01974900,-0.00064236,-0.01195058,0.00234367,-0.00
 002809,-0.00034032,0.00042189,0.00025895,0.00047707,-0.14145874,-0.009
 88042,-0.24722568,0.00344260,0.00051040,0.00753937,-0.00012833,-0.0000
 4387,0.00044911,0.15514407,0.01024275,0.25607254,-0.00082894,0.0002718
 9,0.00017413,0.00272556,-0.00051876,0.00115904,-0.00057015,-0.00005016
 ,-0.00091921,-0.00065671,0.00786053,-0.02756419,0.00000460,-0.00005595
 ,0.00003542,-0.00083320,-0.00015458,-0.00121078,-0.00336072,0.00103978
 ,-0.00047296,-0.07294653,0.01316742,-0.06184515,-0.00040402,-0.0001807
 4,0.00014374,0.07083187,0.00034324,0.00046221,0.00036414,0.00119730,-0
 .00095918,-0.00121765,-0.00024843,-0.00018638,-0.00003023,-0.00731650,
 0.00189423,-0.00724879,0.00001572,-0.00000180,0.00001519,0.00004115,0.
 00000424,-0.00022739,-0.00196392,0.00066489,0.00180591,0.01967487,-0.0
 5122113,0.08134387,-0.00013999,0.00003236,-0.00003712,-0.01113241,0.05
 139053,-0.00056512,0.00028331,0.00004948,0.00094263,-0.00053381,0.0004
 6813,-0.00078257,-0.00018459,-0.00042786,-0.00301372,0.00168564,-0.007
 72531,0.00000898,0.00003339,0.00000131,-0.00006332,-0.00013908,-0.0000
 7344,-0.00117749,0.00068597,0.00181765,-0.05759294,0.08420063,-0.29814
 860,-0.00012370,0.00002127,0.00007455,0.06556851,-0.09110453,0.3147550
 0,0.00064346,0.00116714,0.00006032,0.00234508,0.00170318,-0.00380877,-
 0.00757491,0.00026418,-0.00242251,0.00720687,-0.00682831,-0.00124224,0
 .00016504,-0.00084973,0.00131742,-0.00916440,0.01280256,0.02316910,-0.
 12492471,0.08010902,0.09696035,-0.00087053,-0.00124558,0.00059468,0.00
 065014,-0.00113718,-0.00062162,-0.00008742,0.00033268,0.00012941,0.133
 58405,-0.00001147,0.00140896,0.00072840,0.00649291,0.00156589,0.000917
 53,-0.00256107,0.00156681,-0.00665660,0.00048803,-0.00136005,0.0138728
 7,-0.00016348,0.00071129,0.00024666,-0.00874592,-0.00055555,0.00489462
 ,0.09683243,-0.08571989,-0.12513642,-0.00328982,-0.00392727,0.00174142
 ,0.00012220,-0.00093805,0.00003320,-0.00028840,0.00033067,0.00012038,-
 0.08155471,0.10118569,0.00104267,0.00011676,-0.00037058,-0.00478304,0.
 00002575,-0.00548854,-0.00041538,-0.00144134,0.00333948,0.01763403,-0.
 01288402,-0.01541308,0.00008485,-0.00044033,0.00017361,0.00133906,0.00
 285096,0.00259801,0.09591619,-0.10599264,-0.18021753,0.00108921,0.0026
 9079,-0.00072431,0.00063011,0.00054590,-0.00014085,-0.00013662,0.00013
 069,0.00001720,-0.11497052,0.11036881,0.19680082,-0.00003453,-0.000089
 19,0.00007685,0.00818204,0.00048441,-0.00638514,-0.00543018,0.00014472
 ,-0.00533586,-0.05561796,-0.01837326,0.01152896,-0.00008327,-0.0000661
 3,-0.00029185,-0.00404263,0.00128008,0.00393653,0.00502400,-0.00203744
 ,0.00376144,-0.25374237,-0.11627785,0.13325681,0.00001289,0.00029622,0
 .00000827,0.00808900,0.00018298,-0.00561964,-0.00034912,-0.00114940,0.
 00083745,0.67842974,-0.00058756,-0.00010479,0.00018913,0.00301295,0.00
 346353,-0.00220383,-0.00046539,0.00148316,0.00301857,-0.02187141,-0.00
 155485,-0.00914803,0.00021855,0.00001210,0.00020948,0.00377404,-0.0004
 2325,0.00036427,-0.00267526,-0.00907900,0.00846196,-0.11146890,-0.1268
 6689,0.10578506,0.00013819,-0.00031282,-0.00000841,-0.00651423,-0.0046
 8537,0.00401677,-0.00017598,0.00207048,-0.00054585,0.16555594,0.280195
 68,0.00019046,-0.00073906,-0.00099134,-0.00724840,-0.00076054,0.004667
 43,0.00035653,-0.00143351,-0.00548367,0.02991271,0.00089453,0.03578324
 ,-0.00045314,-0.00032656,-0.00058740,-0.00767750,0.00120851,-0.0002188
 9,0.00876065,0.01724523,-0.01711384,0.08872463,0.08136505,-0.20340581,
 -0.00016017,0.00051231,0.00004511,0.02174596,0.01683672,-0.01255221,-0
 .00105525,-0.00598726,0.00134727,0.01475992,-0.20162206,0.53658566,0.0
 0000882,-0.00010133,-0.00010746,-0.00019191,-0.00043761,-0.00049179,-0
 .00033729,0.00017077,-0.00010680,-0.00044028,-0.00354605,0.00253289,-0
 .00002059,0.00020473,-0.00006096,-0.00029363,-0.00015404,0.00015645,0.
 00043731,0.00056857,-0.00031730,-0.01926263,-0.00293816,-0.00981510,-0
 .00002065,0.00001117,-0.00000837,0.00054980,0.00177293,0.00067812,-0.0
 0004226,-0.00010348,0.00003801,-0.28075063,-0.03247482,-0.10238274,0.3
 0097661,-0.00001835,0.00017523,-0.00001185,-0.00201751,0.00020581,-0.0
 0164544,0.00000522,-0.00010156,0.00135430,-0.00401961,0.00595065,0.005
 67227,-0.00010138,-0.00021750,-0.00010714,0.00070290,0.00010956,-0.000
 50165,-0.00026254,-0.00098868,0.00102413,-0.01419206,0.00321532,-0.007
 01998,-0.00001024,-0.00008281,-0.00000812,0.00181498,-0.00466436,-0.00
 204506,0.00014046,0.00028341,-0.00022963,-0.03410080,-0.04738206,-0.00
 193115,0.03874716,0.03825349,-0.00001747,0.00012416,0.00002394,-0.0005
 1609,-0.00000104,0.00020612,0.00028442,-0.00016663,0.00061461,0.001448
 86,0.00441826,-0.00026264,0.00001513,-0.00012711,0.00002557,0.00058296
 ,-0.00004885,-0.00025043,-0.00037702,-0.00051154,0.00070299,0.01708468
 ,0.00369655,0.00894183,0.00000606,-0.00004067,-0.00000163,0.00078959,-
 0.00242664,0.00019441,0.00017902,0.00035442,-0.00013413,-0.10325632,-0
 .00512849,-0.09470748,0.10915045,-0.00106429,0.09960470,-0.00059703,0.
 00047507,0.00020048,-0.00389244,0.00120152,-0.00275549,-0.00009570,0.0
 0177182,0.00949253,-0.01778819,-0.00388947,-0.01731406,0.00030899,0.00
 075842,0.00035368,0.01036215,-0.00330202,-0.00105029,-0.02000467,-0.02
 064116,0.01778828,0.02813386,0.00590897,0.01066476,0.00014233,-0.00047
 111,-0.00016543,-0.00034203,-0.00461727,0.00129323,-0.00109384,0.00642
 616,-0.00208815,-0.09570445,-0.02307923,0.00566371,-0.00139384,0.00839
 169,-0.02609936,0.52889158,-0.00003401,-0.00025797,-0.00035973,-0.0067
 6883,-0.00043799,0.00235733,0.00203858,0.00028816,0.00399511,0.0087932
 8,-0.00256346,-0.00193540,0.00003524,0.00054417,0.00015223,0.00328763,
 -0.00324101,-0.00057612,-0.01387394,-0.00279746,0.00203002,-0.01125057
 ,-0.00733274,0.02181490,-0.00006249,-0.00001246,-0.00010311,-0.0033845
 2,0.00613463,0.00251101,0.00001440,0.00280099,-0.00120384,0.00421305,-
 0.09589504,0.09750771,-0.00202693,0.00461478,-0.00217434,0.13807845,0.
 28217408,-0.00040721,0.00050236,0.00051329,0.00419844,-0.00031226,-0.0
 0187373,0.00000056,0.00103944,0.00133868,-0.01799493,-0.00323209,-0.01
 050951,0.00004140,-0.00016060,0.00021020,0.00315794,0.00275395,-0.0001
 8906,0.00325184,-0.00877467,0.00449083,0.02750671,0.03448744,-0.031140
 49,0.00033554,-0.00023218,0.00005165,0.00100290,0.00206351,0.00223550,
 -0.00095957,0.00109593,0.00101634,-0.03833264,0.07696777,-0.21823475,0
 .00137325,0.00191246,-0.01138438,0.13498468,-0.21303730,0.53292878,-0.
 00015577,-0.00003494,-0.00013916,-0.00224075,0.00028294,-0.00004128,0.
 00021433,0.00040511,0.00227404,-0.00150924,-0.00104162,-0.00420243,0.0
 0007631,0.00022680,0.00003967,0.00185774,-0.00123859,-0.00034493,-0.00
 339712,-0.00252314,0.00333511,0.00203089,0.00057158,-0.00304320,-0.000
 08535,-0.00008946,-0.00003767,0.00042561,-0.00020454,-0.00026403,0.000
 31410,0.00104749,-0.00063073,0.00518174,0.00193210,0.00100288,0.000523
 48,0.00134284,0.00080013,-0.18271641,-0.12617602,0.05387885,0.19693117
 ,0.00015413,0.00012270,0.00010031,0.00185051,0.00021711,-0.00074866,-0
 .00124488,-0.00026595,-0.00111260,-0.00167629,0.00094989,-0.00022720,0
 .00004053,0.00008182,0.00003077,-0.00063532,-0.00046167,0.00124707,-0.
 00040917,0.00178442,-0.00099202,0.00399201,0.00084729,0.00316871,-0.00
 003497,0.00001546,-0.00001242,-0.00069657,0.00031071,0.00042348,-0.000
 22005,0.00061931,0.00006598,-0.01059382,-0.00725122,0.00339391,0.00071
 242,-0.00058265,-0.00059993,-0.13366841,-0.13755418,0.06460971,0.14010
 517,0.14173381,-0.00003326,0.00014264,0.00008947,0.00085095,0.00009709
 ,-0.00050494,-0.00074832,-0.00000136,0.00019444,-0.00281555,0.00071718
 ,-0.00159584,0.00005291,0.00012661,0.00006699,0.00069364,-0.00073285,0
 .00067283,-0.00297285,-0.00103637,0.00090810,0.00033914,0.00319604,-0.
 00192993,0.00001515,-0.00001573,-0.00002221,0.00089494,-0.00013620,-0.
 00074324,-0.00022493,0.00112922,-0.00011551,0.02069081,0.01700358,-0.0
 0721444,0.00023626,-0.00116160,0.00044129,0.04536623,0.06070273,-0.066
 22816,-0.05577809,-0.07212644,0.07207839,0.00146779,-0.00127159,0.0002
 4008,0.01307908,-0.00400117,-0.00061523,-0.00436877,-0.00367916,-0.020
 89402,0.02906531,0.00611800,0.04234703,-0.00031137,-0.00030399,-0.0004
 1898,-0.02492342,-0.00173945,0.00946371,0.01687593,0.04674911,-0.04415
 797,-0.03084731,-0.02620158,0.01780256,-0.00021287,0.00130290,0.000148
 71,-0.00353885,0.00234945,0.00074103,-0.00054169,-0.01637083,0.0050517
 4,-0.00970660,0.03739446,-0.06831373,0.00014238,0.00431120,0.00142694,
 -0.21427369,-0.01448408,-0.11786462,-0.01947604,0.00229168,-0.00615405
 ,0.41950624,0.00082606,-0.00087840,0.00088969,0.01469209,-0.00195560,-
 0.00231291,-0.00082328,-0.00280813,-0.01545487,0.00645620,-0.00324178,
 0.02337320,-0.00031395,-0.00122125,-0.00065031,-0.01690430,0.00743679,
 0.00038992,0.03335351,0.02467695,-0.02117628,-0.00599278,-0.00366785,0
 .00429798,0.00055584,0.00151660,0.00034261,-0.00168694,0.00112437,0.00
 026064,-0.00356901,-0.02419821,0.00356358,0.01260922,0.00076818,-0.010
 36990,-0.00074040,0.00177299,0.00456544,0.02102123,-0.05591591,0.03044
 610,-0.01513242,-0.00045313,-0.00725029,-0.13656472,0.16625259,-0.0001
 3885,-0.00076907,-0.00108770,-0.01115397,0.00132745,-0.00241316,-0.002
 86479,0.00265275,0.01155023,-0.00185030,0.00041752,-0.02567963,0.00044
 649,0.00103274,-0.00003503,0.00991281,-0.00753170,-0.00175836,-0.02749
 296,-0.01877977,0.01871730,0.00570944,-0.00090562,0.00497906,-0.001921
 90,-0.00102027,-0.00019770,0.00107320,-0.00134961,-0.00052684,0.004216
 76,0.00452829,-0.00311715,-0.03605851,0.00173249,-0.01612868,-0.000599
 80,0.00602096,-0.00411682,-0.15020037,0.00937050,-0.18073834,-0.001251
 10,0.00476804,0.00320195,0.48001424,-0.18605943,0.80238727,-0.00046237
 ,0.00052672,0.00014577,-0.00204598,0.00105125,0.00127914,0.00221030,0.
 00027390,0.00401908,-0.00853776,-0.00303932,-0.00880485,0.00002098,-0.
 00002609,0.00012525,0.00576687,0.00127069,-0.00250200,0.00002137,-0.01
 221785,0.01415786,0.00686006,0.00734832,-0.00511052,0.00050248,0.00021
 849,-0.00000668,0.00094214,-0.00028727,-0.00015938,-0.00025985,0.00282
 936,-0.00063889,0.00054233,-0.01271345,0.01617348,0.00011532,-0.000733
 96,-0.00150198,-0.02993660,0.02160077,-0.05417316,0.00202531,0.0000330
 3,-0.00041299,-0.17193611,0.09221365,-0.26784038,0.19417151,-0.0002906
 0,0.00063265,-0.00056973,-0.00749757,0.00137786,0.00191535,0.00143985,
 0.00072281,0.00618344,-0.00110586,-0.00211308,-0.00844705,0.00005330,0
 .00025385,0.00008351,0.00542497,-0.00097171,-0.00151652,-0.00789810,-0
 .01635460,0.01850918,0.00047581,0.00021234,-0.00065853,-0.00032728,-0.
 00065705,-0.00015757,0.00050866,-0.00063061,-0.00023543,-0.00095306,0.
 00415551,0.00237841,-0.00207874,0.00556215,0.00420606,0.00033506,-0.00
 056162,-0.00086931,0.00563533,0.00945142,0.00987045,0.00052669,-0.0001
 1371,-0.00065424,0.10409976,-0.10920823,0.18456471,-0.09834823,0.10824
 202,-0.00003511,-0.00021889,0.00080286,0.00782220,-0.00243796,0.000690
 84,0.00142105,-0.00124091,-0.00702899,0.00422371,0.00457432,0.01711894
 ,-0.00020036,-0.00037041,0.00010607,-0.00530321,0.00225658,0.00116786,
 0.01105188,0.02057289,-0.02670035,-0.00956677,-0.00103380,-0.00420927,
 0.00149864,0.00078047,0.00007043,-0.00043852,0.00121812,0.00058425,-0.
 00132165,-0.00225147,0.00042894,0.00642290,0.00090759,-0.00179018,-0.0
 0027511,-0.00025821,0.00010204,-0.02613441,0.01894828,-0.02248685,0.00
 440196,-0.00198871,0.00070081,-0.29881744,0.17514482,-0.60503641,0.305
 25024,-0.21460273,0.64547901\\-0.00281966,0.00282920,-0.00000062,0.002
 82170,-0.00432959,-0.00000241,-0.00000363,0.00152601,-0.00000067,0.000
 00071,-0.00001871,0.00000191,-0.00000009,-0.00001430,0.00000056,-0.000
 00458,-0.00000021,0.00000284,0.00000451,0.00001322,-0.00000047,0.00000
 006,-0.00000797,-0.00000132,0.00000006,-0.00000012,-0.00000028,-0.0000
 0042,0.00000356,0.00000111,-0.00000055,-0.00000293,0.00000053,-0.00000
 087,0.00000084,-0.00000361,-0.00000039,0.00000114,0.00000071,0.0000039
 4,0.00000063,0.00000255,-0.00000063,-0.00000023,-0.00000027,-0.0000005
 8,-0.00000070,-0.00000202,0.00000043,0.00000018,0.00000145\\\@


 THERE IS NO CURE FOR BIRTH AND DEATH SAVE TO ENJOY THE INTERVAL.

                               -- GEORGE SANTAYANA
 Job cpu time:       0 days  2 hours 17 minutes 15.8 seconds.
 Elapsed time:       0 days  0 hours 11 minutes 31.5 seconds.
 File lengths (MBytes):  RWF=    182 Int=      0 D2E=      0 Chk=     32 Scr=      1
 Normal termination of Gaussian 16 at Sat Jun 11 01:17:28 2022.
