 Entering Gaussian System, Link 0=g16
 Input=ts_zmat_field_N75.gjf
 Output=ts_zmat_field_N75.out
 Initial command:
 /software/gaussian/g16-a03/l1.exe "/local_scratch/11174722/Gau-10022.inp" -scrdir="/local_scratch/11174722/"
 Entering Link 1 = /software/gaussian/g16-a03/l1.exe PID=     10023.
  
 Copyright (c) 1988,1990,1992,1993,1995,1998,2003,2009,2016,
            Gaussian, Inc.  All Rights Reserved.
  
 This is part of the Gaussian(R) 16 program.  It is based on
 the Gaussian(R) 09 system (copyright 2009, Gaussian, Inc.),
 the Gaussian(R) 03 system (copyright 2003, Gaussian, Inc.),
 the Gaussian(R) 98 system (copyright 1998, Gaussian, Inc.),
 the Gaussian(R) 94 system (copyright 1995, Gaussian, Inc.),
 the Gaussian 92(TM) system (copyright 1992, Gaussian, Inc.),
 the Gaussian 90(TM) system (copyright 1990, Gaussian, Inc.),
 the Gaussian 88(TM) system (copyright 1988, Gaussian, Inc.),
 the Gaussian 86(TM) system (copyright 1986, Carnegie Mellon
 University), and the Gaussian 82(TM) system (copyright 1983,
 Carnegie Mellon University). Gaussian is a federally registered
 trademark of Gaussian, Inc.
  
 This software contains proprietary and confidential information,
 including trade secrets, belonging to Gaussian, Inc.
  
 This software is provided under written license and may be
 used, copied, transmitted, or stored only in accord with that
 written license.
  
 The following legend is applicable only to US Government
 contracts under FAR:
  
                    RESTRICTED RIGHTS LEGEND
  
 Use, reproduction and disclosure by the US Government is
 subject to restrictions as set forth in subparagraphs (a)
 and (c) of the Commercial Computer Software - Restricted
 Rights clause in FAR 52.227-19.
  
 Gaussian, Inc.
 340 Quinnipiac St., Bldg. 40, Wallingford CT 06492
  
  
 ---------------------------------------------------------------
 Warning -- This program may not be used in any manner that
 competes with the business of Gaussian, Inc. or will provide
 assistance to any competitor of Gaussian, Inc.  The licensee
 of this program is prohibited from giving any competitor of
 Gaussian, Inc. access to this program.  By using this program,
 the user acknowledges that Gaussian, Inc. is engaged in the
 business of creating and licensing software in the field of
 computational chemistry and represents and warrants to the
 licensee that it is not a competitor of Gaussian, Inc. and that
 it will not use this program in any manner prohibited above.
 ---------------------------------------------------------------
  

 Cite this work as:
 Gaussian 16, Revision A.03,
 M. J. Frisch, G. W. Trucks, H. B. Schlegel, G. E. Scuseria, 
 M. A. Robb, J. R. Cheeseman, G. Scalmani, V. Barone, 
 G. A. Petersson, H. Nakatsuji, X. Li, M. Caricato, A. V. Marenich, 
 J. Bloino, B. G. Janesko, R. Gomperts, B. Mennucci, H. P. Hratchian, 
 J. V. Ortiz, A. F. Izmaylov, J. L. Sonnenberg, D. Williams-Young, 
 F. Ding, F. Lipparini, F. Egidi, J. Goings, B. Peng, A. Petrone, 
 T. Henderson, D. Ranasinghe, V. G. Zakrzewski, J. Gao, N. Rega, 
 G. Zheng, W. Liang, M. Hada, M. Ehara, K. Toyota, R. Fukuda, 
 J. Hasegawa, M. Ishida, T. Nakajima, Y. Honda, O. Kitao, H. Nakai, 
 T. Vreven, K. Throssell, J. A. Montgomery, Jr., J. E. Peralta, 
 F. Ogliaro, M. J. Bearpark, J. J. Heyd, E. N. Brothers, K. N. Kudin, 
 V. N. Staroverov, T. A. Keith, R. Kobayashi, J. Normand, 
 K. Raghavachari, A. P. Rendell, J. C. Burant, S. S. Iyengar, 
 J. Tomasi, M. Cossi, J. M. Millam, M. Klene, C. Adamo, R. Cammi, 
 J. W. Ochterski, R. L. Martin, K. Morokuma, O. Farkas, 
 J. B. Foresman, and D. J. Fox, Gaussian, Inc., Wallingford CT, 2016.
 
 ******************************************
 Gaussian 16:  ES64L-G16RevA.03 25-Dec-2016
                11-Jun-2022 
 ******************************************
 %nprocshared=12
 Will use up to   12 processors via shared memory.
 %chk=checkpoint.chk
 %mem=12GB
 ----------------------------------------------------------------------
 # Opt=(TS, CalcFC, noeigentest, Z-matrix, MaxStep=10) geom=allcheckpoi
 nt guess=read Field=read NoSymm B3LYP/Def2TZVP freq=noraman pop=none
 ----------------------------------------------------------------------
 1/5=1,8=10,10=4,11=1,18=40,26=3,29=7,38=1/1,3;
 2/12=2,15=1,29=3,40=1/2;
 3/5=44,7=101,11=2,14=-6,25=1,30=1,71=2,74=-5,116=-2,140=1/1,2,3;
 4/5=1/1;
 5/5=2,38=6/2;
 8/6=4,10=90,11=11/1;
 11/6=1,8=1,9=11,15=111,16=1,31=1/1,2,10;
 10/6=1,13=1,31=1/2;
 7/10=1,18=20,25=1,30=1/1,2,3,16;
 1/5=1,8=10,10=4,11=1,18=40,26=3/3(2);
 2/15=1,29=3/2;
 99//99;
 2/15=1,29=3/2;
 3/5=44,7=101,11=2,14=-2,25=1,30=1,71=1,74=-5/1,2,3;
 4/5=5,16=3,69=1/1;
 5/5=2,38=5/2;
 7/30=1/1,2,3,16;
 1/5=1,8=10,11=1,18=40,26=3/3(-5);
 2/15=1,29=3/2;
 99/9=1/99;
 Structure from the checkpoint file:  "checkpoint.chk"
 -----------------
 ts_zmat_initalOpt
 -----------------
 Charge =  0 Multiplicity = 1
 Z-Matrix found in chk file.
 H
 N,1,R2
 C,2,R3,1,A3
 C,2,R4,1,A4,3,D4,0
 H,3,R5,2,A5,1,D5,0
 C,3,R6,2,A6,5,D6,0
 C,4,R7,2,A7,1,D7,0
 C,4,R8,2,A8,7,D8,0
 H,6,R9,3,A9,2,D9,0
 H,8,R10,4,A10,2,D10,0
 H,7,R11,4,A11,2,D11,0
 C,8,R12,4,A12,10,D12,0
 H,12,R13,8,A13,4,D13,0
 C,12,R14,8,A14,13,D14,0
 H,14,R15,12,A15,8,D15,0
 C,14,R16,12,A16,15,D16,0
 O,16,R17,14,A17,12,D17,0
      Variables:
 R2=1.00701645
 R3=1.38640936
 R4=1.35799763
 R5=1.07683006
 R6=1.35943554
 R7=1.41385132
 R8=1.4209873
 R9=1.07668418
 R10=1.08178214
 R11=1.08226292
 R12=1.36292082
 R13=1.08426872
 R14=1.42334895
 R15=1.08660268
 R16=1.3700531
 R17=1.18142548
 A3=125.48413797
 A4=124.11519405
 A5=120.62757917
 A6=108.46296617
 A7=107.15422594
 A8=126.40187724
 A9=125.79833165
 A10=120.7022426
 A11=120.6392813
 A12=118.43649193
 A13=117.34609328
 A14=127.43668019
 A15=117.81618755
 A16=128.40451779
 A17=145.40502826
 D4=-177.17829048
 D5=2.27865801
 D6=180.49560898
 D7=177.02422295
 D8=-171.52700112
 D9=-178.64716021
 D10=-28.82131315
 D11=146.83754449
 D12=171.51943392
 D13=-175.32624055
 D14=174.67744882
 D15=-163.76340612
 D16=165.41188853
 D17=177.57261635
 Recover connectivity data from disk.

 GradGradGradGradGradGradGradGradGradGradGradGradGradGradGradGradGradGrad
 Berny optimization.
 Initialization pass.
                       ----------------------------
                       !    Initial Parameters    !
                       ! (Angstroms and Degrees)  !
 ----------------------                            ----------------------
 !      Name          Value   Derivative information (Atomic Units)     !
 ------------------------------------------------------------------------
 !       R2          1.007    calculate D2E/DX2 analytically            !
 !       R3          1.3864   calculate D2E/DX2 analytically            !
 !       R4          1.358    calculate D2E/DX2 analytically            !
 !       R5          1.0768   calculate D2E/DX2 analytically            !
 !       R6          1.3594   calculate D2E/DX2 analytically            !
 !       R7          1.4139   calculate D2E/DX2 analytically            !
 !       R8          1.421    calculate D2E/DX2 analytically            !
 !       R9          1.0767   calculate D2E/DX2 analytically            !
 !       R10         1.0818   calculate D2E/DX2 analytically            !
 !       R11         1.0823   calculate D2E/DX2 analytically            !
 !       R12         1.3629   calculate D2E/DX2 analytically            !
 !       R13         1.0843   calculate D2E/DX2 analytically            !
 !       R14         1.4233   calculate D2E/DX2 analytically            !
 !       R15         1.0866   calculate D2E/DX2 analytically            !
 !       R16         1.3701   calculate D2E/DX2 analytically            !
 !       R17         1.1814   calculate D2E/DX2 analytically            !
 !       A3        125.4841   calculate D2E/DX2 analytically            !
 !       A4        124.1152   calculate D2E/DX2 analytically            !
 !       A5        120.6276   calculate D2E/DX2 analytically            !
 !       A6        108.463    calculate D2E/DX2 analytically            !
 !       A7        107.1542   calculate D2E/DX2 analytically            !
 !       A8        126.4019   calculate D2E/DX2 analytically            !
 !       A9        125.7983   calculate D2E/DX2 analytically            !
 !       A10       120.7022   calculate D2E/DX2 analytically            !
 !       A11       120.6393   calculate D2E/DX2 analytically            !
 !       A12       118.4365   calculate D2E/DX2 analytically            !
 !       A13       117.3461   calculate D2E/DX2 analytically            !
 !       A14       127.4367   calculate D2E/DX2 analytically            !
 !       A15       117.8162   calculate D2E/DX2 analytically            !
 !       A16       128.4045   calculate D2E/DX2 analytically            !
 !       A17       145.405    calculate D2E/DX2 analytically            !
 !       D4       -177.1783   calculate D2E/DX2 analytically            !
 !       D5          2.2787   calculate D2E/DX2 analytically            !
 !       D6        180.4956   calculate D2E/DX2 analytically            !
 !       D7        177.0242   calculate D2E/DX2 analytically            !
 !       D8       -171.527    calculate D2E/DX2 analytically            !
 !       D9       -178.6472   calculate D2E/DX2 analytically            !
 !       D10       -28.8213   calculate D2E/DX2 analytically            !
 !       D11       146.8375   calculate D2E/DX2 analytically            !
 !       D12       171.5194   calculate D2E/DX2 analytically            !
 !       D13      -175.3262   calculate D2E/DX2 analytically            !
 !       D14       174.6774   calculate D2E/DX2 analytically            !
 !       D15      -163.7634   calculate D2E/DX2 analytically            !
 !       D16       165.4119   calculate D2E/DX2 analytically            !
 !       D17       177.5726   calculate D2E/DX2 analytically            !
 ------------------------------------------------------------------------
 Trust Radius=1.00D-01 FncErr=1.00D-07 GrdErr=1.00D-06 EigMax=2.50D+02 EigMin=1.00D-04
 Number of steps in this run=     55 maximum allowed number of steps=    100.
 Search for a saddle point of order  1.
 GradGradGradGradGradGradGradGradGradGradGradGradGradGradGradGradGradGrad

 ---------------------------------------------------------------------------------------------------
                            Z-MATRIX (ANGSTROMS AND DEGREES)
   CD    Cent   Atom    N1       Length/X        N2       Alpha/Y        N3        Beta/Z          J
 ---------------------------------------------------------------------------------------------------
      1      1  H 
      2      2  N        1   1.007016(     1)
      3      3  C        2   1.386409(     2)      1  125.484(    17)
      4      4  C        2   1.357998(     3)      1  124.115(    18)      3 -177.178(    32)      0
      5      5  H        3   1.076830(     4)      2  120.628(    19)      1    2.279(    33)      0
      6      6  C        3   1.359436(     5)      2  108.463(    20)      5  180.496(    34)      0
      7      7  C        4   1.413851(     6)      2  107.154(    21)      1  177.024(    35)      0
      8      8  C        4   1.420987(     7)      2  126.402(    22)      7 -171.527(    36)      0
      9      9  H        6   1.076684(     8)      3  125.798(    23)      2 -178.647(    37)      0
     10     10  H        8   1.081782(     9)      4  120.702(    24)      2  -28.821(    38)      0
     11     11  H        7   1.082263(    10)      4  120.639(    25)      2  146.838(    39)      0
     12     12  C        8   1.362921(    11)      4  118.436(    26)     10  171.519(    40)      0
     13     13  H       12   1.084269(    12)      8  117.346(    27)      4 -175.326(    41)      0
     14     14  C       12   1.423349(    13)      8  127.437(    28)     13  174.677(    42)      0
     15     15  H       14   1.086603(    14)     12  117.816(    29)      8 -163.763(    43)      0
     16     16  C       14   1.370053(    15)     12  128.405(    30)     15  165.412(    44)      0
     17     17  O       16   1.181425(    16)     14  145.405(    31)     12  177.573(    45)      0
 ---------------------------------------------------------------------------------------------------
                         Z-Matrix orientation:                         
 ---------------------------------------------------------------------
 Center     Atomic      Atomic             Coordinates (Angstroms)
 Number     Number       Type             X           Y           Z
 ---------------------------------------------------------------------
      1          1           0        0.000000    0.000000    0.000000
      2          7           0        0.000000    0.000000    1.007016
      3          6           0        1.128920    0.000000    1.811796
      4          6           0       -1.122939   -0.055347    1.768661
      5          1           0        2.113080    0.036842    1.376325
      6          6           0        0.731857   -0.062412    3.110453
      7          6           0       -0.708558   -0.105142    3.119507
      8          6           0       -2.452597   -0.230582    1.299080
      9          1           0        1.381933   -0.057350    3.968721
     10          1           0       -2.740469    0.113091    0.314564
     11          1           0       -1.302242    0.359449    3.896030
     12          6           0       -3.307023   -0.992366    2.038806
     13          1           0       -4.292388   -1.178647    1.626504
     14          6           0       -3.026868   -1.669949    3.258772
     15          1           0       -3.719932   -2.442562    3.580389
     16          6           0       -1.858903   -1.685732    3.974770
     17          8           0       -1.323054   -2.075174    4.953017
 ---------------------------------------------------------------------
                    Distance matrix (angstroms):
                    1          2          3          4          5
     1  H    0.000000
     2  N    1.007016   0.000000
     3  C    2.134728   1.386409   0.000000
     4  C    2.095762   1.357998   2.252952   0.000000
     5  H    2.522050   2.145426   1.076830   3.261019   0.000000
     6  C    3.196002   2.227993   1.359436   2.289262   2.219196
     7  C    3.200692   2.230633   2.257762   1.413851   3.319711
     8  C    2.784961   2.480666   3.625371   1.420987   4.574155
     9  H    4.202829   3.268749   2.172471   3.333864   2.695174
    10  H    2.760780   2.828860   4.150502   2.181553   4.968912
    11  H    4.123601   3.189269   3.222388   2.174834   4.256455
    12  C    4.009728   3.603579   4.551254   2.391904   5.556588
    13  H    4.739126   4.494170   5.551047   3.365623   6.524571
    14  C    4.750816   4.125659   4.706702   2.907287   5.733743
    15  H    5.711671   5.140647   5.710114   3.965542   6.710393
    16  C    4.700639   3.886486   4.055519   2.840196   5.049339
    17  O    5.530750   4.650564   4.492861   3.776224   5.390766
                    6          7          8          9         10
     6  C    0.000000
     7  C    1.441077   0.000000
     8  C    3.667438   2.524156   0.000000
     9  H    1.076684   2.256901   4.675534   0.000000
    10  H    4.461484   3.470446   1.081782   5.511453   0.000000
    11  H    2.220958   1.082263   2.900966   2.717315   3.867310
    12  C    4.280863   2.950779   1.362921   5.156077   2.125095
    13  H    5.356409   4.028065   2.095439   6.240289   2.407951
    14  C    4.090744   2.800461   2.498391   4.747845   3.453928
    15  H    5.069948   3.839833   3.421018   5.645269   4.261024
    16  C    3.177145   2.133784   3.103104   3.626939   4.172533
    17  O    3.415979   2.760506   4.246133   3.515311   5.320979
                   11         12         13         14         15
    11  H    0.000000
    12  C    3.048906   0.000000
    13  H    4.056779   1.084269   0.000000
    14  C    2.738410   1.423349   2.123021   0.000000
    15  H    3.714313   2.156396   2.396426   1.086603   0.000000
    16  C    2.121046   2.515107   3.419553   1.370053   2.047378
    17  O    2.654251   3.687985   4.548230   2.436731   2.786414
                   16         17
    16  C    0.000000
    17  O    1.181425   0.000000
 Symmetry turned off by external request.
 Stoichiometry    C8H7NO
 Framework group  C1[X(C8H7NO)]
 Deg. of freedom    45
 Full point group                 C1      NOp   1
 Rotational constants (GHZ):           2.1635300           1.3449759           0.8691103
 Standard basis: def2TZVP (5D, 7F)
 The following finite field(s) will be applied:
 An electric field of             -0.0045 -0.0009  0.0059
   352 basis functions,   566 primitive gaussians,   402 cartesian basis functions
    35 alpha electrons       35 beta electrons
       nuclear repulsion energy       478.8014568712 Hartrees.
 NAtoms=   17 NActive=   17 NUniq=   17 SFac= 1.00D+00 NAtFMM=   60 NAOKFM=F Big=F
 Integral buffers will be    131072 words long.
 Raffenetti 2 integral format.
 Two-electron integral symmetry is turned off.
 One-electron integrals computed using PRISM.
   1 Symmetry operations used in ECPInt.
 ECPInt:  NShTT=    9591 NPrTT=   29644 LenC2=    9325 LenP2D=   22685.
 LDataN:  DoStor=T MaxTD1= 6 Len=  172
 NBasis=   352 RedAO= T EigKep=  3.72D-05  NBF=   352
 NBsUse=   352 1.00D-06 EigRej= -1.00D+00 NBFU=   352
 The nuclear repulsion energy is now       481.6454776066 hartrees.
 Initial guess from the checkpoint file:  "checkpoint.chk"
 B after Tr=    -0.000000   -0.000000    0.000000
         Rot=    1.000000    0.000000   -0.000000    0.000000 Ang=   0.00 deg.
 Requested convergence on RMS density matrix=1.00D-08 within 128 cycles.
 Requested convergence on MAX density matrix=1.00D-06.
 Requested convergence on             energy=1.00D-06.
 No special actions if energy rises.
 SCF Done:  E(RB3LYP) =  -439.149453788     A.U. after   11 cycles
            NFock= 11  Conv=0.50D-08     -V/T= 2.0050
 DoSCS=F DFT=T ScalE2(SS,OS)=  1.000000  1.000000
 Range of M.O.s used for correlation:     1   352
 NBasis=   352 NAE=    35 NBE=    35 NFC=     0 NFV=     0
 NROrb=    352 NOA=    35 NOB=    35 NVA=   317 NVB=   317

 **** Warning!!: The largest alpha MO coefficient is  0.28987563D+02

   1 Symmetry operations used in ECPInt.
 ECPInt:  NShTT=    9591 NPrTT=   29644 LenC2=    9325 LenP2D=   22685.
 LDataN:  DoStor=T MaxTD1= 7 Len=  274
 Symmetrizing basis deriv contribution to polar:
 IMax=3 JMax=2 DiffMx= 0.00D+00
 G2DrvN: will do    18 centers at a time, making    1 passes.
 Calling FoFCou, ICntrl=  3107 FMM=F I1Cent=   0 AccDes= 0.00D+00.
 End of G2Drv F.D. properties file   721 does not exist.
 End of G2Drv F.D. properties file   722 does not exist.
 End of G2Drv F.D. properties file   788 does not exist.
          IDoAtm=11111111111111111
          Differentiating once with respect to nuclear coordinates.
 CalDSu exits because no D1Ps are significant.
          There are    54 degrees of freedom in the 1st order CPHF.  IDoFFX=6 NUNeed=     0.
     48 vectors produced by pass  0 Test12= 2.05D-14 1.85D-09 XBig12= 1.24D-01 1.08D-01.
 AX will form    48 AO Fock derivatives at one time.
     48 vectors produced by pass  1 Test12= 2.05D-14 1.85D-09 XBig12= 2.46D-02 4.10D-02.
     48 vectors produced by pass  2 Test12= 2.05D-14 1.85D-09 XBig12= 2.82D-04 2.14D-03.
     48 vectors produced by pass  3 Test12= 2.05D-14 1.85D-09 XBig12= 9.95D-07 1.26D-04.
     48 vectors produced by pass  4 Test12= 2.05D-14 1.85D-09 XBig12= 2.88D-09 6.19D-06.
     48 vectors produced by pass  5 Test12= 2.05D-14 1.85D-09 XBig12= 5.73D-12 3.53D-07.
     20 vectors produced by pass  6 Test12= 2.05D-14 1.85D-09 XBig12= 1.00D-14 1.30D-08.
 InvSVY:  IOpt=1 It=  1 EMax= 4.44D-16
 Solved reduced A of dimension   308 with    54 vectors.
 End of Minotr F.D. properties file   721 does not exist.
 End of Minotr F.D. properties file   722 does not exist.
 End of Minotr F.D. properties file   788 does not exist.
   1 Symmetry operations used in ECPInt.
 ECPInt:  NShTT=    9591 NPrTT=   29644 LenC2=    9325 LenP2D=   22685.
 LDataN:  DoStor=T MaxTD1= 8 Len=  415
 Calling FoFJK, ICntrl=    100147 FMM=F ISym2X=0 I1Cent= 0 IOpClX= 0 NMat=1 NMatS=1 NMatT=0.
 -------------------------------------------------------------------
 Center     Atomic                   Forces (Hartrees/Bohr)
 Number     Number              X              Y              Z
 -------------------------------------------------------------------
      1        1           0.001943230   -0.001425526   -0.000680458
      2        7          -0.002613839    0.002274993    0.001593511
      3        6          -0.000399780   -0.000867892   -0.000254638
      4        6           0.001255711    0.000062009   -0.001610248
      5        1           0.000066159    0.000055118   -0.000119859
      6        6           0.000140833   -0.000104248    0.000183103
      7        6          -0.000652020   -0.001227771    0.001394529
      8        6          -0.000871064   -0.000486843    0.000379000
      9        1           0.000114133    0.000039104   -0.000150850
     10        1           0.000084669   -0.000054069    0.000014949
     11        1           0.000031051    0.000450660   -0.000137029
     12        6           0.000119912    0.000985954   -0.001391723
     13        1          -0.000011825   -0.000022321   -0.000219144
     14        6           0.000265645   -0.000333281    0.001892504
     15        1          -0.000246944   -0.000362620   -0.000148426
     16        6           0.000221952    0.002553652   -0.004127962
     17        8           0.000552176   -0.001536919    0.003382743
 -------------------------------------------------------------------
 Cartesian Forces:  Max     0.004127962 RMS     0.001220841
 -----------------------------------------------------------------------------------------------
                       Internal Coordinate Forces (Hartree/Bohr or radian)
  Cent   Atom   N1       Length/X         N2         Alpha/Y        N3         Beta/Z          J
 -----------------------------------------------------------------------------------------------
      1  H 
      2  N        1   0.000680(     1)
      3  C        2  -0.000263(     2)      1  -0.001799(    17)
      4  C        2  -0.000941(     3)      1  -0.002409(    18)      3  -0.001361(    32)     0
      5  H        3   0.000111(     4)      2  -0.000171(    19)      1   0.000234(    33)     0
      6  C        3  -0.000041(     5)      2   0.001022(    20)      5   0.000147(    34)     0
      7  C        4   0.001047(     6)      2   0.002748(    21)      1   0.000740(    35)     0
      8  C        4  -0.000127(     7)      2   0.000614(    22)      7   0.002200(    36)     0
      9  H        6  -0.000051(     8)      3  -0.000375(    23)      2   0.000047(    37)     0
     10  H        8  -0.000053(     9)      4  -0.000120(    24)      2   0.002637(    38)     0
     11  H        7   0.000078(    10)      4  -0.000422(    25)      2  -0.000734(    39)     0
     12  C        8  -0.001615(    11)      4  -0.002740(    26)     10   0.002525(    40)     0
     13  H       12   0.000098(    12)      8  -0.000332(    27)      4   0.002443(    41)     0
     14  C       12   0.000859(    13)      8  -0.002969(    28)     13   0.002237(    42)     0
     15  H       14   0.000371(    14)     12  -0.000410(    29)      8   0.000972(    43)     0
     16  C       14   0.000259(    15)     12  -0.001111(    30)     15   0.000623(    44)     0
     17  O       16   0.003558(    16)     14  -0.002645(    31)     12  -0.000273(    45)     0
 -----------------------------------------------------------------------------------------------
 Internal  Forces:  Max     0.003558059 RMS     0.001457163

 GradGradGradGradGradGradGradGradGradGradGradGradGradGradGradGradGradGrad
 Berny optimization.
 Search for a saddle point.
 Step number   1 out of a maximum of   55
 All quantities printed in internal units (Hartrees-Bohrs-Radians)
 Swapping is turned off.
 Second derivative matrix not updated -- analytic derivatives used.
 ITU=  0
     Eigenvalues ---   -0.21451   0.00991   0.01740   0.01994   0.03056
     Eigenvalues ---    0.03560   0.03977   0.04828   0.05984   0.10019
     Eigenvalues ---    0.11256   0.11404   0.14628   0.16521   0.16602
     Eigenvalues ---    0.18038   0.18186   0.21106   0.23423   0.27179
     Eigenvalues ---    0.30844   0.32021   0.34109   0.34596   0.35142
     Eigenvalues ---    0.35570   0.35803   0.37113   0.37277   0.37443
     Eigenvalues ---    0.39579   0.42284   0.44763   0.46860   0.48156
     Eigenvalues ---    0.49889   0.53268   0.58835   0.81905   0.88533
     Eigenvalues ---    1.08064   1.50752   2.02615   2.17592  16.32811
 Eigenvectors required to have negative eigenvalues:
                          A17       D11       A12       D8        R16
   1                    0.60767   0.46997   0.28552  -0.22276  -0.20698
                          A16       A8        A11       A14       R17
   1                    0.20083  -0.17747   0.17583   0.14739  -0.12993
 RFO step:  Lambda0=1.132793242D-04 Lambda=-1.83941473D-04.
 Linear search not attempted -- option 19 set.
 Variable       Old X    -DE/DX   Delta X   Delta X   Delta X     New X
                                 (Linear)    (Quad)   (Total)
    R2        1.90299   0.00068   0.00000   0.00134   0.00134   1.90433
    R3        2.61993  -0.00026   0.00000  -0.00434  -0.00434   2.61559
    R4        2.56624  -0.00094   0.00000  -0.00152  -0.00152   2.56472
    R5        2.03491   0.00011   0.00000   0.00022   0.00022   2.03513
    R6        2.56896  -0.00004   0.00000   0.00302   0.00302   2.57198
    R7        2.67179   0.00105   0.00000  -0.00176  -0.00176   2.67003
    R8        2.68528  -0.00013   0.00000   0.00362   0.00362   2.68890
    R9        2.03464  -0.00005   0.00000  -0.00008  -0.00008   2.03456
   R10        2.04427  -0.00005   0.00000   0.00025   0.00025   2.04452
   R11        2.04518   0.00008   0.00000  -0.00094  -0.00094   2.04424
   R12        2.57555  -0.00161   0.00000  -0.00554  -0.00554   2.57000
   R13        2.04897   0.00010   0.00000   0.00000   0.00000   2.04897
   R14        2.68974   0.00086   0.00000   0.00740   0.00740   2.69714
   R15        2.05338   0.00037   0.00000   0.00140   0.00140   2.05478
   R16        2.58903   0.00026   0.00000  -0.00631  -0.00631   2.58271
   R17        2.23257   0.00356   0.00000   0.00210   0.00210   2.23467
    A3        2.19011  -0.00180   0.00000   0.00458   0.00458   2.19469
    A4        2.16622  -0.00241   0.00000  -0.00315  -0.00315   2.16307
    A5        2.10535  -0.00017   0.00000   0.00069   0.00069   2.10604
    A6        1.89304   0.00102   0.00000  -0.00099  -0.00099   1.89205
    A7        1.87019   0.00275   0.00000   0.00063   0.00063   1.87082
    A8        2.20613   0.00061   0.00000  -0.00474  -0.00474   2.20139
    A9        2.19560  -0.00037   0.00000  -0.00268  -0.00268   2.19292
   A10        2.10665  -0.00012   0.00000  -0.00404  -0.00404   2.10262
   A11        2.10555  -0.00042   0.00000   0.00489   0.00489   2.11044
   A12        2.06711  -0.00274   0.00000   0.00624   0.00624   2.07334
   A13        2.04808  -0.00033   0.00000   0.00098   0.00098   2.04905
   A14        2.22419  -0.00297   0.00000  -0.00083  -0.00083   2.22336
   A15        2.05628  -0.00041   0.00000  -0.00360  -0.00360   2.05268
   A16        2.24108  -0.00111   0.00000   0.00700   0.00700   2.24808
   A17        2.53780  -0.00265   0.00000   0.00875   0.00875   2.54655
    D4       -3.09234  -0.00136   0.00000  -0.06154  -0.06154  -3.15389
    D5        0.03977   0.00023   0.00000  -0.04612  -0.04612  -0.00635
    D6        3.15024   0.00015   0.00000  -0.00018  -0.00018   3.15006
    D7        3.08966   0.00074   0.00000   0.04715   0.04715   3.13680
    D8       -2.99371   0.00220   0.00000  -0.00952  -0.00952  -3.00323
    D9       -3.11798   0.00005   0.00000   0.00093   0.00093  -3.11705
   D10       -0.50303   0.00264   0.00000   0.00013   0.00013  -0.50290
   D11        2.56280  -0.00073   0.00000   0.01690   0.01690   2.57970
   D12        2.99358   0.00253   0.00000   0.00817   0.00817   3.00175
   D13       -3.06002   0.00244   0.00000  -0.00349  -0.00349  -3.06351
   D14        3.04870   0.00224   0.00000   0.00276   0.00276   3.05145
   D15       -2.85821   0.00097   0.00000   0.00267   0.00267  -2.85554
   D16        2.88698   0.00062   0.00000  -0.00480  -0.00480   2.88218
   D17        3.09923  -0.00027   0.00000  -0.01179  -0.01179   3.08743
         Item               Value     Threshold  Converged?
 Maximum Force            0.003558     0.000450     NO 
 RMS     Force            0.001457     0.000300     NO 
 Maximum Displacement     0.061544     0.001800     NO 
 RMS     Displacement     0.014324     0.001200     NO 
 Predicted change in Energy=-3.610178D-05
 GradGradGradGradGradGradGradGradGradGradGradGradGradGradGradGradGradGrad

 ---------------------------------------------------------------------------------------------------
                            Z-MATRIX (ANGSTROMS AND DEGREES)
   CD    Cent   Atom    N1       Length/X        N2       Alpha/Y        N3        Beta/Z          J
 ---------------------------------------------------------------------------------------------------
      1      1  H 
      2      2  N        1   1.007726(     1)
      3      3  C        2   1.384112(     2)      1  125.746(    17)
      4      4  C        2   1.357192(     3)      1  123.935(    18)      3 -180.705(    32)      0
      5      5  H        3   1.076945(     4)      2  120.667(    19)      1   -0.364(    33)      0
      6      6  C        3   1.361034(     5)      2  108.406(    20)      5  180.485(    34)      0
      7      7  C        4   1.412918(     6)      2  107.190(    21)      1  179.726(    35)      0
      8      8  C        4   1.422905(     7)      2  126.130(    22)      7 -172.072(    36)      0
      9      9  H        6   1.076644(     8)      3  125.645(    23)      2 -178.594(    37)      0
     10     10  H        8   1.081916(     9)      4  120.471(    24)      2  -28.814(    38)      0
     11     11  H        7   1.081763(    10)      4  120.919(    25)      2  147.806(    39)      0
     12     12  C        8   1.359988(    11)      4  118.794(    26)     10  171.988(    40)      0
     13     13  H       12   1.084271(    12)      8  117.402(    27)      4 -175.526(    41)      0
     14     14  C       12   1.427264(    13)      8  127.389(    28)     13  174.835(    42)      0
     15     15  H       14   1.087345(    14)     12  117.610(    29)      8 -163.610(    43)      0
     16     16  C       14   1.366714(    15)     12  128.805(    30)     15  165.137(    44)      0
     17     17  O       16   1.182536(    16)     14  145.906(    31)     12  176.897(    45)      0
 ---------------------------------------------------------------------------------------------------
                         Z-Matrix orientation:                         
 ---------------------------------------------------------------------
 Center     Atomic      Atomic             Coordinates (Angstroms)
 Number     Number       Type             X           Y           Z
 ---------------------------------------------------------------------
      1          1           0        0.000000    0.000000    0.000000
      2          7           0        0.000000    0.000000    1.007726
      3          6           0        1.123360    0.000000    1.816322
      4          6           0       -1.125945    0.013845    1.765372
      5          1           0        2.110323   -0.005884    1.385416
      6          6           0        0.717716   -0.002732    3.115499
      7          6           0       -0.718999    0.002375    3.118368
      8          6           0       -2.459654   -0.122819    1.288713
      9          1           0        1.365606    0.018062    3.975132
     10          1           0       -2.721675    0.202680    0.290747
     11          1           0       -1.303482    0.502608    3.878867
     12          6           0       -3.356372   -0.815402    2.040904
     13          1           0       -4.344885   -0.969443    1.622864
     14          6           0       -3.122467   -1.461399    3.291927
     15          1           0       -3.855686   -2.190989    3.627197
     16          6           0       -1.972208   -1.511056    4.028368
     17          8           0       -1.466565   -1.881830    5.030986
 ---------------------------------------------------------------------
                    Distance matrix (angstroms):
                    1          2          3          4          5
     1  H    0.000000
     2  N    1.007726   0.000000
     3  C    2.135641   1.384112   0.000000
     4  C    2.093915   1.357192   2.249924   0.000000
     5  H    2.524456   2.143863   1.076945   3.258556   0.000000
     6  C    3.197101   2.226619   1.361034   2.285215   2.220934
     7  C    3.200185   2.229748   2.256018   1.412918   3.317869
     8  C    2.779526   2.478696   3.623733   1.422905   4.572495
     9  H    4.203199   3.266605   2.172434   3.330298   2.694773
    10  H    2.744654   2.821817   4.141588   2.180947   4.958831
    11  H    4.122777   3.192982   3.224325   2.176528   4.257926
    12  C    4.011908   3.605215   4.558873   2.395491   5.565047
    13  H    4.738305   4.494023   5.556883   3.368789   6.531044
    14  C    4.766788   4.135585   4.726536   2.914244   5.756335
    15  H    5.729163   5.150571   5.733289   3.972301   6.737472
    16  C    4.732932   3.911160   4.093773   2.857033   5.090952
    17  O    5.568027   4.677470   4.536856   3.791285   5.440908
                    6          7          8          9         10
     6  C    0.000000
     7  C    1.436728   0.000000
     8  C    3.667049   2.528476   0.000000
     9  H    1.076644   2.253857   4.676463   0.000000
    10  H    4.455427   3.470774   1.081916   5.505874   0.000000
    11  H    2.218861   1.081763   2.904615   2.714422   3.869862
    12  C    4.291082   2.964022   1.359988   5.170395   2.121882
    13  H    5.365857   4.040794   2.093448   6.254442   2.404833
    14  C    4.111671   2.819470   2.498797   4.774764   3.454979
    15  H    5.095715   3.861160   3.419758   5.680040   4.259992
    16  C    3.216219   2.165434   3.109745   3.671790   4.179522
    17  O    3.459940   2.786968   4.252641   3.570100   5.328260
                   11         12         13         14         15
    11  H    0.000000
    12  C    3.054442   0.000000
    13  H    4.062833   1.084271   0.000000
    14  C    2.740533   1.427264   2.126523   0.000000
    15  H    3.719213   2.158212   2.397674   1.087345   0.000000
    16  C    2.127060   2.519893   3.421899   1.366714   2.042238
    17  O    2.653209   3.694487   4.553292   2.437847   2.788208
                   16         17
    16  C    0.000000
    17  O    1.182536   0.000000
 Symmetry turned off by external request.
 Stoichiometry    C8H7NO
 Framework group  C1[X(C8H7NO)]
 Deg. of freedom    45
 Full point group                 C1      NOp   1
 Rotational constants (GHZ):           2.1680072           1.3281957           0.8622063
 Standard basis: def2TZVP (5D, 7F)
 The following finite field(s) will be applied:
 An electric field of             -0.0045 -0.0009  0.0059
   352 basis functions,   566 primitive gaussians,   402 cartesian basis functions
    35 alpha electrons       35 beta electrons
       nuclear repulsion energy       477.9647193741 Hartrees.
 NAtoms=   17 NActive=   17 NUniq=   17 SFac= 1.00D+00 NAtFMM=   60 NAOKFM=F Big=F
 Integral buffers will be    131072 words long.
 Raffenetti 2 integral format.
 Two-electron integral symmetry is turned off.
 One-electron integrals computed using PRISM.
   1 Symmetry operations used in ECPInt.
 ECPInt:  NShTT=    9591 NPrTT=   29644 LenC2=    9322 LenP2D=   22671.
 LDataN:  DoStor=T MaxTD1= 6 Len=  172
 NBasis=   352 RedAO= T EigKep=  3.77D-05  NBF=   352
 NBsUse=   352 1.00D-06 EigRej= -1.00D+00 NBFU=   352
 The nuclear repulsion energy is now       480.8345554575 hartrees.
 Initial guess from the checkpoint file:  "checkpoint.chk"
 B after Tr=     0.015055   -0.063559    0.012563
         Rot=    0.999619    0.017949    0.005201    0.020321 Ang=   3.16 deg.
 ExpMin= 9.52D-02 ExpMax= 2.70D+04 ExpMxC= 9.22D+02 IAcc=2 IRadAn=         4 AccDes= 0.00D+00
 Harris functional with IExCor=  402 and IRadAn=       4 diagonalized for initial guess.
 HarFok:  IExCor=  402 AccDes= 0.00D+00 IRadAn=         4 IDoV= 1 UseB2=F ITyADJ=14
 ICtDFT=  3500011 ScaDFX=  1.000000  1.000000  1.000000  1.000000
 FoFCou: FMM=F IPFlag=           0 FMFlag=      100000 FMFlg1=           0
         NFxFlg=           0 DoJE=T BraDBF=F KetDBF=T FulRan=T
         wScrn=  0.000000 ICntrl=       500 IOpCl=  0 I1Cent=   200000004 NGrid=           0
         NMat0=    1 NMatS0=      1 NMatT0=    0 NMatD0=    1 NMtDS0=    0 NMtDT0=    0
 Symmetry not used in FoFCou.
 Requested convergence on RMS density matrix=1.00D-08 within 128 cycles.
 Requested convergence on MAX density matrix=1.00D-06.
 Requested convergence on             energy=1.00D-06.
 No special actions if energy rises.
 Integral accuracy reduced to 1.0D-05 until final iterations.
 Initial convergence to 1.0D-05 achieved.  Increase integral accuracy.
 SCF Done:  E(RB3LYP) =  -439.149486175     A.U. after   13 cycles
            NFock= 13  Conv=0.33D-08     -V/T= 2.0050
   1 Symmetry operations used in ECPInt.
 ECPInt:  NShTT=    9591 NPrTT=   29644 LenC2=    9322 LenP2D=   22671.
 LDataN:  DoStor=T MaxTD1= 7 Len=  274
 Calling FoFJK, ICntrl=      2127 FMM=F ISym2X=0 I1Cent= 0 IOpClX= 0 NMat=1 NMatS=1 NMatT=0.
 -------------------------------------------------------------------
 Center     Atomic                   Forces (Hartrees/Bohr)
 Number     Number              X              Y              Z
 -------------------------------------------------------------------
      1        1           0.002310932   -0.002202421   -0.000004115
      2        7          -0.002271461    0.003389393    0.000234955
      3        6           0.000340412   -0.001235904   -0.000232705
      4        6          -0.000403255    0.000049559   -0.000200794
      5        1           0.000003379   -0.000011072    0.000003372
      6        6           0.001695429    0.000038743    0.000116630
      7        6          -0.001621695    0.000011209    0.000087154
      8        6           0.000098751    0.000034714   -0.000012180
      9        1           0.000083892    0.000003513   -0.000030455
     10        1           0.000000631   -0.000011046   -0.000006788
     11        1          -0.000104427   -0.000037035   -0.000000135
     12        6          -0.000078521   -0.000029830    0.000044465
     13        1          -0.000004098    0.000000473    0.000004979
     14        6          -0.000048089   -0.000001606   -0.000021662
     15        1          -0.000001305   -0.000005154   -0.000004027
     16        6          -0.000036840    0.000005957   -0.000034244
     17        8           0.000036266    0.000000506    0.000055551
 -------------------------------------------------------------------
 Cartesian Forces:  Max     0.003389393 RMS     0.000820980
 -----------------------------------------------------------------------------------------------
                       Internal Coordinate Forces (Hartree/Bohr or radian)
  Cent   Atom   N1       Length/X         N2         Alpha/Y        N3         Beta/Z          J
 -----------------------------------------------------------------------------------------------
      1  H 
      2  N        1   0.000004(     1)
      3  C        2   0.001640(     2)      1  -0.008147(    17)
      4  C        2   0.001745(     3)      1  -0.008075(    18)      3  -0.000029(    32)     0
      5  H        3   0.000002(     4)      2   0.000009(    19)      1  -0.000123(    33)     0
      6  C        3  -0.000448(     5)      2   0.004608(    20)      5  -0.000103(    34)     0
      7  C        4  -0.000414(     6)      2   0.004628(    21)      1  -0.000097(    35)     0
      8  C        4   0.000023(     7)      2  -0.000141(    22)      7   0.000001(    36)     0
      9  H        6   0.000026(     8)      3  -0.000174(    23)      2   0.000003(    37)     0
     10  H        8   0.000003(     9)      4   0.000003(    24)      2   0.000144(    38)     0
     11  H        7   0.000039(    10)      4  -0.000119(    25)      2   0.000150(    39)     0
     12  C        8   0.000127(    11)      4   0.000267(    26)     10   0.000122(    40)     0
     13  H       12   0.000002(    12)      8   0.000010(    27)      4   0.000087(    41)     0
     14  C       12  -0.000012(    13)      8   0.000128(    28)     13   0.000093(    42)     0
     15  H       14   0.000003(    14)     12  -0.000007(    29)      8   0.000050(    43)     0
     16  C       14   0.000011(    15)     12  -0.000007(    30)     15   0.000041(    44)     0
     17  O       16   0.000062(    16)     14   0.000035(    31)     12  -0.000020(    45)     0
 -----------------------------------------------------------------------------------------------
 Internal  Forces:  Max     0.008147048 RMS     0.002003515

 GradGradGradGradGradGradGradGradGradGradGradGradGradGradGradGradGradGrad
 Berny optimization.
 Search for a saddle point.
 Step number   2 out of a maximum of   55
 All quantities printed in internal units (Hartrees-Bohrs-Radians)
 Swapping is turned off.
 Update second derivatives using D2CorN and points    1    2
 ITU=  0  0
     Eigenvalues ---   -0.21417   0.01130   0.01740   0.01993   0.03055
     Eigenvalues ---    0.03581   0.03972   0.04829   0.05984   0.10020
     Eigenvalues ---    0.11256   0.11406   0.14623   0.16521   0.16602
     Eigenvalues ---    0.18038   0.18185   0.21106   0.23423   0.27180
     Eigenvalues ---    0.30846   0.32021   0.34110   0.34595   0.35144
     Eigenvalues ---    0.35570   0.35805   0.37113   0.37277   0.37443
     Eigenvalues ---    0.39581   0.42283   0.44763   0.46860   0.48156
     Eigenvalues ---    0.49890   0.53268   0.58835   0.81906   0.88533
     Eigenvalues ---    1.08060   1.50754   2.02616   2.17585  16.32809
 Eigenvectors required to have negative eigenvalues:
                          A17       D11       A12       D8        R16
   1                    0.60778   0.46982   0.28559  -0.22260  -0.20685
                          A16       A8        A11       A14       R17
   1                    0.20075  -0.17757   0.17580   0.14744  -0.12992
 RFO step:  Lambda0=8.376582268D-08 Lambda=-1.25494216D-05.
 Linear search not attempted -- option 19 set.
 Variable       Old X    -DE/DX   Delta X   Delta X   Delta X     New X
                                 (Linear)    (Quad)   (Total)
    R2        1.90433   0.00000   0.00000   0.00004   0.00004   1.90436
    R3        2.61559   0.00164   0.00000   0.00013   0.00013   2.61573
    R4        2.56472   0.00175   0.00000   0.00027   0.00027   2.56499
    R5        2.03513   0.00000   0.00000   0.00001   0.00001   2.03514
    R6        2.57198  -0.00045   0.00000  -0.00004  -0.00004   2.57194
    R7        2.67003  -0.00041   0.00000  -0.00001  -0.00001   2.67002
    R8        2.68890   0.00002   0.00000  -0.00017  -0.00017   2.68873
    R9        2.03456   0.00003   0.00000   0.00000   0.00000   2.03457
   R10        2.04452   0.00000   0.00000   0.00001   0.00001   2.04454
   R11        2.04424   0.00004   0.00000   0.00000   0.00000   2.04424
   R12        2.57000   0.00013   0.00000   0.00017   0.00017   2.57018
   R13        2.04897   0.00000   0.00000  -0.00001  -0.00001   2.04897
   R14        2.69714  -0.00001   0.00000  -0.00006  -0.00006   2.69708
   R15        2.05478   0.00000   0.00000   0.00001   0.00001   2.05479
   R16        2.58271   0.00001   0.00000   0.00004   0.00004   2.58275
   R17        2.23467   0.00006   0.00000  -0.00005  -0.00005   2.23462
    A3        2.19469  -0.00815   0.00000  -0.00106  -0.00106   2.19363
    A4        2.16307  -0.00808   0.00000  -0.00023  -0.00023   2.16283
    A5        2.10604   0.00001   0.00000  -0.00010  -0.00010   2.10594
    A6        1.89205   0.00461   0.00000   0.00018   0.00018   1.89223
    A7        1.87082   0.00463   0.00000   0.00009   0.00009   1.87091
    A8        2.20139  -0.00014   0.00000  -0.00018  -0.00018   2.20121
    A9        2.19292  -0.00017   0.00000   0.00006   0.00006   2.19297
   A10        2.10262   0.00000   0.00000  -0.00018  -0.00018   2.10244
   A11        2.11044  -0.00012   0.00000   0.00005   0.00005   2.11049
   A12        2.07334   0.00027   0.00000   0.00034   0.00034   2.07368
   A13        2.04905   0.00001   0.00000  -0.00003  -0.00003   2.04903
   A14        2.22336   0.00013   0.00000   0.00009   0.00009   2.22345
   A15        2.05268  -0.00001   0.00000  -0.00005  -0.00005   2.05263
   A16        2.24808  -0.00001   0.00000   0.00016   0.00016   2.24824
   A17        2.54655   0.00003   0.00000   0.00040   0.00040   2.54694
    D4       -3.15389  -0.00003   0.00000   0.00677   0.00677  -3.14712
    D5       -0.00635  -0.00012   0.00000   0.00427   0.00427  -0.00208
    D6        3.15006  -0.00010   0.00000   0.00007   0.00007   3.15013
    D7        3.13680  -0.00010   0.00000  -0.00442  -0.00442   3.13239
    D8       -3.00323   0.00000   0.00000  -0.00065  -0.00065  -3.00388
    D9       -3.11705   0.00000   0.00000   0.00038   0.00038  -3.11667
   D10       -0.50290   0.00014   0.00000   0.00162   0.00162  -0.50128
   D11        2.57970   0.00015   0.00000  -0.00056  -0.00056   2.57914
   D12        3.00175   0.00012   0.00000  -0.00017  -0.00017   3.00159
   D13       -3.06351   0.00009   0.00000   0.00002   0.00002  -3.06349
   D14        3.05145   0.00009   0.00000  -0.00004  -0.00004   3.05141
   D15       -2.85554   0.00005   0.00000   0.00011   0.00011  -2.85543
   D16        2.88218   0.00004   0.00000  -0.00012  -0.00012   2.88206
   D17        3.08743  -0.00002   0.00000  -0.00112  -0.00112   3.08632
         Item               Value     Threshold  Converged?
 Maximum Force            0.008147     0.000450     NO 
 RMS     Force            0.002004     0.000300     NO 
 Maximum Displacement     0.006769     0.001800     NO 
 RMS     Displacement     0.001415     0.001200     NO 
 Predicted change in Energy=-6.232827D-06
 GradGradGradGradGradGradGradGradGradGradGradGradGradGradGradGradGradGrad

 ---------------------------------------------------------------------------------------------------
                            Z-MATRIX (ANGSTROMS AND DEGREES)
   CD    Cent   Atom    N1       Length/X        N2       Alpha/Y        N3        Beta/Z          J
 ---------------------------------------------------------------------------------------------------
      1      1  H 
      2      2  N        1   1.007745(     1)
      3      3  C        2   1.384183(     2)      1  125.686(    17)
      4      4  C        2   1.357334(     3)      1  123.921(    18)      3 -180.317(    32)      0
      5      5  H        3   1.076952(     4)      2  120.661(    19)      1   -0.119(    33)      0
      6      6  C        3   1.361012(     5)      2  108.417(    20)      5  180.489(    34)      0
      7      7  C        4   1.412913(     6)      2  107.195(    21)      1  179.473(    35)      0
      8      8  C        4   1.422816(     7)      2  126.120(    22)      7 -172.110(    36)      0
      9      9  H        6   1.076646(     8)      3  125.648(    23)      2 -178.572(    37)      0
     10     10  H        8   1.081923(     9)      4  120.461(    24)      2  -28.721(    38)      0
     11     11  H        7   1.081764(    10)      4  120.922(    25)      2  147.774(    39)      0
     12     12  C        8   1.360079(    11)      4  118.813(    26)     10  171.978(    40)      0
     13     13  H       12   1.084266(    12)      8  117.401(    27)      4 -175.525(    41)      0
     14     14  C       12   1.427232(    13)      8  127.395(    28)     13  174.833(    42)      0
     15     15  H       14   1.087349(    14)     12  117.607(    29)      8 -163.604(    43)      0
     16     16  C       14   1.366732(    15)     12  128.815(    30)     15  165.130(    44)      0
     17     17  O       16   1.182508(    16)     14  145.929(    31)     12  176.833(    45)      0
 ---------------------------------------------------------------------------------------------------
                         Z-Matrix orientation:                         
 ---------------------------------------------------------------------
 Center     Atomic      Atomic             Coordinates (Angstroms)
 Number     Number       Type             X           Y           Z
 ---------------------------------------------------------------------
      1          1           0        0.000000    0.000000    0.000000
      2          7           0        0.000000    0.000000    1.007745
      3          6           0        1.124276    0.000000    1.815190
      4          6           0       -1.126308    0.006225    1.765207
      5          1           0        2.110754   -0.001932    1.383123
      6          6           0        0.720263   -0.008335    3.114827
      7          6           0       -0.719785   -0.008447    3.118296
      8          6           0       -2.459171   -0.133703    1.287397
      9          1           0        1.369111    0.011403    3.973765
     10          1           0       -2.721523    0.193645    0.290114
     11          1           0       -1.306374    0.486903    3.880369
     12          6           0       -3.354306   -0.831506    2.036809
     13          1           0       -4.341919   -0.987590    1.617417
     14          6           0       -3.119474   -1.480448    3.286096
     15          1           0       -3.850610   -2.213484    3.618404
     16          6           0       -1.969831   -1.528692    4.023627
     17          8           0       -1.463870   -1.900057    5.025832
 ---------------------------------------------------------------------
                    Distance matrix (angstroms):
                    1          2          3          4          5
     1  H    0.000000
     2  N    1.007745   0.000000
     3  C    2.135160   1.384183   0.000000
     4  C    2.093935   1.357334   2.251147   0.000000
     5  H    2.523552   2.143874   1.076952   3.259543   0.000000
     6  C    3.197029   2.226801   1.361012   2.287249   2.220879
     7  C    3.200301   2.229929   2.258034   1.412913   3.320063
     8  C    2.778990   2.478629   3.624573   1.422816   4.572826
     9  H    4.203023   3.266782   2.172446   3.332397   2.694742
    10  H    2.743785   2.821202   4.141681   2.180765   4.958208
    11  H    4.123221   3.193063   3.226468   2.176553   4.260512
    12  C    4.011404   3.605793   4.560505   2.395733   5.566181
    13  H    4.737471   4.494363   5.558213   3.368927   6.531723
    14  C    4.766684   4.136874   4.729134   2.914792   5.758698
    15  H    5.728835   5.151917   5.735903   3.972816   6.739830
    16  C    4.733572   3.913142   4.097267   2.857965   5.094550
    17  O    5.568853   4.679546   4.540588   3.792036   5.445195
                    6          7          8          9         10
     6  C    0.000000
     7  C    1.440052   0.000000
     8  C    3.669335   2.528506   0.000000
     9  H    1.076646   2.257368   4.679035   0.000000
    10  H    4.457095   3.470793   1.081923   5.507793   0.000000
    11  H    2.222291   1.081764   2.904754   2.719016   3.870216
    12  C    4.294397   2.964412   1.360079   5.174259   2.121860
    13  H    5.369066   4.041190   2.093509   6.258293   2.404731
    14  C    4.115827   2.820187   2.498905   4.779739   3.454976
    15  H    5.099917   3.861912   3.419823   5.685235   4.259885
    16  C    3.220871   2.166423   3.110049   3.677352   4.179785
    17  O    3.464245   2.787570   4.252826   3.575795   5.328443
                   11         12         13         14         15
    11  H    0.000000
    12  C    3.054658   0.000000
    13  H    4.063202   1.084266   0.000000
    14  C    2.740613   1.427232   2.126446   0.000000
    15  H    3.719388   2.158153   2.397529   1.087349   0.000000
    16  C    2.126810   2.519977   3.421905   1.366732   2.042174
    17  O    2.652257   3.694565   4.553357   2.437986   2.788480
                   16         17
    16  C    0.000000
    17  O    1.182508   0.000000
 Symmetry turned off by external request.
 Stoichiometry    C8H7NO
 Framework group  C1[X(C8H7NO)]
 Deg. of freedom    45
 Full point group                 C1      NOp   1
 Rotational constants (GHZ):           2.1680254           1.3265624           0.8614252
 Standard basis: def2TZVP (5D, 7F)
 The following finite field(s) will be applied:
 An electric field of             -0.0045 -0.0009  0.0059
   352 basis functions,   566 primitive gaussians,   402 cartesian basis functions
    35 alpha electrons       35 beta electrons
       nuclear repulsion energy       477.8299264810 Hartrees.
 NAtoms=   17 NActive=   17 NUniq=   17 SFac= 1.00D+00 NAtFMM=   60 NAOKFM=F Big=F
 Integral buffers will be    131072 words long.
 Raffenetti 2 integral format.
 Two-electron integral symmetry is turned off.
 One-electron integrals computed using PRISM.
   1 Symmetry operations used in ECPInt.
 ECPInt:  NShTT=    9591 NPrTT=   29644 LenC2=    9322 LenP2D=   22670.
 LDataN:  DoStor=T MaxTD1= 6 Len=  172
 NBasis=   352 RedAO= T EigKep=  3.78D-05  NBF=   352
 NBsUse=   352 1.00D-06 EigRej= -1.00D+00 NBFU=   352
 The nuclear repulsion energy is now       480.6984484831 hartrees.
 Initial guess from the checkpoint file:  "checkpoint.chk"
 B after Tr=     0.000892    0.002189   -0.000278
         Rot=    0.999998   -0.001487    0.000193   -0.001580 Ang=  -0.25 deg.
 Requested convergence on RMS density matrix=1.00D-08 within 128 cycles.
 Requested convergence on MAX density matrix=1.00D-06.
 Requested convergence on             energy=1.00D-06.
 No special actions if energy rises.
 SCF Done:  E(RB3LYP) =  -439.149490417     A.U. after    9 cycles
            NFock=  9  Conv=0.58D-08     -V/T= 2.0050
   1 Symmetry operations used in ECPInt.
 ECPInt:  NShTT=    9591 NPrTT=   29644 LenC2=    9322 LenP2D=   22670.
 LDataN:  DoStor=T MaxTD1= 7 Len=  274
 Calling FoFJK, ICntrl=      2127 FMM=F ISym2X=0 I1Cent= 0 IOpClX= 0 NMat=1 NMatS=1 NMatT=0.
 -------------------------------------------------------------------
 Center     Atomic                   Forces (Hartrees/Bohr)
 Number     Number              X              Y              Z
 -------------------------------------------------------------------
      1        1           0.002273644   -0.002138868    0.000001982
      2        7          -0.002284283    0.003156341   -0.000047514
      3        6          -0.000051151   -0.001156689    0.000050318
      4        6           0.000054439    0.000128598    0.000023523
      5        1          -0.000000703    0.000018335   -0.000000833
      6        6          -0.000283465    0.000010360   -0.000031843
      7        6           0.000284810   -0.000031956   -0.000000464
      8        6           0.000000983    0.000008740   -0.000003596
      9        1          -0.000014979   -0.000003158    0.000005643
     10        1           0.000000321   -0.000003532   -0.000000554
     11        1           0.000016033    0.000012531   -0.000000418
     12        6           0.000005377   -0.000006390    0.000010256
     13        1           0.000001346   -0.000002100   -0.000001756
     14        6          -0.000016102   -0.000008187   -0.000008260
     15        1          -0.000001088    0.000003076    0.000001593
     16        6           0.000019122    0.000023120   -0.000002489
     17        8          -0.000004302   -0.000010221    0.000004412
 -------------------------------------------------------------------
 Cartesian Forces:  Max     0.003156341 RMS     0.000720245
 -----------------------------------------------------------------------------------------------
                       Internal Coordinate Forces (Hartree/Bohr or radian)
  Cent   Atom   N1       Length/X         N2         Alpha/Y        N3         Beta/Z          J
 -----------------------------------------------------------------------------------------------
      1  H 
      2  N        1  -0.000002(     1)
      3  C        2  -0.000271(     2)      1   0.001366(    17)
      4  C        2  -0.000287(     3)      1   0.001359(    18)      3  -0.000267(    32)     0
      5  H        3  -0.000000(     4)      2  -0.000002(    19)      1   0.000015(    33)     0
      6  C        3   0.000064(     5)      2  -0.000784(    20)      5  -0.000018(    34)     0
      7  C        4   0.000086(     6)      2  -0.000793(    21)      1  -0.000012(    35)     0
      8  C        4  -0.000006(     7)      2   0.000004(    22)      7   0.000030(    36)     0
      9  H        6  -0.000005(     8)      3   0.000031(    23)      2  -0.000005(    37)     0
     10  H        8  -0.000001(     9)      4   0.000001(    24)      2   0.000020(    38)     0
     11  H        7  -0.000003(    10)      4   0.000014(    25)      2  -0.000033(    39)     0
     12  C        8  -0.000000(    11)      4  -0.000026(    26)     10   0.000014(    40)     0
     13  H       12  -0.000000(    12)      8  -0.000002(    27)      4   0.000023(    41)     0
     14  C       12  -0.000008(    13)      8  -0.000012(    28)     13   0.000017(    42)     0
     15  H       14  -0.000001(    14)     12   0.000000(    29)      8   0.000006(    43)     0
     16  C       14   0.000013(    15)     12  -0.000012(    30)     15   0.000012(    44)     0
     17  O       16   0.000005(    16)     14  -0.000020(    31)     12   0.000007(    45)     0
 -----------------------------------------------------------------------------------------------
 Internal  Forces:  Max     0.001366049 RMS     0.000339988

 GradGradGradGradGradGradGradGradGradGradGradGradGradGradGradGradGradGrad
 Berny optimization.
 Search for a saddle point.
 Step number   3 out of a maximum of   55
 All quantities printed in internal units (Hartrees-Bohrs-Radians)
 Swapping is turned off.
 Update second derivatives using D2CorN and points    1    2    3
 ITU=  0  0  0
     Eigenvalues ---   -0.21382   0.01739   0.01987   0.02140   0.03059
     Eigenvalues ---    0.03858   0.04290   0.04871   0.05988   0.10022
     Eigenvalues ---    0.11271   0.11403   0.14612   0.16519   0.16596
     Eigenvalues ---    0.18039   0.18184   0.21106   0.23423   0.27183
     Eigenvalues ---    0.30856   0.32030   0.34165   0.34640   0.35146
     Eigenvalues ---    0.35574   0.35830   0.37115   0.37277   0.37444
     Eigenvalues ---    0.39581   0.42283   0.44762   0.46860   0.48156
     Eigenvalues ---    0.49892   0.53271   0.58839   0.81907   0.88534
     Eigenvalues ---    1.08046   1.50754   2.02617   2.17580  16.34750
 Eigenvectors required to have negative eigenvalues:
                          A17       D11       A12       D8        R16
   1                    0.60794   0.47056   0.28571  -0.22185  -0.20683
                          A16       A8        A11       A14       R17
   1                    0.20077  -0.17772   0.17573   0.14752  -0.12989
 RFO step:  Lambda0=1.469324176D-09 Lambda=-1.45899132D-06.
 Linear search not attempted -- option 19 set.
 Variable       Old X    -DE/DX   Delta X   Delta X   Delta X     New X
                                 (Linear)    (Quad)   (Total)
    R2        1.90436  -0.00000   0.00000  -0.00001  -0.00001   1.90435
    R3        2.61573  -0.00027   0.00000  -0.00005  -0.00005   2.61568
    R4        2.56499  -0.00029   0.00000   0.00001   0.00001   2.56500
    R5        2.03514  -0.00000   0.00000  -0.00000  -0.00000   2.03514
    R6        2.57194   0.00006   0.00000   0.00002   0.00002   2.57196
    R7        2.67002   0.00009   0.00000  -0.00000  -0.00000   2.67002
    R8        2.68873  -0.00001   0.00000   0.00001   0.00001   2.68874
    R9        2.03457  -0.00000   0.00000  -0.00000  -0.00000   2.03457
   R10        2.04454  -0.00000   0.00000   0.00000   0.00000   2.04454
   R11        2.04424  -0.00000   0.00000   0.00001   0.00001   2.04424
   R12        2.57018  -0.00000   0.00000  -0.00001  -0.00001   2.57016
   R13        2.04897  -0.00000   0.00000  -0.00000  -0.00000   2.04896
   R14        2.69708  -0.00001   0.00000   0.00002   0.00002   2.69709
   R15        2.05479  -0.00000   0.00000   0.00000   0.00000   2.05480
   R16        2.58275   0.00001   0.00000  -0.00002  -0.00002   2.58273
   R17        2.23462   0.00001   0.00000   0.00001   0.00001   2.23463
    A3        2.19363   0.00137   0.00000   0.00017   0.00017   2.19379
    A4        2.16283   0.00136   0.00000   0.00007   0.00007   2.16290
    A5        2.10594  -0.00000   0.00000   0.00003   0.00003   2.10597
    A6        1.89223  -0.00078   0.00000  -0.00004  -0.00004   1.89219
    A7        1.87091  -0.00079   0.00000  -0.00003  -0.00003   1.87088
    A8        2.20121   0.00000   0.00000  -0.00002  -0.00002   2.20118
    A9        2.19297   0.00003   0.00000  -0.00001  -0.00001   2.19296
   A10        2.10244   0.00000   0.00000  -0.00002  -0.00002   2.10242
   A11        2.11049   0.00001   0.00000  -0.00004  -0.00004   2.11045
   A12        2.07368  -0.00003   0.00000   0.00004   0.00004   2.07373
   A13        2.04903  -0.00000   0.00000  -0.00000  -0.00000   2.04903
   A14        2.22345  -0.00001   0.00000   0.00000   0.00000   2.22346
   A15        2.05263   0.00000   0.00000   0.00000   0.00000   2.05263
   A16        2.24824  -0.00001   0.00000   0.00006   0.00006   2.24830
   A17        2.54694  -0.00002   0.00000   0.00005   0.00005   2.54700
    D4       -3.14712  -0.00027   0.00000  -0.00428  -0.00428  -3.15140
    D5       -0.00208   0.00001   0.00000  -0.00222  -0.00222  -0.00430
    D6        3.15013  -0.00002   0.00000  -0.00061  -0.00061   3.14952
    D7        3.13239  -0.00001   0.00000   0.00270   0.00270   3.13508
    D8       -3.00388   0.00003   0.00000   0.00014   0.00014  -3.00374
    D9       -3.11667  -0.00000   0.00000  -0.00014  -0.00014  -3.11681
   D10       -0.50128   0.00002   0.00000  -0.00000  -0.00000  -0.50128
   D11        2.57914  -0.00003   0.00000   0.00042   0.00042   2.57956
   D12        3.00159   0.00001   0.00000  -0.00015  -0.00015   3.00144
   D13       -3.06349   0.00002   0.00000  -0.00007  -0.00007  -3.06356
   D14        3.05141   0.00002   0.00000  -0.00002  -0.00002   3.05139
   D15       -2.85543   0.00001   0.00000  -0.00016  -0.00016  -2.85559
   D16        2.88206   0.00001   0.00000   0.00017   0.00017   2.88223
   D17        3.08632   0.00001   0.00000  -0.00003  -0.00003   3.08628
         Item               Value     Threshold  Converged?
 Maximum Force            0.001366     0.000450     NO 
 RMS     Force            0.000340     0.000300     NO 
 Maximum Displacement     0.004281     0.001800     NO 
 RMS     Displacement     0.000833     0.001200     YES
 Predicted change in Energy=-7.287610D-07
 GradGradGradGradGradGradGradGradGradGradGradGradGradGradGradGradGradGrad

 ---------------------------------------------------------------------------------------------------
                            Z-MATRIX (ANGSTROMS AND DEGREES)
   CD    Cent   Atom    N1       Length/X        N2       Alpha/Y        N3        Beta/Z          J
 ---------------------------------------------------------------------------------------------------
      1      1  H 
      2      2  N        1   1.007739(     1)
      3      3  C        2   1.384158(     2)      1  125.695(    17)
      4      4  C        2   1.357339(     3)      1  123.925(    18)      3 -180.562(    32)      0
      5      5  H        3   1.076951(     4)      2  120.663(    19)      1   -0.247(    33)      0
      6      6  C        3   1.361023(     5)      2  108.414(    20)      5  180.454(    34)      0
      7      7  C        4   1.412911(     6)      2  107.193(    21)      1  179.627(    35)      0
      8      8  C        4   1.422820(     7)      2  126.119(    22)      7 -172.102(    36)      0
      9      9  H        6   1.076646(     8)      3  125.647(    23)      2 -178.580(    37)      0
     10     10  H        8   1.081924(     9)      4  120.460(    24)      2  -28.721(    38)      0
     11     11  H        7   1.081767(    10)      4  120.920(    25)      2  147.798(    39)      0
     12     12  C        8   1.360071(    11)      4  118.816(    26)     10  171.970(    40)      0
     13     13  H       12   1.084265(    12)      8  117.401(    27)      4 -175.529(    41)      0
     14     14  C       12   1.427241(    13)      8  127.395(    28)     13  174.832(    42)      0
     15     15  H       14   1.087351(    14)     12  117.607(    29)      8 -163.613(    43)      0
     16     16  C       14   1.366720(    15)     12  128.818(    30)     15  165.140(    44)      0
     17     17  O       16   1.182514(    16)     14  145.932(    31)     12  176.831(    45)      0
 ---------------------------------------------------------------------------------------------------
                         Z-Matrix orientation:                         
 ---------------------------------------------------------------------
 Center     Atomic      Atomic             Coordinates (Angstroms)
 Number     Number       Type             X           Y           Z
 ---------------------------------------------------------------------
      1          1           0        0.000000    0.000000    0.000000
      2          7           0        0.000000    0.000000    1.007739
      3          6           0        1.124120    0.000000    1.815357
      4          6           0       -1.126224    0.011046    1.765280
      5          1           0        2.110680   -0.003987    1.383493
      6          6           0        0.719826   -0.004680    3.114937
      7          6           0       -0.719587   -0.001728    3.118351
      8          6           0       -2.459494   -0.126407    1.287876
      9          1           0        1.368546    0.015844    3.973953
     10          1           0       -2.721011    0.199314    0.289840
     11          1           0       -1.304945    0.496633    3.879410
     12          6           0       -3.356448   -0.820170    2.038849
     13          1           0       -4.344513   -0.974483    1.619866
     14          6           0       -3.123269   -1.467080    3.289510
     15          1           0       -3.856442   -2.197304    3.623519
     16          6           0       -1.973749   -1.516905    4.027103
     17          8           0       -1.468720   -1.887484    5.030077
 ---------------------------------------------------------------------
                    Distance matrix (angstroms):
                    1          2          3          4          5
     1  H    0.000000
     2  N    1.007739   0.000000
     3  C    2.135221   1.384158   0.000000
     4  C    2.093971   1.357339   2.250928   0.000000
     5  H    2.523696   2.143870   1.076951   3.259376   0.000000
     6  C    3.197030   2.226759   1.361023   2.286859   2.220894
     7  C    3.200300   2.229908   2.257665   1.412911   3.319661
     8  C    2.779157   2.478622   3.624432   1.422820   4.572813
     9  H    4.203031   3.266740   2.172448   3.331987   2.694742
    10  H    2.743654   2.821171   4.141493   2.180760   4.958089
    11  H    4.123027   3.193121   3.226037   2.176531   4.259896
    12  C    4.011898   3.605774   4.560495   2.395759   5.566429
    13  H    4.737972   4.494342   5.558218   3.368946   6.532017
    14  C    4.767390   4.136860   4.729246   2.914846   5.759146
    15  H    5.729763   5.151951   5.736166   3.972903   6.740542
    16  C    4.734369   3.913214   4.097513   2.858108   5.095111
    17  O    5.569686   4.679629   4.540907   3.792179   5.445845
                    6          7          8          9         10
     6  C    0.000000
     7  C    1.439421   0.000000
     8  C    3.668930   2.528529   0.000000
     9  H    1.076646   2.256693   4.678583   0.000000
    10  H    4.456697   3.470820   1.081924   5.507343   0.000000
    11  H    2.221584   1.081767   2.904689   2.718024   3.870227
    12  C    4.294066   2.964491   1.360071   5.173888   2.121829
    13  H    5.368732   4.041262   2.093501   6.257916   2.404689
    14  C    4.115638   2.820326   2.498908   4.779533   3.454953
    15  H    5.099852   3.862073   3.419840   5.685186   4.259859
    16  C    3.220903   2.166682   3.110113   3.677374   4.179826
    17  O    3.464454   2.787825   4.252892   3.576050   5.328490
                   11         12         13         14         15
    11  H    0.000000
    12  C    3.054554   0.000000
    13  H    4.063090   1.084265   0.000000
    14  C    2.740521   1.427241   2.126452   0.000000
    15  H    3.719263   2.158164   2.397525   1.087351   0.000000
    16  C    2.126840   2.520010   3.421920   1.366720   2.042146
    17  O    2.652333   3.694607   4.553383   2.438000   2.788479
                   16         17
    16  C    0.000000
    17  O    1.182514   0.000000
 Symmetry turned off by external request.
 Stoichiometry    C8H7NO
 Framework group  C1[X(C8H7NO)]
 Deg. of freedom    45
 Full point group                 C1      NOp   1
 Rotational constants (GHZ):           2.1682128           1.3264769           0.8614098
 Standard basis: def2TZVP (5D, 7F)
 The following finite field(s) will be applied:
 An electric field of             -0.0045 -0.0009  0.0059
   352 basis functions,   566 primitive gaussians,   402 cartesian basis functions
    35 alpha electrons       35 beta electrons
       nuclear repulsion energy       477.8367075208 Hartrees.
 NAtoms=   17 NActive=   17 NUniq=   17 SFac= 1.00D+00 NAtFMM=   60 NAOKFM=F Big=F
 Integral buffers will be    131072 words long.
 Raffenetti 2 integral format.
 Two-electron integral symmetry is turned off.
 One-electron integrals computed using PRISM.
   1 Symmetry operations used in ECPInt.
 ECPInt:  NShTT=    9591 NPrTT=   29644 LenC2=    9322 LenP2D=   22670.
 LDataN:  DoStor=T MaxTD1= 6 Len=  172
 NBasis=   352 RedAO= T EigKep=  3.78D-05  NBF=   352
 NBsUse=   352 1.00D-06 EigRej= -1.00D+00 NBFU=   352
 The nuclear repulsion energy is now       480.7063735385 hartrees.
 Initial guess from the checkpoint file:  "checkpoint.chk"
 B after Tr=    -0.000207   -0.002758    0.000317
         Rot=    0.999999    0.001064   -0.000000    0.001225 Ang=   0.19 deg.
 Requested convergence on RMS density matrix=1.00D-08 within 128 cycles.
 Requested convergence on MAX density matrix=1.00D-06.
 Requested convergence on             energy=1.00D-06.
 No special actions if energy rises.
 SCF Done:  E(RB3LYP) =  -439.149491399     A.U. after    8 cycles
            NFock=  8  Conv=0.84D-08     -V/T= 2.0050
   1 Symmetry operations used in ECPInt.
 ECPInt:  NShTT=    9591 NPrTT=   29644 LenC2=    9322 LenP2D=   22670.
 LDataN:  DoStor=T MaxTD1= 7 Len=  274
 Calling FoFJK, ICntrl=      2127 FMM=F ISym2X=0 I1Cent= 0 IOpClX= 0 NMat=1 NMatS=1 NMatT=0.
 -------------------------------------------------------------------
 Center     Atomic                   Forces (Hartrees/Bohr)
 Number     Number              X              Y              Z
 -------------------------------------------------------------------
      1        1           0.002272504   -0.002177875    0.000000469
      2        7          -0.002270180    0.003291141    0.000010802
      3        6           0.000014396   -0.001163868   -0.000009008
      4        6          -0.000015120    0.000060575   -0.000006631
      5        1           0.000000061   -0.000015016    0.000000615
      6        6           0.000074515    0.000003954    0.000005060
      7        6          -0.000070399    0.000016993    0.000000221
      8        6           0.000001887   -0.000015543   -0.000003666
      9        1           0.000004090   -0.000001782   -0.000001533
     10        1          -0.000002791    0.000006505    0.000003047
     11        1          -0.000005889   -0.000003728   -0.000000038
     12        6           0.000002517   -0.000003021   -0.000001877
     13        1          -0.000000048   -0.000000357   -0.000000034
     14        6          -0.000000916   -0.000001881    0.000000734
     15        1          -0.000000045    0.000001179    0.000001111
     16        6          -0.000006578    0.000009598    0.000004927
     17        8           0.000001998   -0.000006871   -0.000004201
 -------------------------------------------------------------------
 Cartesian Forces:  Max     0.003291141 RMS     0.000731147
 -----------------------------------------------------------------------------------------------
                       Internal Coordinate Forces (Hartree/Bohr or radian)
  Cent   Atom   N1       Length/X         N2         Alpha/Y        N3         Beta/Z          J
 -----------------------------------------------------------------------------------------------
      1  H 
      2  N        1  -0.000000(     1)
      3  C        2   0.000073(     2)      1  -0.000355(    17)
      4  C        2   0.000076(     3)      1  -0.000361(    18)      3  -0.000100(    32)     0
      5  H        3  -0.000000(     4)      2   0.000001(    19)      1  -0.000030(    33)     0
      6  C        3  -0.000020(     5)      2   0.000204(    20)      5  -0.000004(    34)     0
      7  C        4  -0.000022(     6)      2   0.000204(    21)      1   0.000034(    35)     0
      8  C        4   0.000005(     7)      2  -0.000008(    22)      7   0.000002(    36)     0
      9  H        6   0.000001(     8)      3  -0.000008(    23)      2  -0.000003(    37)     0
     10  H        8  -0.000000(     9)      4   0.000003(    24)      2  -0.000012(    38)     0
     11  H        7   0.000001(    10)      4  -0.000006(    25)      2   0.000011(    39)     0
     12  C        8   0.000003(    11)      4   0.000018(    26)     10   0.000002(    40)     0
     13  H       12   0.000000(    12)      8   0.000000(    27)      4   0.000002(    41)     0
     14  C       12   0.000000(    13)      8   0.000015(    28)     13   0.000001(    42)     0
     15  H       14  -0.000000(    14)     12   0.000001(    29)      8  -0.000000(    43)     0
     16  C       14  -0.000004(    15)     12   0.000003(    30)     15   0.000002(    44)     0
     17  O       16  -0.000001(    16)     14   0.000000(    31)     12   0.000010(    45)     0
 -----------------------------------------------------------------------------------------------
 Internal  Forces:  Max     0.000360662 RMS     0.000090052

 GradGradGradGradGradGradGradGradGradGradGradGradGradGradGradGradGradGrad
 Berny optimization.
 Search for a saddle point.
 Step number   4 out of a maximum of   55
 All quantities printed in internal units (Hartrees-Bohrs-Radians)
 Swapping is turned off.
 Update second derivatives using D2CorN and points    1    2    3    4
 ITU=  0  0  0  0
     Eigenvalues ---   -0.21349   0.00582   0.01728   0.01889   0.03032
     Eigenvalues ---    0.03435   0.04096   0.04828   0.05967   0.10024
     Eigenvalues ---    0.11278   0.11356   0.14568   0.16495   0.16569
     Eigenvalues ---    0.18039   0.18181   0.21106   0.23423   0.27185
     Eigenvalues ---    0.30860   0.32013   0.34165   0.34622   0.35148
     Eigenvalues ---    0.35575   0.35836   0.37111   0.37276   0.37444
     Eigenvalues ---    0.39582   0.42282   0.44761   0.46860   0.48157
     Eigenvalues ---    0.49892   0.53274   0.58846   0.81908   0.88536
     Eigenvalues ---    1.07983   1.50745   2.02612   2.17575  16.36956
 Eigenvectors required to have negative eigenvalues:
                          A17       D11       A12       D8        R16
   1                    0.60863   0.47005   0.28650  -0.22094  -0.20676
                          A16       A8        A11       A14       R17
   1                    0.20114  -0.17814   0.17533   0.14804  -0.13001
 RFO step:  Lambda0=4.922752483D-11 Lambda=-1.54644919D-06.
 Linear search not attempted -- option 19 set.
 Variable       Old X    -DE/DX   Delta X   Delta X   Delta X     New X
                                 (Linear)    (Quad)   (Total)
    R2        1.90435  -0.00000   0.00000   0.00000   0.00000   1.90435
    R3        2.61568   0.00007   0.00000   0.00000   0.00000   2.61568
    R4        2.56500   0.00008   0.00000   0.00003   0.00003   2.56503
    R5        2.03514  -0.00000   0.00000   0.00000   0.00000   2.03514
    R6        2.57196  -0.00002   0.00000   0.00001   0.00001   2.57197
    R7        2.67002  -0.00002   0.00000  -0.00003  -0.00003   2.66998
    R8        2.68874   0.00000   0.00000   0.00008   0.00008   2.68882
    R9        2.03457   0.00000   0.00000  -0.00001  -0.00001   2.03456
   R10        2.04454  -0.00000   0.00000  -0.00001  -0.00001   2.04454
   R11        2.04424   0.00000   0.00000  -0.00001  -0.00001   2.04423
   R12        2.57016   0.00000   0.00000  -0.00006  -0.00006   2.57010
   R13        2.04896   0.00000   0.00000   0.00000   0.00000   2.04897
   R14        2.69709   0.00000   0.00000   0.00008   0.00008   2.69717
   R15        2.05480  -0.00000   0.00000   0.00001   0.00001   2.05480
   R16        2.58273  -0.00000   0.00000  -0.00000  -0.00000   2.58272
   R17        2.23463  -0.00000   0.00000   0.00008   0.00008   2.23471
    A3        2.19379  -0.00036   0.00000   0.00016   0.00016   2.19396
    A4        2.16290  -0.00036   0.00000  -0.00024  -0.00024   2.16266
    A5        2.10597   0.00000   0.00000  -0.00002  -0.00002   2.10595
    A6        1.89219   0.00020   0.00000   0.00005   0.00005   1.89224
    A7        1.87088   0.00020   0.00000   0.00002   0.00002   1.87090
    A8        2.20118  -0.00001   0.00000   0.00008   0.00008   2.20126
    A9        2.19296  -0.00001   0.00000  -0.00001  -0.00001   2.19295
   A10        2.10242   0.00000   0.00000   0.00014   0.00014   2.10256
   A11        2.11045  -0.00001   0.00000   0.00005   0.00005   2.11050
   A12        2.07373   0.00002   0.00000  -0.00017  -0.00017   2.07355
   A13        2.04903   0.00000   0.00000   0.00007   0.00007   2.04910
   A14        2.22346   0.00001   0.00000  -0.00014  -0.00014   2.22332
   A15        2.05263   0.00000   0.00000   0.00003   0.00003   2.05266
   A16        2.24830   0.00000   0.00000  -0.00010  -0.00010   2.24820
   A17        2.54700   0.00000   0.00000  -0.00023  -0.00023   2.54677
    D4       -3.15140  -0.00010   0.00000  -0.00923  -0.00923  -3.16063
    D5       -0.00430  -0.00003   0.00000  -0.00998  -0.00998  -0.01428
    D6        3.14952  -0.00000   0.00000   0.00278   0.00278   3.15230
    D7        3.13508   0.00003   0.00000   0.00713   0.00713   3.14221
    D8       -3.00374   0.00000   0.00000   0.00002   0.00002  -3.00372
    D9       -3.11681  -0.00000   0.00000  -0.00134  -0.00134  -3.11815
   D10       -0.50128  -0.00001   0.00000  -0.00171  -0.00171  -0.50299
   D11        2.57956   0.00001   0.00000   0.00126   0.00126   2.58083
   D12        3.00144   0.00000   0.00000   0.00100   0.00100   3.00244
   D13       -3.06356   0.00000   0.00000  -0.00052  -0.00052  -3.06408
   D14        3.05139   0.00000   0.00000   0.00018   0.00018   3.05157
   D15       -2.85559  -0.00000   0.00000  -0.00006  -0.00006  -2.85565
   D16        2.88223   0.00000   0.00000   0.00027   0.00027   2.88250
   D17        3.08628   0.00001   0.00000   0.00083   0.00083   3.08711
         Item               Value     Threshold  Converged?
 Maximum Force            0.000361     0.000450     YES
 RMS     Force            0.000090     0.000300     YES
 Maximum Displacement     0.009977     0.001800     NO 
 RMS     Displacement     0.002366     0.001200     NO 
 Predicted change in Energy=-7.731999D-07
[...]
   zz         0.134980D+03      0.200020D+02      0.222552D+02

 ----------------------------------------------------------------------
 1\1\GINC-BHC0108\Freq\RB3LYP\def2TZVP\C8H7N1O1\DHANAWAY\11-Jun-2022\1\
 \#N Geom=AllCheck Guess=TCheck SCRF=Check GenChk RB3LYP/def2TZVP Freq\
 \ts_zmat_initalOpt\\0,1\H\N,1,R2\C,2,R3,1,A3\C,2,R4,1,A4,3,D4,0\H,3,R5
 ,2,A5,1,D5,0\C,3,R6,2,A6,5,D6,0\C,4,R7,2,A7,1,D7,0\C,4,R8,2,A8,7,D8,0\
 H,6,R9,3,A9,2,D9,0\H,8,R10,4,A10,2,D10,0\H,7,R11,4,A11,2,D11,0\C,8,R12
 ,4,A12,10,D12,0\H,12,R13,8,A13,4,D13,0\C,12,R14,8,A14,13,D14,0\H,14,R1
 5,12,A15,8,D15,0\C,14,R16,12,A16,15,D16,0\O,16,R17,14,A17,12,D17,0\\R2
 =1.00773925\R3=1.38415998\R4=1.35736083\R5=1.07695071\R6=1.36102237\R7
 =1.41289343\R8=1.42284333\R9=1.07664501\R10=1.08192363\R11=1.08176753\
 R12=1.36005358\R13=1.08426614\R14=1.42726016\R15=1.08735195\R16=1.3667
 1448\R17=1.18253482\A3=125.69854909\A4=123.91811332\A5=120.66340552\A6
 =108.4149918\A7=107.19419115\A8=126.11979974\A9=125.64681423\A10=120.4
 6337178\A11=120.91962486\A12=118.81154884\A13=117.40242961\A14=127.390
 86977\A15=117.6083421\A16=128.81635503\A17=145.92692083\D4=-180.971810
 9\D5=-0.58468913\D6=180.49783808\D7=179.91283133\D8=-172.09398949\D9=-
 178.62029207\D10=-28.76859325\D11=147.84772766\D12=171.98740116\D13=-1
 75.54449684\D14=174.83397737\D15=-163.61844613\D16=165.1522194\D17=176
 .85395782\\Version=ES64L-G16RevA.03\HF=-439.149492\RMSD=9.318e-09\RMSF
 =7.545e-04\ZeroPoint=0.1299806\Thermal=0.137594\Dipole=0.9957391,0.773
 3157,-2.2385917\DipoleDeriv=0.1662894,0.0034031,-0.0486068,-0.0147951,
 0.2972706,-0.0074503,-0.0689707,-0.0272606,0.304259,-0.4505251,-0.1818
 064,0.1271751,0.0193511,-0.1547124,-0.0490512,0.3296436,0.0533219,-0.5
 290361,-0.0034386,-0.0484666,0.2088577,-0.0175722,-0.0953447,-0.007072
 9,0.0444434,0.0758375,0.1824539,0.4610225,0.089234,-0.2225274,0.043517
 6,0.008886,0.0814083,-0.4186707,-0.1497866,0.5000207,0.0694742,0.00279
 97,0.0052867,0.0147335,0.1885048,0.0035718,0.0156701,-0.0029833,0.0812
 297,-0.0373788,0.0390784,-0.0370436,-0.0608595,-0.2570874,-0.0043714,0
 .0882381,-0.0006809,-0.0424937,-0.030346,-0.1849402,0.2615767,-0.19736
 73,-0.2835315,0.3945135,0.2265934,0.2474687,-0.5432696,-0.2556142,-0.0
 433558,0.1790674,-0.1139473,-0.2952653,0.0797016,0.058172,0.012659,-0.
 142507,0.0210118,-0.0165112,-0.0429655,0.0125837,0.1581378,0.0056164,-
 0.0623875,-0.0074138,0.0258924,0.0312477,-0.022038,-0.0225014,0.010975
 9,0.1423632,0.0523322,-0.0307407,0.0660347,-0.0191995,0.0425731,0.0381
 059,0.0145866,0.0949754,0.1672265,-0.1390176,0.0163421,-0.0241822,0.08
 47205,0.1075261,0.0544436,0.0354069,0.1019091,0.1166444,-0.3507763,-0.
 2237472,-0.358714,0.4683572,-0.1026541,-0.0348109,-0.0750875,-0.018449
 6,0.1057382,0.0111485,-0.0527988,0.0110315,0.0673797,-0.4073275,0.2680
 235,-0.3955933,-0.0484435,-0.3013232,0.0501465,0.2216262,0.2631253,-0.
 7525481,-0.0817855,-0.1571613,0.0703661,-0.1103107,0.0355658,0.1105067
 ,-0.0129849,0.080939,0.0636439,0.8885513,-0.0346111,0.4666241,0.384108
 5,0.798811,-0.8264321,-0.0267363,-1.1444047,2.0568606,-0.4186261,0.228
 6136,-0.5246218,-0.1004095,-0.6318837,0.5952262,-0.1036921,0.9050086,-
 1.8057636\Polar=134.3397155,18.7931416,75.7567833,-4.9423541,-22.92766
 64,116.1614744\PG=C01 [X(C8H7N1O1)]\NImag=1\\0.06204122,-0.00023933,0.
 01292681,-0.00159545,0.00131070,0.46639784,-0.07531917,-0.00248866,-0.
 00041555,0.60956891,-0.00039079,-0.00815213,-0.00092296,0.00291541,0.0
 8449641,-0.00083645,0.00120636,-0.45023496,-0.01093480,0.00498805,0.93
 913765,0.01205047,0.00049879,0.00396165,-0.22161393,0.00053296,-0.0791
 6913,0.77156391,-0.00041166,-0.00647858,-0.00001110,0.00358413,-0.0508
 2785,-0.00127222,-0.00517406,0.12203013,-0.02445664,0.00067200,-0.0075
 9876,-0.06223009,-0.00198766,-0.17023270,-0.15639628,0.00024697,0.6833
 9913,0.01032522,0.00173104,-0.00167708,-0.24226666,0.00683547,0.084906
 47,-0.09170460,0.00053048,-0.01846960,0.76104298,0.00018233,-0.0043064
 9,0.00028555,-0.00070290,-0.06202026,-0.00137396,0.00117311,0.01187190
 ,0.00231979,0.02999635,0.17242107,0.02828133,-0.00181813,-0.01137080,0
 .08585222,0.00345652,-0.19347286,0.01503436,0.00229218,0.01716848,0.05
 049926,0.00324734,0.61802277,0.00007816,0.00006662,-0.00009401,-0.0177
 7397,0.00056146,0.01102882,-0.30727849,0.00229028,0.10853678,-0.000635
 70,-0.00023865,-0.00367723,0.32351272,0.00001961,-0.00116177,-0.000100
 62,-0.00101415,-0.00173924,0.00011731,0.00294311,-0.02863925,-0.000779
 02,0.00073590,0.00214147,-0.00046131,-0.00291320,0.02138020,0.00072795
 ,0.00000479,0.00060490,-0.02408106,0.00054942,0.01259222,0.11802410,-0
 .00051229,-0.11202063,-0.00280524,-0.00012247,-0.00423975,-0.11645170,
 0.00065228,0.10467023,-0.00556035,0.00093138,-0.00211052,0.00314259,0.
 00055258,-0.01283912,-0.13514996,-0.00358681,0.07731660,-0.03299673,-0
 .00074365,-0.04475872,0.00190599,-0.00034823,0.02349093,0.59618448,0.0
 0007890,0.00192339,-0.00003851,0.00044846,0.01384032,-0.00096450,-0.00
 122905,-0.06444904,-0.00152539,0.00021882,0.00941702,-0.00027549,0.000
 17644,0.00317234,0.00004155,-0.00160668,0.12195149,-0.00444574,-0.0005
 1137,0.00081948,-0.05203583,0.00004507,-0.07825070,0.09772418,-0.00006
 824,-0.37811145,-0.01691366,-0.00069037,-0.01486314,-0.00061376,0.0001
 6396,0.00160925,0.10902481,0.01302023,0.81421463,-0.00602320,-0.000794
 65,0.00200875,-0.02415000,-0.00145828,0.01175980,-0.02904590,0.0045387
 0,0.07479824,-0.11014103,0.00807693,-0.07742617,0.00074320,0.00079573,
 0.00152236,-0.24061212,-0.00106770,-0.01635699,0.55395651,0.00046066,0
 .00481917,-0.00120054,-0.01309554,0.01429298,-0.00289552,0.00480547,0.
 01323280,0.01452908,-0.00756240,-0.06986430,-0.03460195,0.00048108,0.0
 0661354,-0.00054048,0.02440675,-0.06277606,-0.01258110,-0.11433490,0.1
 6276493,0.00384423,-0.00019516,0.00104339,0.04721895,-0.00330989,-0.06
 911822,0.01961662,0.00052301,-0.02131547,-0.04405144,-0.00502763,-0.26
 164751,-0.00004131,0.00056476,-0.00490356,-0.01212409,-0.00501117,-0.0
 9338820,-0.05694943,0.13286372,0.64581388,0.00155647,-0.00047571,-0.00
 105935,-0.04909086,-0.00999840,0.00395514,0.00611763,-0.00136438,0.005
 21608,-0.24127285,-0.01303054,-0.05268294,-0.00062397,-0.00012590,-0.0
 0079786,-0.00096274,0.00022090,-0.00301085,-0.00313195,0.01777234,-0.0
 2857124,0.61185757,0.00003511,-0.00288325,-0.00085418,-0.00009178,0.00
 067425,0.00330574,-0.00156675,0.00215357,-0.00595354,-0.01081727,-0.05
 726594,0.01140246,-0.00017793,0.00167648,-0.00020998,-0.00452458,0.002
 68231,0.00224220,0.00665751,0.01284882,-0.00817698,0.13444284,0.247567
 78,-0.00048618,-0.00028770,0.00145661,0.02452679,0.00014804,0.01841631
 ,0.00392720,0.00030311,-0.00303451,-0.08177432,0.00299610,-0.14028831,
 0.00089912,-0.00005222,0.00123813,0.00114944,-0.00044833,-0.00630073,-
 0.03265444,-0.00361645,-0.00147451,0.02062980,-0.22143734,0.64274287,0
 .00083672,-0.00003336,0.00029340,0.00029738,-0.00007728,0.00379488,0.0
 1067056,0.00030164,0.00871072,-0.00599217,0.00000358,0.00155807,-0.000
 03563,0.00001819,-0.00077362,-0.16514101,-0.00394451,-0.14498109,-0.00
 676914,-0.00086223,-0.02263972,0.00031497,0.00014502,-0.00137752,0.165
 19026,0.00001172,0.00193810,0.00009256,-0.00091365,0.00567500,-0.00035
 487,-0.00015575,0.00034060,0.00151136,0.00043619,0.00274194,-0.0003557
 2,-0.00002899,-0.00363089,0.00009169,-0.00133786,-0.02725933,-0.006545
 16,-0.00232755,-0.00232702,-0.00037286,0.00010027,0.00131677,-0.000368
 90,0.00414335,0.02145491,-0.00112676,0.00005010,-0.00003386,0.00171884
 ,-0.00016237,-0.00479619,-0.01967420,-0.00063631,-0.01193310,0.0023543
 8,0.00016555,-0.00031413,0.00042831,0.00012753,0.00049150,-0.14147348,
 -0.00556218,-0.24781559,0.00324367,0.00025952,0.00757036,-0.00011520,-
 0.00001265,0.00043453,0.15518472,0.00578339,0.25650181,-0.00081667,0.0
 0025624,0.00018444,0.00275889,-0.00048232,0.00117323,-0.00059561,-0.00
 002929,-0.00098210,-0.00093834,0.00856844,-0.02692310,0.00000260,-0.00
 005651,0.00003371,-0.00090240,-0.00014717,-0.00117357,-0.00322426,0.00
 099680,-0.00058747,-0.07551141,0.01452576,-0.06740416,-0.00039673,-0.0
 0019355,0.00014122,0.07294469,0.00034312,0.00042824,0.00039584,0.00123
 264,-0.00083119,-0.00130973,-0.00017105,-0.00022405,0.00013656,-0.0075
 9759,0.00172392,-0.00828668,0.00001487,-0.00000929,0.00001868,0.000185
 91,0.00004423,-0.00038816,-0.00233717,0.00034367,0.00202035,0.02124111
 ,-0.05284572,0.08498603,-0.00015939,0.00006046,-0.00003528,-0.01310982
 ,0.05460880,-0.00057087,0.00027106,0.00003853,0.00088809,-0.00050271,0
 .00037054,-0.00078502,-0.00019718,-0.00032576,-0.00320022,0.00163915,-
 0.00784044,0.00000398,0.00003272,0.00000328,0.00003681,-0.00012579,-0.
 00013692,-0.00139207,0.00045489,0.00202075,-0.06310242,0.08827331,-0.2
 9211092,-0.00013310,0.00003326,0.00007357,0.07183511,-0.09507197,0.308
 52203,0.00059784,0.00112647,0.00004401,0.00225822,0.00189853,-0.003744
 22,-0.00744102,0.00004424,-0.00232832,0.00745535,-0.00665836,-0.001618
 70,0.00014698,-0.00093967,0.00128694,-0.00951227,0.01225505,0.02320188
 ,-0.12732137,0.07684154,0.10034869,-0.00089692,-0.00134142,0.00052236,
 0.00065894,-0.00107062,-0.00063476,-0.00010857,0.00034650,0.00014541,0
 .13555113,-0.00012767,0.00131576,0.00076994,0.00642539,0.00163848,0.00
 129338,-0.00268403,0.00162201,-0.00678126,0.00080569,-0.00138521,0.014
 71628,-0.00018327,0.00066957,0.00032495,-0.00908976,-0.00063675,0.0055
 5043,0.09376456,-0.07740030,-0.12193180,-0.00402995,-0.00446817,0.0017
 0714,0.00015190,-0.00089474,-0.00004195,-0.00032771,0.00037851,0.00017
 020,-0.07812020,0.09463112,0.00103006,0.00025381,-0.00039802,-0.004452
 85,0.00004596,-0.00538811,-0.00053459,-0.00149841,0.00312575,0.0173832
 0,-0.01237425,-0.01576623,0.00009385,-0.00043796,0.00016828,0.00118530
 ,0.00286809,0.00273403,0.09933973,-0.10216321,-0.18451910,0.00115527,0
 .00280712,-0.00063108,0.00060912,0.00052531,-0.00011672,-0.00014134,0.
 00013387,0.00002430,-0.11779165,0.10595006,0.20114559,-0.00002753,-0.0
 0010603,0.00012445,0.00733118,0.00076690,-0.00646915,-0.00514517,0.000
 18339,-0.00451806,-0.05398641,-0.02071686,0.01161093,-0.00011710,-0.00
 002535,-0.00028299,-0.00334061,0.00095413,0.00354913,0.00418895,-0.002
 28065,0.00367946,-0.23723499,-0.12162726,0.12309379,0.00000749,0.00027
 925,0.00001416,0.00851859,0.00114904,-0.00606524,-0.00026480,-0.000979
 06,0.00077211,0.66275708,-0.00066633,-0.00011703,0.00027320,0.00361428
 ,0.00394397,-0.00264259,-0.00061717,0.00150905,0.00348631,-0.02589848,
 -0.00347773,-0.01045571,0.00023708,0.00007346,0.00025212,0.00453225,-0
 .00045083,0.00026273,-0.00338209,-0.01112466,0.00961878,-0.11440063,-0
 .14053367,0.11294207,0.00018042,-0.00034039,-0.00002347,-0.00623922,-0
 .00595052,0.00382462,-0.00013221,0.00258121,-0.00062458,0.17523532,0.3
 0866955,0.00023922,-0.00071560,-0.00108735,-0.00743472,-0.00152140,0.0
 0530885,0.00023989,-0.00124411,-0.00640963,0.03249477,0.00123285,0.036
 85181,-0.00047016,-0.00033916,-0.00063032,-0.00885092,0.00114505,0.000
 27817,0.00997652,0.01993415,-0.01821472,0.07710469,0.08536897,-0.19829
 244,-0.00020305,0.00052064,0.00007558,0.02057325,0.01816037,-0.0122377
 1,-0.00115870,-0.00667601,0.00139491,0.03147507,-0.20812723,0.52524455
 ,0.00000446,-0.00010256,-0.00009634,-0.00010431,-0.00040257,-0.0004018
 9,-0.00031881,0.00017594,-0.00014691,-0.00010558,-0.00379101,0.0021344
 7,-0.00002495,0.00020831,-0.00004470,-0.00030030,-0.00017472,0.0001673
 5,0.00043115,0.00061937,-0.00034988,-0.01805363,-0.00358928,-0.0092083
 9,-0.00001824,0.00001038,-0.00000608,0.00043263,0.00189483,0.00081570,
 -0.00005227,-0.00010636,0.00004394,-0.28044609,-0.03961675,-0.10094947
 ,0.29995669,-0.00001756,0.00015599,-0.00000772,-0.00199818,0.00017635,
 -0.00170063,-0.00000820,-0.00012785,0.00135086,-0.00443731,0.00517928,
 0.00586149,-0.00010114,-0.00019448,-0.00011328,0.00071286,0.00012256,-
 0.00049980,-0.00029018,-0.00106091,0.00107617,-0.01556066,0.00267812,-
 0.00745545,-0.00000990,-0.00007537,-0.00001159,0.00196792,-0.00426239,
 -0.00211369,0.00015115,0.00030406,-0.00022911,-0.04116790,-0.05126150,
 -0.00492819,0.04697931,0.04240339,-0.00001428,0.00012988,0.00002331,-0
 .00052747,-0.00002733,0.00016048,0.00028098,-0.00019490,0.00061385,0.0
 0114556,0.00466101,-0.00001579,0.00001606,-0.00013876,0.00001874,0.000
 58194,-0.00001082,-0.00026644,-0.00036551,-0.00057076,0.00074078,0.016
 75076,0.00438823,0.00876505,0.00000473,-0.00003771,-0.00000338,0.00089
 130,-0.00250107,0.00006576,0.00018363,0.00035713,-0.00013101,-0.101570
 61,-0.00821524,-0.09288792,0.10800680,0.00167826,0.09710073,-0.0006195
 4,0.00048608,0.00032572,-0.00269151,0.00162715,-0.00330430,-0.00043087
 ,0.00147715,0.00945184,-0.02038775,-0.00410734,-0.01827289,0.00029840,
 0.00073523,0.00040525,0.01086656,-0.00285846,-0.00124406,-0.02042613,-
 0.02373369,0.01844243,0.03145708,0.00840656,0.00899978,0.00018625,-0.0
 0047811,-0.00018186,0.00005679,-0.00502496,0.00104511,-0.00116309,0.00
 667431,-0.00190855,-0.09782294,-0.02295617,0.00027173,-0.00200170,0.00
 882789,-0.02587508,0.52087715,-0.00003823,-0.00022351,-0.00036482,-0.0
 0694235,-0.00066307,0.00231941,0.00189344,0.00027565,0.00417324,0.0083
 7739,-0.00231194,-0.00247896,0.00002786,0.00057355,0.00018321,0.003449
 00,-0.00338842,-0.00055155,-0.01519908,-0.00417391,0.00299496,-0.01004
 317,-0.00890961,0.02314278,-0.00007133,-0.00003616,-0.00010819,-0.0035
 5604,0.00550748,0.00265694,-0.00000192,0.00313374,-0.00127573,0.007009
 47,-0.10466218,0.10372286,-0.00239858,0.00520555,-0.00276693,0.1437194
 7,0.31221908,-0.00045765,0.00048669,0.00053825,0.00403849,0.00004657,-
 0.00201761,0.00026053,0.00101323,0.00193793,-0.01894148,-0.00340734,-0
 .01175099,0.00006993,-0.00012780,0.00022662,0.00370970,0.00270764,-0.0
 0032603,0.00294524,-0.00956880,0.00514048,0.02720061,0.03762903,-0.029
 94791,0.00036687,-0.00022538,0.00002879,0.00085918,0.00193684,0.002254
 18,-0.00082192,0.00148295,0.00087667,-0.04464178,0.07999171,-0.2154381
 6,0.00086831,0.00245378,-0.01079603,0.14128615,-0.21907444,0.51602018,
 -0.00016488,-0.00003025,-0.00011617,-0.00212742,0.00024205,-0.00001111
 ,0.00022959,0.00036391,0.00226769,-0.00163269,-0.00101175,-0.00414342,
 0.00005812,0.00020943,0.00005369,0.00194635,-0.00110597,-0.00046059,-0
 .00349036,-0.00309175,0.00328349,0.00201243,0.00084576,-0.00332678,-0.
 00007384,-0.00009379,-0.00003621,0.00050600,-0.00021711,-0.00034166,0.
 00029047,0.00106031,-0.00057584,0.00594139,0.00286119,0.00080101,0.000
 41584,0.00138887,0.00089039,-0.17161562,-0.12909497,0.04974921,0.18430
 083,0.00015325,0.00011386,0.00010640,0.00186044,0.00029000,-0.00077338
 ,-0.00125159,-0.00026551,-0.00110493,-0.00162913,0.00095922,-0.0001850
 8,0.00003486,0.00007690,0.00003297,-0.00056586,-0.00051328,0.00120287,
 -0.00063264,0.00176473,-0.00091351,0.00391033,0.00089315,0.00319075,-0
 .00004061,0.00001310,-0.00001100,-0.00073095,0.00028708,0.00047362,-0.
 00023129,0.00056992,0.00007800,-0.01044386,-0.00808824,0.00333347,0.00
 076840,-0.00058797,-0.00069577,-0.13595317,-0.15431282,0.06759156,0.14
 305301,0.15981811,-0.00002254,0.00014426,0.00009950,0.00104658,0.00019
 905,-0.00059830,-0.00087477,-0.00004588,0.00011642,-0.00305565,0.00075
 413,-0.00160515,0.00005380,0.00012629,0.00007278,0.00071138,-0.0007629
 7,0.00071822,-0.00319802,-0.00126372,0.00097888,0.00048527,0.00322106,
 -0.00159144,0.00001374,-0.00001622,-0.00002479,0.00084311,-0.00004405,
 -0.00073996,-0.00026484,0.00115340,-0.00008999,0.01921453,0.01777416,-
 0.00693886,0.00036606,-0.00124293,0.00031715,0.04159527,0.06321273,-0.
 06488510,-0.05114447,-0.07499546,0.07022379,0.00150154,-0.00133652,-0.
 00000735,0.01084092,-0.00413715,-0.00001312,-0.00404877,-0.00302827,-0
 .02007918,0.03266412,0.00599489,0.04313269,-0.00028814,-0.00017318,-0.
 00042526,-0.02482964,-0.00387676,0.00983023,0.01355474,0.05039227,-0.0
 4433212,-0.03435884,-0.02959408,0.01759163,-0.00030838,0.00128840,0.00
 015684,-0.00367231,0.00249046,0.00105769,0.00007705,-0.01579193,0.0044
 7982,-0.01105139,0.04143884,-0.07077601,0.00011479,0.00418312,0.001005
 25,-0.21394117,-0.01902709,-0.11144736,-0.01859956,0.00140416,-0.00543
 779,0.44192658,0.00096683,-0.00103042,0.00077410,0.01471159,-0.0021057
 9,-0.00186868,-0.00034587,-0.00262718,-0.01687631,0.01060525,-0.003474
 88,0.02775770,-0.00027038,-0.00124710,-0.00076134,-0.01894126,0.006911
 17,0.00112275,0.03591857,0.03202727,-0.02606165,-0.01048485,-0.0065277
 5,0.00498387,0.00060708,0.00172360,0.00039447,-0.00205805,0.00145129,0
 .00048780,-0.00329663,-0.02654727,0.00352237,0.01448350,0.00473115,-0.
 01545184,-0.00086523,0.00202086,0.00494645,0.01882680,-0.05813155,0.02
 853941,-0.01584058,-0.00094595,-0.00742397,-0.14692992,0.16886779,-0.0
 0010654,-0.00073627,-0.00098640,-0.01070544,0.00109694,-0.00245446,-0.
 00316705,0.00234001,0.01169080,-0.00195214,0.00154111,-0.02561454,0.00
 033499,0.00098959,0.00003593,0.01079048,-0.00686453,-0.00241486,-0.028
 30453,-0.02276472,0.01829598,0.00578568,-0.00119730,0.00500335,-0.0019
 5085,-0.00113410,-0.00018238,0.00112328,-0.00130072,-0.00054066,0.0039
 6001,0.00437702,-0.00290908,-0.03605513,0.00096166,-0.01648371,-0.0010
 2594,0.00629326,-0.00375842,-0.14343865,0.00507891,-0.17012178,-0.0012
 0090,0.00433163,0.00334465,0.48440176,-0.18421318,0.77488393,-0.000460
 74,0.00051045,0.00022940,-0.00106027,0.00101427,0.00110495,0.00214097,
 0.00010461,0.00330922,-0.00942715,-0.00299456,-0.00860015,0.00003177,-
 0.00006929,0.00011751,0.00526215,0.00165832,-0.00226144,0.00146092,-0.
 01181511,0.01321283,0.00782200,0.00827180,-0.00510811,0.00057256,0.000
 33032,0.00000639,0.00094610,-0.00028137,-0.00023730,-0.00027569,0.0025
 5779,-0.00068757,0.00069231,-0.01419035,0.01666689,0.00007034,-0.00062
 009,-0.00140446,-0.03264192,0.02189612,-0.05504404,0.00200336,0.000294
 65,-0.00033165,-0.18958155,0.10291314,-0.27848902,0.21244484,-0.000359
 95,0.00073185,-0.00050783,-0.00754512,0.00131177,0.00192583,0.00135663
 ,0.00060360,0.00658195,-0.00233040,-0.00234906,-0.00981494,0.00002300,
 0.00024449,0.00010820,0.00597395,-0.00059111,-0.00177449,-0.00792775,-
 0.01998073,0.02133888,0.00182643,0.00094285,-0.00073350,-0.00035255,-0
 .00070057,-0.00017557,0.00061545,-0.00071052,-0.00030623,-0.00087117,0
 .00448806,0.00241867,-0.00271402,0.00449835,0.00558515,0.00039054,-0.0
 0067569,-0.00100167,0.00433125,0.00989812,0.00852434,0.00046164,-0.000
 07230,-0.00078990,0.11670278,-0.11509523,0.19120070,-0.10958071,0.1174
 5612,-0.00000371,-0.00026543,0.00068832,0.00752788,-0.00214131,0.00057
 806,0.00153156,-0.00103786,-0.00707034,0.00405719,0.00415345,0.0167465
 7,-0.00011746,-0.00033759,0.00006239,-0.00584054,0.00180712,0.00150029
 ,0.01105284,0.02372589,-0.02702321,-0.00894345,-0.00079616,-0.00438501
 ,0.00152269,0.00085270,0.00004401,-0.00044609,0.00114912,0.00055944,-0
 .00132982,-0.00242186,0.00047981,0.00606932,0.00070149,-0.00053306,-0.
 00017303,-0.00041143,0.00005315,-0.02759791,0.01913557,-0.02173951,0.0
 0431167,-0.00166214,0.00060219,-0.30913769,0.18012805,-0.58778835,0.31
 751656,-0.22257960,0.62722526\\-0.00227041,0.00226044,-0.00000035,0.00
 226947,-0.00348042,-0.00000303,-0.00000469,0.00122641,0.00000197,0.000
 00556,-0.00001268,0.00000343,-0.00000003,-0.00000125,-0.00000032,-0.00
 003261,-0.00000056,-0.00000219,0.00003187,0.00000182,-0.00000095,-0.00
 000191,0.00001125,0.00000343,-0.00000164,0.00000030,0.00000074,0.00000
 213,-0.00000487,-0.00000245,0.00000134,-0.00000037,0.00000057,-0.00000
 222,0.00000232,0.00000062,-0.00000024,0.00000082,0.00000032,0.00000356
 ,-0.00000042,-0.00000194,-0.00000051,0.00000006,-0.00000015,0.00000152
 ,-0.00000951,-0.00000112,-0.00000118,0.00000667,0.00000143\\\@


 I am not a vegetarian because I love animals;
 I am a vegetarian because I hate plants.
                               -- A. Whitney Brown
 Job cpu time:       0 days  2 hours 19 minutes 58.5 seconds.
 Elapsed time:       0 days  0 hours 11 minutes 46.9 seconds.
 File lengths (MBytes):  RWF=    182 Int=      0 D2E=      0 Chk=     32 Scr=      1
 Normal termination of Gaussian 16 at Sat Jun 11 00:44:37 2022.
