 Entering Gaussian System, Link 0=g16
 Input=int_zmat_field_N75.gjf
 Output=int_zmat_field_N75.out
 Initial command:
 /software/gaussian/g16-a03/l1.exe "/local_scratch/11172286/Gau-5409.inp" -scrdir="/local_scratch/11172286/"
 Entering Link 1 = /software/gaussian/g16-a03/l1.exe PID=      5413.
  
 Copyright (c) 1988,1990,1992,1993,1995,1998,2003,2009,2016,
            Gaussian, Inc.  All Rights Reserved.
  
 This is part of the Gaussian(R) 16 program.  It is based on
 the Gaussian(R) 09 system (copyright 2009, Gaussian, Inc.),
 the Gaussian(R) 03 system (copyright 2003, Gaussian, Inc.),
 the Gaussian(R) 98 system (copyright 1998, Gaussian, Inc.),
 the Gaussian(R) 94 system (copyright 1995, Gaussian, Inc.),
 the Gaussian 92(TM) system (copyright 1992, Gaussian, Inc.),
 the Gaussian 90(TM) system (copyright 1990, Gaussian, Inc.),
 the Gaussian 88(TM) system (copyright 1988, Gaussian, Inc.),
 the Gaussian 86(TM) system (copyright 1986, Carnegie Mellon
 University), and the Gaussian 82(TM) system (copyright 1983,
 Carnegie Mellon University). Gaussian is a federally registered
 trademark of Gaussian, Inc.
  
 This software contains proprietary and confidential information,
 including trade secrets, belonging to Gaussian, Inc.
  
 This software is provided under written license and may be
 used, copied, transmitted, or stored only in accord with that
 written license.
  
 The following legend is applicable only to US Government
 contracts under FAR:
  
                    RESTRICTED RIGHTS LEGEND
  
 Use, reproduction and disclosure by the US Government is
 subject to restrictions as set forth in subparagraphs (a)
 and (c) of the Commercial Computer Software - Restricted
 Rights clause in FAR 52.227-19.
  
 Gaussian, Inc.
 340 Quinnipiac St., Bldg. 40, Wallingford CT 06492
  
  
 ---------------------------------------------------------------
 Warning -- This program may not be used in any manner that
 competes with the business of Gaussian, Inc. or will provide
 assistance to any competitor of Gaussian, Inc.  The licensee
 of this program is prohibited from giving any competitor of
 Gaussian, Inc. access to this program.  By using this program,
 the user acknowledges that Gaussian, Inc. is engaged in the
 business of creating and licensing software in the field of
 computational chemistry and represents and warrants to the
 licensee that it is not a competitor of Gaussian, Inc. and that
 it will not use this program in any manner prohibited above.
 ---------------------------------------------------------------
  

 Cite this work as:
 Gaussian 16, Revision A.03,
 M. J. Frisch, G. W. Trucks, H. B. Schlegel, G. E. Scuseria, 
 M. A. Robb, J. R. Cheeseman, G. Scalmani, V. Barone, 
 G. A. Petersson, H. Nakatsuji, X. Li, M. Caricato, A. V. Marenich, 
 J. Bloino, B. G. Janesko, R. Gomperts, B. Mennucci, H. P. Hratchian, 
 J. V. Ortiz, A. F. Izmaylov, J. L. Sonnenberg, D. Williams-Young, 
 F. Ding, F. Lipparini, F. Egidi, J. Goings, B. Peng, A. Petrone, 
 T. Henderson, D. Ranasinghe, V. G. Zakrzewski, J. Gao, N. Rega, 
 G. Zheng, W. Liang, M. Hada, M. Ehara, K. Toyota, R. Fukuda, 
 J. Hasegawa, M. Ishida, T. Nakajima, Y. Honda, O. Kitao, H. Nakai, 
 T. Vreven, K. Throssell, J. A. Montgomery, Jr., J. E. Peralta, 
 F. Ogliaro, M. J. Bearpark, J. J. Heyd, E. N. Brothers, K. N. Kudin, 
 V. N. Staroverov, T. A. Keith, R. Kobayashi, J. Normand, 
 K. Raghavachari, A. P. Rendell, J. C. Burant, S. S. Iyengar, 
 J. Tomasi, M. Cossi, J. M. Millam, M. Klene, C. Adamo, R. Cammi, 
 J. W. Ochterski, R. L. Martin, K. Morokuma, O. Farkas, 
 J. B. Foresman, and D. J. Fox, Gaussian, Inc., Wallingford CT, 2016.
 
 ******************************************
 Gaussian 16:  ES64L-G16RevA.03 25-Dec-2016
                10-Jun-2022 
 ******************************************
 %nprocshared=12
 Will use up to   12 processors via shared memory.
 %chk=checkpoint.chk
 %mem=12GB
 ----------------------------------------------------------------------
 # Opt=(Z-matrix, MaxStep=10) B3LYP/Def2TZVP geom=allcheckpoint guess=r
 ead Field=read NoSymm freq=noraman pop=none
 ----------------------------------------------------------------------
 1/8=10,10=7,18=40,26=3,29=7,38=1/1,3;
 2/12=2,15=1,29=3,40=1/2;
 3/5=44,7=101,11=2,14=-6,25=1,30=1,71=1,74=-5,116=-2/1,2,3;
 4/5=1/1;
 5/5=2,38=6/2;
 7/29=1,30=1/1,2,3,16;
 1/8=10,10=7,18=40,26=3/3(2);
 2/15=1,29=3/2;
 99//99;
 2/15=1,29=3/2;
 3/5=44,7=101,11=2,14=-2,25=1,30=1,71=1,74=-5/1,2,3;
 4/5=5,16=3,69=1/1;
 5/5=2,38=5/2;
 7/30=1/1,2,3,16;
 1/8=10,18=40,26=3/3(-5);
 2/15=1,29=3/2;
 99/9=1/99;
 Structure from the checkpoint file:  "checkpoint.chk"
 ------------------
 int_zmat_initalOpt
 ------------------
 Charge =  0 Multiplicity = 1
 Z-Matrix found in chk file.
 C
 C,1,R2
 C,1,R3,2,A3
 C,1,R4,2,A4,3,D4,0
 H,2,R5,1,A5,3,D5,0
 C,2,R6,1,A6,5,D6,0
 O,3,R7,1,A7,2,D7,0
 H,3,R8,1,A8,7,D8,0
 H,3,R9,1,A9,7,D9,0
 C,4,R10,1,A10,2,D10,0
 C,4,R11,1,A11,10,D11,0
 H,4,R12,1,A12,10,D12,0
 H,6,R13,2,A13,1,D13,0
 H,6,R14,2,A14,13,D14,0
 H,6,R15,2,A15,13,D15,0
 H,10,R16,4,A16,1,D16,0
 H,10,R17,4,A17,16,D17,0
 C,11,R18,4,A18,1,D18,0
 H,11,R19,4,A19,18,D19,0
 H,18,R20,11,A20,4,D20,0
 H,18,R21,11,A21,20,D21,0
      Variables:
 R2=1.32798259
 R3=1.51402722
 R4=1.52333163
 R5=1.08525392
 R6=1.49805938
 R7=1.4322926
 R8=1.09368842
 R9=1.09765766
 R10=1.52937147
 R11=1.49771667
 R12=1.10006813
 R13=1.09056588
 R14=1.09394237
 R15=1.09368016
 R16=1.09031437
 R17=1.09913596
 R18=1.32767771
 R19=1.08569824
 R20=1.08357594
 R21=1.08238485
 A3=126.46852743
 A4=127.56260793
 A5=118.64309456
 A6=125.97886502
 A7=106.55794287
 A8=113.08109058
 A9=111.44907491
 A10=100.75314995
 A11=116.31627588
 A12=107.05453348
 A13=112.69179991
 A14=110.70316945
 A15=110.89730557
 A16=113.81144398
 A17=110.56726172
 A18=126.61209378
 A19=115.04919067
 A20=122.62027789
 A21=120.91675203
 D4=-177.50272655
 D5=178.4915197
 D6=-181.43708774
 D7=188.88364819
 D8=-118.13937389
 D9=119.98729646
 D10=152.49808194
 D11=-128.19228763
 D12=111.70775637
 D13=5.73483123
 D14=-120.65002089
 D15=121.5191087
 D16=153.61833117
 D17=122.97353843
 D18=125.34172474
 D19=177.83834089
 D20=-0.92348254
 D21=179.41475447
 Recover connectivity data from disk.

 GradGradGradGradGradGradGradGradGradGradGradGradGradGradGradGradGradGrad
 Berny optimization.
 Initialization pass.
                       ----------------------------
                       !    Initial Parameters    !
                       ! (Angstroms and Degrees)  !
 ----------------------                            ----------------------
 !      Name          Value   Derivative information (Atomic Units)     !
 ------------------------------------------------------------------------
 !       R2          1.328    estimate D2E/DX2                          !
 !       R3          1.514    estimate D2E/DX2                          !
 !       R4          1.5233   estimate D2E/DX2                          !
 !       R5          1.0853   estimate D2E/DX2                          !
 !       R6          1.4981   estimate D2E/DX2                          !
 !       R7          1.4323   estimate D2E/DX2                          !
 !       R8          1.0937   estimate D2E/DX2                          !
 !       R9          1.0977   estimate D2E/DX2                          !
 !       R10         1.5294   estimate D2E/DX2                          !
 !       R11         1.4977   estimate D2E/DX2                          !
 !       R12         1.1001   estimate D2E/DX2                          !
 !       R13         1.0906   estimate D2E/DX2                          !
 !       R14         1.0939   estimate D2E/DX2                          !
 !       R15         1.0937   estimate D2E/DX2                          !
 !       R16         1.0903   estimate D2E/DX2                          !
 !       R17         1.0991   estimate D2E/DX2                          !
 !       R18         1.3277   estimate D2E/DX2                          !
 !       R19         1.0857   estimate D2E/DX2                          !
 !       R20         1.0836   estimate D2E/DX2                          !
 !       R21         1.0824   estimate D2E/DX2                          !
 !       A3        126.4685   estimate D2E/DX2                          !
 !       A4        127.5626   estimate D2E/DX2                          !
 !       A5        118.6431   estimate D2E/DX2                          !
 !       A6        125.9789   estimate D2E/DX2                          !
 !       A7        106.5579   estimate D2E/DX2                          !
 !       A8        113.0811   estimate D2E/DX2                          !
 !       A9        111.4491   estimate D2E/DX2                          !
 !       A10       100.7531   estimate D2E/DX2                          !
 !       A11       116.3163   estimate D2E/DX2                          !
 !       A12       107.0545   estimate D2E/DX2                          !
 !       A13       112.6918   estimate D2E/DX2                          !
 !       A14       110.7032   estimate D2E/DX2                          !
 !       A15       110.8973   estimate D2E/DX2                          !
 !       A16       113.8114   estimate D2E/DX2                          !
 !       A17       110.5673   estimate D2E/DX2                          !
 !       A18       126.6121   estimate D2E/DX2                          !
 !       A19       115.0492   estimate D2E/DX2                          !
 !       A20       122.6203   estimate D2E/DX2                          !
 !       A21       120.9168   estimate D2E/DX2                          !
 !       D4       -177.5027   estimate D2E/DX2                          !
 !       D5        178.4915   estimate D2E/DX2                          !
 !       D6       -181.4371   estimate D2E/DX2                          !
 !       D7        188.8836   estimate D2E/DX2                          !
 !       D8       -118.1394   estimate D2E/DX2                          !
 !       D9        119.9873   estimate D2E/DX2                          !
 !       D10       152.4981   estimate D2E/DX2                          !
 !       D11      -128.1923   estimate D2E/DX2                          !
 !       D12       111.7078   estimate D2E/DX2                          !
 !       D13         5.7348   estimate D2E/DX2                          !
 !       D14      -120.65     estimate D2E/DX2                          !
 !       D15       121.5191   estimate D2E/DX2                          !
 !       D16       153.6183   estimate D2E/DX2                          !
 !       D17       122.9735   estimate D2E/DX2                          !
 !       D18       125.3417   estimate D2E/DX2                          !
 !       D19       177.8383   estimate D2E/DX2                          !
 !       D20        -0.9235   estimate D2E/DX2                          !
 !       D21       179.4148   estimate D2E/DX2                          !
 ------------------------------------------------------------------------
 Trust Radius=1.00D-01 FncErr=1.00D-07 GrdErr=1.00D-06 EigMax=2.50D+02 EigMin=1.00D-04
 Number of steps in this run=     67 maximum allowed number of steps=    114.
 GradGradGradGradGradGradGradGradGradGradGradGradGradGradGradGradGradGrad

 ---------------------------------------------------------------------------------------------------
                            Z-MATRIX (ANGSTROMS AND DEGREES)
   CD    Cent   Atom    N1       Length/X        N2       Alpha/Y        N3        Beta/Z          J
 ---------------------------------------------------------------------------------------------------
      1      1  C 
      2      2  C        1   1.327983(     1)
      3      3  C        1   1.514027(     2)      2  126.469(    21)
      4      4  C        1   1.523332(     3)      2  127.563(    22)      3 -177.503(    40)      0
      5      5  H        2   1.085254(     4)      1  118.643(    23)      3  178.492(    41)      0
      6      6  C        2   1.498059(     5)      1  125.979(    24)      5 -181.437(    42)      0
      7      7  O        3   1.432293(     6)      1  106.558(    25)      2  188.884(    43)      0
      8      8  H        3   1.093688(     7)      1  113.081(    26)      7 -118.139(    44)      0
      9      9  H        3   1.097658(     8)      1  111.449(    27)      7  119.987(    45)      0
     10     10  C        4   1.529371(     9)      1  100.753(    28)      2  152.498(    46)      0
     11     11  C        4   1.497717(    10)      1  116.316(    29)     10 -128.192(    47)      0
     12     12  H        4   1.100068(    11)      1  107.055(    30)     10  111.708(    48)      0
     13     13  H        6   1.090566(    12)      2  112.692(    31)      1    5.735(    49)      0
     14     14  H        6   1.093942(    13)      2  110.703(    32)     13 -120.650(    50)      0
     15     15  H        6   1.093680(    14)      2  110.897(    33)     13  121.519(    51)      0
     16     16  H       10   1.090314(    15)      4  113.811(    34)      1  153.618(    52)      0
     17     17  H       10   1.099136(    16)      4  110.567(    35)     16  122.974(    53)      0
     18     18  C       11   1.327678(    17)      4  126.612(    36)      1  125.342(    54)      0
     19     19  H       11   1.085698(    18)      4  115.049(    37)     18  177.838(    55)      0
     20     20  H       18   1.083576(    19)     11  122.620(    38)      4   -0.923(    56)      0
     21     21  H       18   1.082385(    20)     11  120.917(    39)     20  179.415(    57)      0
 ---------------------------------------------------------------------------------------------------
                         Z-Matrix orientation:                         
 ---------------------------------------------------------------------
 Center     Atomic      Atomic             Coordinates (Angstroms)
 Number     Number       Type             X           Y           Z
 ---------------------------------------------------------------------
      1          6           0        0.000000    0.000000    0.000000
      2          6           0        0.000000    0.000000    1.327983
      3          6           0        1.217556    0.000000   -0.899909
      4          6           0       -1.206379    0.052614   -0.928666
      5          1           0       -0.952113    0.025073    1.848201
      6          6           0        1.210679   -0.062296    2.208073
      7          8           0        0.739573    0.212015   -2.233343
      8          1           0        1.759581   -0.949852   -0.887922
      9          1           0        1.921429    0.795407   -0.622885
     10          6           0       -0.590430    0.720239   -2.159056
     11          6           0       -2.453299    0.660101   -0.363593
     12          1           0       -1.442806   -0.984390   -1.209512
     13          1           0        2.143213   -0.009607    1.645101
     14          1           0        1.222609   -0.992202    2.784130
     15          1           0        1.204857    0.752344    2.937775
     16          1           0       -1.094303    0.471515   -3.093418
     17          1           0       -0.578654    1.812872   -2.040248
     18          6           0       -3.150885    1.663366   -0.882786
     19          1           0       -2.821135    0.193262    0.544977
     20          1           0       -2.859423    2.165584   -1.797644
     21          1           0       -4.057013    2.015538   -0.406905
 ---------------------------------------------------------------------
                    Distance matrix (angstroms):
                    1          2          3          4          5
     1  C    0.000000
     2  C    1.327983   0.000000
     3  C    1.514027   2.538886   0.000000
     4  C    1.523332   2.559410   2.424677   0.000000
     5  H    2.079182   1.085254   3.501457   2.788620   0.000000
     6  C    2.518970   1.498059   3.108614   3.961628   2.194267
     7  O    2.362147   3.643481   1.432293   2.348259   4.422188
     8  H    2.187864   2.984724   1.093688   3.131057   3.973680
     9  H    2.170840   2.851394   1.097658   3.229307   3.867419
    10  C    2.351356   3.609264   2.317974   1.529371   4.083158
    11  C    2.566439   3.052185   3.768095   1.497717   2.747517
    12  H    2.124531   3.080519   2.853490   1.100068   3.257209
    13  H    2.701816   2.166568   2.708138   4.224679   3.102176
    14  H    3.198534   2.144669   3.815316   4.558122   2.576864
    15  H    3.263161   2.146889   3.910754   4.610102   2.523611
    16  H    3.314975   4.579149   3.221567   2.207757   4.963782
    17  H    2.789974   3.868633   2.795219   2.174434   4.296014
    18  C    3.670718   4.193132   4.674436   2.525416   3.869999
    19  H    2.879783   2.934152   4.293724   2.190625   2.284715
    20  H    4.012178   4.757687   4.702917   2.819985   4.638081
    21  H    4.548331   4.850936   5.668026   3.500202   4.322945
                    6          7          8          9         10
     6  C    0.000000
     7  O    4.474746   0.000000
     8  H    3.267144   2.049514   0.000000
     9  H    3.042226   2.081034   1.772673   0.000000
    10  C    4.788336   1.425734   3.150799   2.945319   0.000000
    11  C    4.534319   3.727087   4.540399   4.384493   2.587969
    12  H    4.423927   2.691169   3.218680   3.850959   2.129305
    13  H    1.090566   4.130575   2.728999   2.416816   4.741001
    14  H    1.093942   5.182518   3.711347   3.910454   5.536664
    15  H    1.093680   5.220048   4.223878   3.632303   5.403866
    16  H    5.805489   2.042099   3.876745   3.911915   1.090314
    17  H    4.976564   2.082727   3.798400   3.048699   1.099136
    18  C    5.617344   4.366472   5.562518   5.152597   3.012354
    19  H    4.368835   4.516420   4.933849   4.921218   3.544791
    20  H    6.129840   4.118135   5.645239   5.110184   2.714400
    21  H    6.237313   5.440203   6.546578   6.105500   4.094512
                   11         12         13         14         15
    11  C    0.000000
    12  H    2.107374   0.000000
    13  H    5.060759   4.685996   0.000000
    14  H    5.113762   4.801425   1.763630   0.000000
    15  H    4.928452   5.217888   1.769770   1.751388   0.000000
    16  H    3.055222   2.406286   5.759041   6.485069   6.460672
    17  H    2.766649   3.043280   4.930699   5.864095   5.393175
    18  C    1.327678   3.167789   6.100535   6.294900   5.865077
    19  H    1.085698   2.522872   5.088829   4.771897   4.716637
    20  H    2.118470   3.503574   6.450605   6.901250   6.398422
    21  H    2.100234   4.059288   6.837744   6.863207   6.361589
                   16         17         18         19         20
    16  H    0.000000
    17  H    1.781657   0.000000
    18  C    3.246064   2.824613   0.000000
    19  H    4.036990   3.786191   2.075680   0.000000
    20  H    2.768492   2.320596   1.083576   3.062579   0.000000
    21  H    4.287075   3.848098   1.082385   2.398783   1.841437
                   21
    21  H    0.000000
 Symmetry turned off by external request.
 Stoichiometry    C8H12O
 Framework group  C1[X(C8H12O)]
 Deg. of freedom    57
 Full point group                 C1      NOp   1
 Rotational constants (GHZ):           2.1429927           1.3382812           0.8761339
 Standard basis: def2TZVP (5D, 7F)
 The following finite field(s) will be applied:
 An electric field of              0.0032  0.0047 -0.0049
   351 basis functions,   555 primitive gaussians,   396 cartesian basis functions
    34 alpha electrons       34 beta electrons
       nuclear repulsion energy       444.6185323860 Hartrees.
 NAtoms=   21 NActive=   21 NUniq=   21 SFac= 1.00D+00 NAtFMM=   60 NAOKFM=F Big=F
 Integral buffers will be    131072 words long.
 Raffenetti 2 integral format.
 Two-electron integral symmetry is turned off.
 One-electron integrals computed using PRISM.
   1 Symmetry operations used in ECPInt.
 ECPInt:  NShTT=   10878 NPrTT=   32112 LenC2=   10564 LenP2D=   24708.
 LDataN:  DoStor=T MaxTD1= 6 Len=  172
 NBasis=   351 RedAO= T EigKep=  7.39D-05  NBF=   351
 NBsUse=   351 1.00D-06 EigRej= -1.00D+00 NBFU=   351
 The nuclear repulsion energy is now       444.9250465943 hartrees.
 Initial guess from the checkpoint file:  "checkpoint.chk"
 B after Tr=     0.000000   -0.000000    0.000000
         Rot=    1.000000    0.000000   -0.000000   -0.000000 Ang=   0.00 deg.
 Requested convergence on RMS density matrix=1.00D-08 within 128 cycles.
 Requested convergence on MAX density matrix=1.00D-06.
 Requested convergence on             energy=1.00D-06.
 No special actions if energy rises.
 SCF Done:  E(RB3LYP) =  -387.397345197     A.U. after   10 cycles
            NFock= 10  Conv=0.49D-08     -V/T= 2.0053
   1 Symmetry operations used in ECPInt.
 ECPInt:  NShTT=   10878 NPrTT=   32112 LenC2=   10564 LenP2D=   24708.
 LDataN:  DoStor=T MaxTD1= 7 Len=  274
 Calling FoFJK, ICntrl=      2127 FMM=F ISym2X=0 I1Cent= 0 IOpClX= 0 NMat=1 NMatS=1 NMatT=0.
 -------------------------------------------------------------------
 Center     Atomic                   Forces (Hartrees/Bohr)
 Number     Number              X              Y              Z
 -------------------------------------------------------------------
      1        6           0.000264008    0.000798774    0.000063917
      2        6          -0.000143540   -0.000353316    0.000162069
      3        6          -0.000052084   -0.000526828    0.000819205
      4        6          -0.000071657   -0.000187884   -0.000176852
      5        1           0.000157202   -0.000197236    0.000012384
      6        6          -0.000122387   -0.000096986   -0.000014975
      7        8           0.000451581    0.000670381   -0.001107519
      8        1          -0.000035075    0.000010771   -0.000046247
      9        1           0.000179935    0.000202646    0.000043871
     10        6          -0.000331357   -0.000597868    0.000414438
     11        6           0.000099327   -0.000044616    0.000212318
     12        1          -0.000133689    0.000097279    0.000006603
     13        1           0.000169106   -0.000089932   -0.000162099
     14        1          -0.000136650    0.000180073   -0.000046332
     15        1          -0.000183402   -0.000152230    0.000096795
     16        1          -0.000118869   -0.000110922   -0.000131922
     17        1          -0.000001673    0.000355156    0.000094806
     18        6          -0.000067409    0.000167137    0.000269724
     19        1          -0.000004143   -0.000008378   -0.000199090
     20        1           0.000103974    0.000021393   -0.000301488
     21        1          -0.000023198   -0.000137414   -0.000009606
 -------------------------------------------------------------------
 Cartesian Forces:  Max     0.001107519 RMS     0.000290185
 -----------------------------------------------------------------------------------------------
                       Internal Coordinate Forces (Hartree/Bohr or radian)
  Cent   Atom   N1       Length/X         N2         Alpha/Y        N3         Beta/Z          J
 -----------------------------------------------------------------------------------------------
      1  C 
      2  C        1   0.000048(     1)
      3  C        1   0.000611(     2)      2  -0.002313(    21)
      4  C        1   0.000310(     3)      2  -0.001874(    22)      3  -0.000939(    40)     0
      5  H        2  -0.000137(     4)      1   0.000182(    23)      3  -0.000176(    41)     0
      6  C        2  -0.000289(     5)      1   0.000437(    24)      5  -0.000523(    42)     0
      7  O        3   0.000980(     6)      1   0.002096(    25)      2   0.001535(    43)     0
      8  H        3  -0.000027(     7)      1   0.000022(    26)      7   0.000097(    44)     0
      9  H        3   0.000273(     8)      1   0.000042(    27)      7  -0.000032(    45)     0
     10  C        4  -0.000640(     9)      1   0.000792(    28)      2   0.000358(    46)     0
     11  C        4  -0.000102(    10)      1   0.000178(    29)     10   0.000022(    47)     0
     12  H        4  -0.000065(    11)      1   0.000270(    30)     10   0.000158(    48)     0
     13  H        6   0.000224(    12)      2  -0.000092(    31)      1   0.000044(    49)     0
     14  H        6  -0.000179(    13)      2  -0.000181(    32)     13  -0.000225(    50)     0
     15  H        6  -0.000048(    14)      2  -0.000150(    33)     13   0.000467(    51)     0
     16  H       10   0.000193(    15)      4  -0.000154(    34)      1  -0.000021(    52)     0
     17  H       10   0.000363(    16)      4  -0.000110(    35)     16   0.000037(    53)     0
     18  C       11   0.000048(    17)      4  -0.000129(    36)      1  -0.000104(    54)     0
     19  H       11  -0.000162(    18)      4  -0.000015(    37)     18  -0.000216(    55)     0
     20  H       18   0.000292(    19)     11  -0.000190(    38)      4  -0.000033(    56)     0
     21  H       18  -0.000030(    20)     11  -0.000173(    39)     20  -0.000188(    57)     0
 -----------------------------------------------------------------------------------------------
 Internal  Forces:  Max     0.002312752 RMS     0.000605068

 GradGradGradGradGradGradGradGradGradGradGradGradGradGradGradGradGradGrad
 Berny optimization.
 Search for a local minimum.
 Step number   1 out of a maximum of   67
 All quantities printed in internal units (Hartrees-Bohrs-Radians)
 Second derivative matrix not updated -- first step.
 ITU=  0
     Eigenvalues ---    0.01204   0.02980   0.03531   0.03927   0.05380
     Eigenvalues ---    0.06744   0.08082   0.09215   0.10571   0.11942
     Eigenvalues ---    0.13893   0.14445   0.15565   0.16303   0.17388
     Eigenvalues ---    0.19568   0.20423   0.20932   0.21770   0.22552
     Eigenvalues ---    0.23807   0.24332   0.24608   0.27333   0.28744
     Eigenvalues ---    0.29995   0.31936   0.32582   0.32617   0.33067
     Eigenvalues ---    0.33675   0.33779   0.33943   0.34361   0.34389
     Eigenvalues ---    0.34391   0.34685   0.34747   0.34781   0.35315
     Eigenvalues ---    0.35328   0.35367   0.35566   0.35709   0.38427
     Eigenvalues ---    0.39824   0.41752   0.43319   0.47533   0.52984
     Eigenvalues ---    0.54064   0.54461   0.59985   0.60058   1.34104
     Eigenvalues ---    1.58822  20.48187
 RFO step:  Lambda=-3.11485694D-05 EMin= 1.20382562D-02
 Linear search not attempted -- first point.
 Variable       Old X    -DE/DX   Delta X   Delta X   Delta X     New X
                                 (Linear)    (Quad)   (Total)
    R2        2.50952   0.00005   0.00000   0.00008   0.00008   2.50960
    R3        2.86110   0.00061   0.00000   0.00009   0.00009   2.86118
    R4        2.87868   0.00031   0.00000  -0.00008  -0.00008   2.87860
    R5        2.05083  -0.00014   0.00000  -0.00039  -0.00039   2.05045
    R6        2.83092  -0.00029   0.00000  -0.00088  -0.00088   2.83004
    R7        2.70664   0.00098   0.00000   0.00242   0.00242   2.70906
    R8        2.06677  -0.00003   0.00000  -0.00008  -0.00008   2.06669
    R9        2.07427   0.00027   0.00000   0.00084   0.00084   2.07511
   R10        2.89009  -0.00064   0.00000  -0.00053  -0.00053   2.88956
   R11        2.83027  -0.00010   0.00000  -0.00033  -0.00033   2.82995
   R12        2.07883  -0.00006   0.00000  -0.00022  -0.00022   2.07861
   R13        2.06087   0.00022   0.00000   0.00065   0.00065   2.06152
   R14        2.06725  -0.00018   0.00000  -0.00051  -0.00051   2.06674
   R15        2.06676  -0.00005   0.00000  -0.00013  -0.00013   2.06662
   R16        2.06040   0.00019   0.00000   0.00054   0.00054   2.06093
   R17        2.07707   0.00036   0.00000   0.00111   0.00111   2.07817
   R18        2.50895   0.00005   0.00000   0.00008   0.00008   2.50902
   R19        2.05167  -0.00016   0.00000  -0.00045  -0.00045   2.05122
   R20        2.04766   0.00029   0.00000   0.00082   0.00082   2.04848
   R21        2.04541  -0.00003   0.00000  -0.00007  -0.00007   2.04534
    A3        2.20729  -0.00231   0.00000  -0.00058  -0.00058   2.20671
    A4        2.22639  -0.00187   0.00000   0.00106   0.00106   2.22745
    A5        2.07071   0.00018   0.00000   0.00007   0.00007   2.07078
    A6        2.19875   0.00044   0.00000   0.00091   0.00091   2.19965
    A7        1.85979   0.00210   0.00000   0.00073   0.00073   1.86051
    A8        1.97364   0.00002   0.00000   0.00135   0.00135   1.97499
    A9        1.94515   0.00004   0.00000  -0.00149  -0.00149   1.94367
   A10        1.75847   0.00079   0.00000  -0.00143  -0.00143   1.75704
   A11        2.03010   0.00018   0.00000   0.00001   0.00001   2.03011
   A12        1.86845   0.00027   0.00000   0.00191   0.00191   1.87036
   A13        1.96684  -0.00009   0.00000   0.00067   0.00067   1.96752
   A14        1.93213  -0.00018   0.00000  -0.00108  -0.00108   1.93105
   A15        1.93552  -0.00015   0.00000  -0.00059  -0.00059   1.93493
   A16        1.98638  -0.00015   0.00000   0.00038   0.00038   1.98676
   A17        1.92976  -0.00011   0.00000  -0.00241  -0.00241   1.92736
   A18        2.20980  -0.00013   0.00000  -0.00039  -0.00039   2.20941
   A19        2.00799  -0.00002   0.00000   0.00032   0.00032   2.00831
   A20        2.14013  -0.00019   0.00000  -0.00026  -0.00026   2.13986
   A21        2.11040  -0.00017   0.00000  -0.00039  -0.00039   2.11001
    D4       -3.09801  -0.00094   0.00000   0.00223   0.00223  -3.09577
    D5        3.11526  -0.00018   0.00000   0.00059   0.00059   3.11586
    D6       -3.16667  -0.00052   0.00000  -0.00576  -0.00576  -3.17244
    D7        3.29664   0.00153   0.00000   0.01746   0.01746   3.31410
    D8       -2.06192   0.00010   0.00000  -0.00202  -0.00202  -2.06394
    D9        2.09417  -0.00003   0.00000  -0.00176  -0.00176   2.09241
   D10        2.66159   0.00036   0.00000  -0.01210  -0.01210   2.64949
   D11       -2.23738   0.00002   0.00000   0.00253   0.00253  -2.23485
   D12        1.94967   0.00016   0.00000   0.00168   0.00168   1.95135
   D13        0.10009   0.00004   0.00000   0.00267   0.00267   0.10277
   D14       -2.10574  -0.00023   0.00000  -0.00017  -0.00017  -2.10591
   D15        2.12091   0.00047   0.00000   0.00251   0.00251   2.12342
   D16        2.68115  -0.00002   0.00000   0.00393   0.00393   2.68508
   D17        2.14629   0.00004   0.00000  -0.00134  -0.00134   2.14496
   D18        2.18763  -0.00010   0.00000  -0.00238  -0.00238   2.18525
   D19        3.10386  -0.00022   0.00000  -0.00108  -0.00108   3.10279
   D20       -0.01612  -0.00003   0.00000  -0.00028  -0.00028  -0.01639
   D21        3.13138  -0.00019   0.00000  -0.00194  -0.00194   3.12944
         Item               Value     Threshold  Converged?
 Maximum Force            0.002313     0.000450     NO 
 RMS     Force            0.000605     0.000300     NO 
 Maximum Displacement     0.017459     0.001800     NO 
 RMS     Displacement     0.003189     0.001200     NO 
 Predicted change in Energy=-1.558332D-05
 GradGradGradGradGradGradGradGradGradGradGradGradGradGradGradGradGradGrad

 ---------------------------------------------------------------------------------------------------
                            Z-MATRIX (ANGSTROMS AND DEGREES)
   CD    Cent   Atom    N1       Length/X        N2       Alpha/Y        N3        Beta/Z          J
 ---------------------------------------------------------------------------------------------------
      1      1  C 
      2      2  C        1   1.328025(     1)
      3      3  C        1   1.514073(     2)      2  126.435(    21)
      4      4  C        1   1.523290(     3)      2  127.623(    22)      3 -177.375(    40)      0
      5      5  H        2   1.085050(     4)      1  118.647(    23)      3  178.525(    41)      0
      6      6  C        2   1.497591(     5)      1  126.031(    24)      5 -181.767(    42)      0
      7      7  O        3   1.433572(     6)      1  106.600(    25)      2  189.884(    43)      0
      8      8  H        3   1.093645(     7)      1  113.158(    26)      7 -118.255(    44)      0
      9      9  H        3   1.098103(     8)      1  111.364(    27)      7  119.887(    45)      0
     10     10  C        4   1.529089(     9)      1  100.671(    28)      2  151.805(    46)      0
     11     11  C        4   1.497544(    10)      1  116.317(    29)     10 -128.048(    47)      0
     12     12  H        4   1.099954(    11)      1  107.164(    30)     10  111.804(    48)      0
     13     13  H        6   1.090909(    12)      2  112.730(    31)      1    5.888(    49)      0
     14     14  H        6   1.093671(    13)      2  110.641(    32)     13 -120.660(    50)      0
     15     15  H        6   1.093611(    14)      2  110.864(    33)     13  121.663(    51)      0
     16     16  H       10   1.090599(    15)      4  113.833(    34)      1  153.844(    52)      0
     17     17  H       10   1.099722(    16)      4  110.429(    35)     16  122.897(    53)      0
     18     18  C       11   1.327719(    17)      4  126.590(    36)      1  125.206(    54)      0
     19     19  H       11   1.085458(    18)      4  115.068(    37)     18  177.777(    55)      0
     20     20  H       18   1.084010(    19)     11  122.605(    38)      4   -0.939(    56)      0
     21     21  H       18   1.082349(    20)     11  120.894(    39)     20  179.303(    57)      0
 ---------------------------------------------------------------------------------------------------
                         Z-Matrix orientation:                         
 ---------------------------------------------------------------------
 Center     Atomic      Atomic             Coordinates (Angstroms)
 Number     Number       Type             X           Y           Z
 ---------------------------------------------------------------------
      1          6           0        0.000000    0.000000    0.000000
      2          6           0        0.000000    0.000000    1.328025
      3          6           0        1.218118    0.000000   -0.899225
      4          6           0       -1.205241    0.055262   -0.929921
      5          1           0       -0.951915    0.024503    1.848208
      6          6           0        1.209163   -0.068489    2.208941
      7          8           0        0.743790    0.235823   -2.231339
      8          1           0        1.752367   -0.954273   -0.899703
      9          1           0        1.928491    0.786019   -0.610481
     10          6           0       -0.589122    0.737730   -2.151702
     11          6           0       -2.454990    0.653903   -0.362124
     12          1           0       -1.438561   -0.979571   -1.220746
     13          1           0        2.143133   -0.018007    1.647483
     14          1           0        1.216050   -0.999660    2.782517
     15          1           0        1.203680    0.743295    2.941717
     16          1           0       -1.091534    0.499183   -3.089829
     17          1           0       -0.581445    1.829327   -2.018492
     18          6           0       -3.153771    1.660240   -0.873815
     19          1           0       -2.824455    0.177117    0.540311
     20          1           0       -2.860715    2.171871   -1.783448
     21          1           0       -4.063039    2.004069   -0.397903
 ---------------------------------------------------------------------
                    Distance matrix (angstroms):
                    1          2          3          4          5
     1  C    0.000000
     2  C    1.328025   0.000000
     3  C    1.514073   2.538592   0.000000
     4  C    1.523290   2.560074   2.424183   0.000000
     5  H    2.079090   1.085050   3.501147   2.789825   0.000000
     6  C    2.519164   1.497591   3.108933   3.961958   2.192951
     7  O    2.363834   3.643886   1.433572   2.350534   4.422983
     8  H    2.188810   2.990685   1.093645   3.125303   3.977708
     9  H    2.170159   2.845120   1.098103   3.233623   3.862874
    10  C    2.349709   3.605525   2.319280   1.529089   4.079166
    11  C    2.566261   3.051420   3.769322   1.497544   2.746078
    12  H    2.125850   3.086300   2.849715   1.099954   3.265497
    13  H    2.703246   2.166886   2.709556   4.226107   3.101841
    14  H    3.196951   2.143279   3.815042   4.556062   2.573308
    15  H    3.264204   2.146004   3.912228   4.611493   2.521708
    16  H    3.314766   4.577998   3.222177   2.207986   4.962764
    17  H    2.785467   3.857938   2.799575   2.172881   4.283224
    18  C    3.669635   4.189364   4.676586   2.525049   3.864352
    19  H    2.881120   2.937586   4.294884   2.190499   2.289169
    20  H    4.010162   4.752049   4.704864   2.819421   4.630727
    21  H    4.547846   4.848031   5.670823   3.499700   4.317729
                    6          7          8          9         10
     6  C    0.000000
     7  O    4.474960   0.000000
     8  H    3.277704   2.051052   0.000000
     9  H    3.032615   2.081686   1.772931   0.000000
    10  C    4.785292   1.426501   3.148483   2.952299   0.000000
    11  C    4.534120   3.728397   4.536196   4.392498   2.586712
    12  H    4.427557   2.694649   3.207137   3.850554   2.130105
    13  H    1.090909   4.131326   2.741796   2.406435   4.740270
    14  H    1.093671   5.185383   3.721348   3.899828   5.533867
    15  H    1.093611   5.218193   4.235480   3.625642   5.399730
    16  H    5.804518   2.043227   3.872591   3.917907   1.090599
    17  H    4.967813   2.083460   3.800894   3.061170   1.099722
    18  C    5.614898   4.366098   5.559365   5.163622   3.010223
    19  H    4.372039   4.518613   4.929603   4.928040   3.543718
    20  H    6.125544   4.115986   5.642190   5.121809   2.711550
    21  H    6.235964   5.440017   6.543893   6.117782   4.092374
                   11         12         13         14         15
    11  C    0.000000
    12  H    2.106799   0.000000
    13  H    5.062876   4.688269   0.000000
    14  H    5.108773   4.803485   1.763924   0.000000
    15  H    4.930438   5.222624   1.771212   1.750254   0.000000
    16  H    3.053413   2.408447   5.759573   6.485054   6.458107
    17  H    2.763212   3.043181   4.927001   5.855240   5.382361
    18  C    1.327719   3.167162   6.101692   6.288018   5.863996
    19  H    1.085458   2.521895   5.093214   4.768435   4.723683
    20  H    2.118726   3.502962   6.450220   6.893957   6.394319
    21  H    2.100012   4.057963   6.840245   6.856109   6.362463
                   16         17         18         19         20
    16  H    0.000000
    17  H    1.782480   0.000000
    18  C    3.242159   2.820591   0.000000
    19  H    4.035426   3.782639   2.075538   0.000000
    20  H    2.763063   2.316819   1.084010   3.062713   0.000000
    21  H    4.282638   3.844260   1.082349   2.398351   1.842139
                   21
    21  H    0.000000
 Symmetry turned off by external request.
 Stoichiometry    C8H12O
 Framework group  C1[X(C8H12O)]
 Deg. of freedom    57
 Full point group                 C1      NOp   1
 Rotational constants (GHZ):           2.1421216           1.3388702           0.8763998
 Standard basis: def2TZVP (5D, 7F)
 The following finite field(s) will be applied:
 An electric field of              0.0032  0.0047 -0.0049
   351 basis functions,   555 primitive gaussians,   396 cartesian basis functions
    34 alpha electrons       34 beta electrons
       nuclear repulsion energy       444.6038969622 Hartrees.
 NAtoms=   21 NActive=   21 NUniq=   21 SFac= 1.00D+00 NAtFMM=   60 NAOKFM=F Big=F
 Integral buffers will be    131072 words long.
 Raffenetti 2 integral format.
 Two-electron integral symmetry is turned off.
 One-electron integrals computed using PRISM.
   1 Symmetry operations used in ECPInt.
 ECPInt:  NShTT=   10878 NPrTT=   32112 LenC2=   10564 LenP2D=   24710.
 LDataN:  DoStor=T MaxTD1= 6 Len=  172
 NBasis=   351 RedAO= T EigKep=  7.43D-05  NBF=   351
 NBsUse=   351 1.00D-06 EigRej= -1.00D+00 NBFU=   351
 The nuclear repulsion energy is now       444.9107664162 hartrees.
 Initial guess from the checkpoint file:  "checkpoint.chk"
 B after Tr=     0.001052    0.002862    0.000890
         Rot=    0.999994   -0.003177    0.000502   -0.001292 Ang=  -0.40 deg.
 Requested convergence on RMS density matrix=1.00D-08 within 128 cycles.
 Requested convergence on MAX density matrix=1.00D-06.
 Requested convergence on             energy=1.00D-06.
 No special actions if energy rises.
 SCF Done:  E(RB3LYP) =  -387.397368470     A.U. after    9 cycles
            NFock=  9  Conv=0.37D-08     -V/T= 2.0053
   1 Symmetry operations used in ECPInt.
 ECPInt:  NShTT=   10878 NPrTT=   32112 LenC2=   10564 LenP2D=   24710.
 LDataN:  DoStor=T MaxTD1= 7 Len=  274
 Calling FoFJK, ICntrl=      2127 FMM=F ISym2X=0 I1Cent= 0 IOpClX= 0 NMat=1 NMatS=1 NMatT=0.
 -------------------------------------------------------------------
 Center     Atomic                   Forces (Hartrees/Bohr)
 Number     Number              X              Y              Z
 -------------------------------------------------------------------
      1        6           0.000429021    0.000451152   -0.000204574
      2        6          -0.000328605   -0.000739109   -0.000022830
      3        6           0.000149179    0.000287406    0.000697017
      4        6           0.000178190    0.000088509   -0.000027042
      5        1          -0.000026586   -0.000078521    0.000008122
      6        6           0.000069680    0.000096927   -0.000037422
      7        8          -0.000016008    0.000472670   -0.000353524
      8        1          -0.000119348   -0.000102697   -0.000047498
      9        1           0.000017922   -0.000134629   -0.000132074
     10        6          -0.000202935   -0.000117090    0.000131761
     11        6          -0.000002512    0.000071543    0.000034492
     12        1           0.000012732   -0.000014820    0.000029712
     13        1          -0.000028102   -0.000033501    0.000030921
     14        1          -0.000062267   -0.000028036   -0.000018729
     15        1          -0.000025567   -0.000046149    0.000056854
     16        1          -0.000007606   -0.000094712   -0.000012553
     17        1           0.000038362   -0.000020441   -0.000100048
     18        6          -0.000029203    0.000132418    0.000037658
     19        1          -0.000032560   -0.000081579   -0.000049349
     20        1          -0.000012169   -0.000072178   -0.000016452
     21        1          -0.000001619   -0.000037163   -0.000004441
 -------------------------------------------------------------------
 Cartesian Forces:  Max     0.000739109 RMS     0.000191121
 -----------------------------------------------------------------------------------------------
                       Internal Coordinate Forces (Hartree/Bohr or radian)
  Cent   Atom   N1       Length/X         N2         Alpha/Y        N3         Beta/Z          J
 -----------------------------------------------------------------------------------------------
      1  C 
      2  C        1   0.000017(     1)
      3  C        1  -0.000072(     2)      2  -0.000473(    21)
      4  C        1   0.000027(     3)      2  -0.000418(    22)      3  -0.000501(    40)     0
      5  H        2   0.000025(     4)      1  -0.000010(    23)      3  -0.000015(    41)     0
      6  C        2  -0.000018(     5)      1   0.000265(    24)      5  -0.000157(    42)     0
      7  O        3   0.000412(     6)      1   0.000225(    25)      2   0.001361(    43)     0
      8  H        3   0.000031(     7)      1  -0.000180(    26)      7   0.000258(    44)     0
      9  H        3  -0.000120(     8)      1   0.000304(    27)      7   0.000024(    45)     0
     10  C        4  -0.000188(     9)      1   0.000548(    28)      2   0.000564(    46)     0
     11  C        4   0.000071(    10)      1   0.000098(    29)     10  -0.000201(    47)     0
     12  H        4   0.000003(    11)      1  -0.000065(    30)     10   0.000033(    48)     0
     13  H        6  -0.000042(    12)      2   0.000029(    31)      1   0.000078(    49)     0
     14  H        6   0.000014(    13)      2  -0.000143(    32)     13  -0.000010(    50)     0
     15  H        6   0.000004(    14)      2   0.000030(    33)     13   0.000147(    51)     0
     16  H       10   0.000035(    15)      4  -0.000111(    34)      1  -0.000146(    52)     0
     17  H       10  -0.000032(    16)      4   0.000216(    35)     16  -0.000013(    53)     0
     18  C       11   0.000034(    17)      4   0.000071(    36)      1  -0.000065(    54)     0
     19  H       11   0.000006(    18)      4  -0.000060(    37)     18  -0.000179(    55)     0
     20  H       18  -0.000024(    19)     11  -0.000071(    38)      4   0.000059(    56)     0
     21  H       18  -0.000012(    20)     11  -0.000046(    39)     20  -0.000048(    57)     0
 -----------------------------------------------------------------------------------------------
 Internal  Forces:  Max     0.001360578 RMS     0.000262866

 GradGradGradGradGradGradGradGradGradGradGradGradGradGradGradGradGradGrad
 Berny optimization.
 Search for a local minimum.
 Step number   2 out of a maximum of   67
 All quantities printed in internal units (Hartrees-Bohrs-Radians)
 Update second derivatives using D2CorN and points    1    2
 DE= -2.33D-05 DEPred=-1.56D-05 R= 1.49D+00
 TightC=F SS=  1.41D+00  RLast= 2.41D-02 DXNew= 1.6818D-01 7.2232D-02
 Trust test= 1.49D+00 RLast= 2.41D-02 DXMaxT set to 1.00D-01
 ITU=  1  0
     Eigenvalues ---    0.00326   0.02982   0.03482   0.03922   0.05310
     Eigenvalues ---    0.06555   0.08091   0.09148   0.10586   0.11943
     Eigenvalues ---    0.13808   0.14475   0.15565   0.16242   0.16988
     Eigenvalues ---    0.19535   0.20431   0.20932   0.21766   0.22576
     Eigenvalues ---    0.23831   0.24051   0.24588   0.27241   0.28649
     Eigenvalues ---    0.29994   0.31949   0.32579   0.32622   0.33013
     Eigenvalues ---    0.33675   0.33785   0.33963   0.34362   0.34389
     Eigenvalues ---    0.34391   0.34679   0.34752   0.34780   0.35314
     Eigenvalues ---    0.35321   0.35369   0.35570   0.35709   0.38421
     Eigenvalues ---    0.39813   0.41664   0.43308   0.47519   0.52969
     Eigenvalues ---    0.54034   0.54436   0.59984   0.60057   1.33994
     Eigenvalues ---    1.58751  20.48171
 RFO step:  Lambda=-2.88196617D-05 EMin= 3.26064911D-03
 Quartic linear search produced a step of  0.91021.
 Variable       Old X    -DE/DX   Delta X   Delta X   Delta X     New X
                                 (Linear)    (Quad)   (Total)
    R2        2.50960   0.00002   0.00007   0.00001   0.00009   2.50969
    R3        2.86118  -0.00007   0.00008  -0.00161  -0.00153   2.85965
    R4        2.87860   0.00003  -0.00007  -0.00148  -0.00155   2.87705
    R5        2.05045   0.00003  -0.00035   0.00053   0.00018   2.05062
    R6        2.83004  -0.00002  -0.00081   0.00058  -0.00023   2.82981
    R7        2.70906   0.00041   0.00220   0.00184   0.00404   2.71310
    R8        2.06669   0.00003  -0.00008   0.00033   0.00026   2.06695
    R9        2.07511  -0.00012   0.00077  -0.00162  -0.00085   2.07426
   R10        2.88956  -0.00019  -0.00049  -0.00056  -0.00104   2.88852
   R11        2.82995   0.00007  -0.00030   0.00085   0.00055   2.83050
   R12        2.07861   0.00000  -0.00020   0.00013  -0.00007   2.07854
   R13        2.06152  -0.00004   0.00059  -0.00088  -0.00029   2.06123
   R14        2.06674   0.00001  -0.00047   0.00056   0.00009   2.06683
   R15        2.06662   0.00000  -0.00012   0.00016   0.00004   2.06667
   R16        2.06093   0.00004   0.00049  -0.00022   0.00027   2.06120
   R17        2.07817  -0.00003   0.00101  -0.00113  -0.00012   2.07805
   R18        2.50902   0.00003   0.00007   0.00009   0.00016   2.50918
   R19        2.05122   0.00001  -0.00041   0.00044   0.00003   2.05124
   R20        2.04848  -0.00002   0.00075  -0.00089  -0.00014   2.04835
   R21        2.04534  -0.00001  -0.00006   0.00001  -0.00005   2.04530
    A3        2.20671  -0.00047  -0.00053   0.00096   0.00042   2.20713
    A4        2.22745  -0.00042   0.00097  -0.00015   0.00082   2.22827
    A5        2.07078  -0.00001   0.00006  -0.00125  -0.00119   2.06959
    A6        2.19965   0.00026   0.00083   0.00134   0.00216   2.20182
    A7        1.86051   0.00022   0.00066  -0.00130  -0.00064   1.85987
    A8        1.97499  -0.00018   0.00123  -0.00146  -0.00023   1.97476
    A9        1.94367   0.00030  -0.00135   0.00336   0.00201   1.94568
   A10        1.75704   0.00055  -0.00131  -0.00129  -0.00260   1.75444
   A11        2.03011   0.00010   0.00001   0.00060   0.00061   2.03071
   A12        1.87036  -0.00006   0.00174  -0.00141   0.00032   1.87069
   A13        1.96752   0.00003   0.00061   0.00080   0.00142   1.96893
   A14        1.93105  -0.00014  -0.00098  -0.00126  -0.00224   1.92881
   A15        1.93493   0.00003  -0.00054   0.00104   0.00050   1.93544
   A16        1.98676  -0.00011   0.00034   0.00087   0.00122   1.98798
   A17        1.92736   0.00022  -0.00219   0.00113  -0.00106   1.92629
   A18        2.20941   0.00007  -0.00035   0.00120   0.00084   2.21025
   A19        2.00831  -0.00006   0.00029  -0.00044  -0.00015   2.00816
   A20        2.13986  -0.00007  -0.00024   0.00048   0.00024   2.14010
   A21        2.11001  -0.00005  -0.00036  -0.00010  -0.00045   2.10955
    D4       -3.09577  -0.00050   0.00203   0.01510   0.01713  -3.07864
    D5        3.11586  -0.00001   0.00054  -0.00376  -0.00322   3.11263
    D6       -3.17244  -0.00016  -0.00525  -0.00389  -0.00914  -3.18158
    D7        3.31410   0.00136   0.01589   0.03885   0.05474   3.36884
    D8       -2.06394   0.00026  -0.00184   0.00270   0.00086  -2.06309
    D9        2.09241   0.00002  -0.00160   0.00055  -0.00106   2.09136
   D10        2.64949   0.00056  -0.01102  -0.03256  -0.04358   2.60591
   D11       -2.23485  -0.00020   0.00230   0.00001   0.00231  -2.23255
   D12        1.95135   0.00003   0.00153   0.00104   0.00257   1.95391
   D13        0.10277   0.00008   0.00243   0.00550   0.00793   0.11070
   D14       -2.10591  -0.00001  -0.00015   0.00094   0.00079  -2.10512
   D15        2.12342   0.00015   0.00229   0.00102   0.00331   2.12673
   D16        2.68508  -0.00015   0.00358   0.00556   0.00914   2.69422
   D17        2.14496  -0.00001  -0.00122   0.00133   0.00011   2.14507
   D18        2.18525  -0.00007  -0.00216  -0.00159  -0.00375   2.18150
   D19        3.10279  -0.00018  -0.00098   0.00061  -0.00038   3.10241
   D20       -0.01639   0.00006  -0.00025   0.00087   0.00062  -0.01577
   D21        3.12944  -0.00005  -0.00177  -0.00024  -0.00201   3.12743
         Item               Value     Threshold  Converged?
 Maximum Force            0.001361     0.000450     NO 
 RMS     Force            0.000263     0.000300     YES
 Maximum Displacement     0.054741     0.001800     NO 
 RMS     Displacement     0.009846     0.001200     NO 
 Predicted change in Energy=-2.327489D-05
 GradGradGradGradGradGradGradGradGradGradGradGradGradGradGradGradGradGrad

 ---------------------------------------------------------------------------------------------------
                            Z-MATRIX (ANGSTROMS AND DEGREES)
   CD    Cent   Atom    N1       Length/X        N2       Alpha/Y        N3        Beta/Z          J
 ---------------------------------------------------------------------------------------------------
      1      1  C 
      2      2  C        1   1.328070(     1)
      3      3  C        1   1.513264(     2)      2  126.459(    21)
      4      4  C        1   1.522467(     3)      2  127.670(    22)      3 -176.393(    40)      0
      5      5  H        2   1.085144(     4)      1  118.579(    23)      3  178.341(    41)      0
      6      6  C        2   1.497471(     5)      1  126.155(    24)      5 -182.291(    42)      0
      7      7  O        3   1.435710(     6)      1  106.563(    25)      2  193.020(    43)      0
      8      8  H        3   1.093781(     7)      1  113.145(    26)      7 -118.206(    44)      0
      9      9  H        3   1.097650(     8)      1  111.479(    27)      7  119.826(    45)      0
     10     10  C        4   1.528537(     9)      1  100.522(    28)      2  149.308(    46)      0
     11     11  C        4   1.497837(    10)      1  116.351(    29)     10 -127.916(    47)      0
     12     12  H        4   1.099917(    11)      1  107.182(    30)     10  111.951(    48)      0
     13     13  H        6   1.090754(    12)      2  112.812(    31)      1    6.343(    49)      0
     14     14  H        6   1.093721(    13)      2  110.513(    32)     13 -120.614(    50)      0
     15     15  H        6   1.093633(    14)      2  110.892(    33)     13  121.853(    51)      0
     16     16  H       10   1.090740(    15)      4  113.903(    34)      1  154.367(    52)      0
     17     17  H       10   1.099658(    16)      4  110.368(    35)     16  122.904(    53)      0
     18     18  C       11   1.327801(    17)      4  126.638(    36)      1  124.990(    54)      0
     19     19  H       11   1.085471(    18)      4  115.059(    37)     18  177.755(    55)      0
     20     20  H       18   1.083938(    19)     11  122.619(    38)      4   -0.904(    56)      0
     21     21  H       18   1.082324(    20)     11  120.869(    39)     20  179.188(    57)      0
 ---------------------------------------------------------------------------------------------------
                         Z-Matrix orientation:                         
 ---------------------------------------------------------------------
 Center     Atomic      Atomic             Coordinates (Angstroms)
 Number     Number       Type             X           Y           Z
 ---------------------------------------------------------------------
      1          6           0        0.000000    0.000000    0.000000
      2          6           0        0.000000    0.000000    1.328070
      3          6           0        1.217086    0.000000   -0.899261
      4          6           0       -1.202707    0.075809   -0.930406
      5          1           0       -0.952532    0.027593    1.847163
      6          6           0        1.206222   -0.083296    2.211534
      7          8           0        0.749510    0.310042   -2.220817
      8          1           0        1.719426   -0.970623   -0.942858
      9          1           0        1.953109    0.748883   -0.579448
     10          6           0       -0.586766    0.805591   -2.123914
     11          6           0       -2.459338    0.645557   -0.347502
     12          1           0       -1.427333   -0.950715   -1.255382
     13          1           0        2.142661   -0.036622    1.654177
     14          1           0        1.202768   -1.019108    2.777635
     15          1           0        1.203844    0.721762    2.951743
     16          1           0       -1.087385    0.603714   -3.071723
     17          1           0       -0.580971    1.890979   -1.947433
     18          6           0       -3.163519    1.664678   -0.825602
     19          1           0       -2.829632    0.134170    0.535455
     20          1           0       -2.871178    2.210595   -1.715227
     21          1           0       -4.077754    1.983413   -0.341859
 ---------------------------------------------------------------------
                    Distance matrix (angstroms):
                    1          2          3          4          5
     1  C    0.000000
     2  C    1.328070   0.000000
     3  C    1.513264   2.538169   0.000000
     4  C    1.522467   2.559876   2.421180   0.000000
     5  H    2.078483   1.085144   3.500121   2.789230   0.000000
     6  C    2.520475   1.497471   3.111929   3.962328   2.192096
     7  O    2.364300   3.640396   1.435710   2.351844   4.418731
     8  H    2.188040   3.009261   1.093781   3.103874   3.989990
     9  H    2.170535   2.830916   1.097650   3.245824   3.853758
    10  C    2.346121   3.592975   2.324357   1.528537   4.063068
    11  C    2.566290   3.045099   3.773231   1.497837   2.732929
    12  H    2.125352   3.100865   2.832601   1.099917   3.287600
    13  H    2.707146   2.167645   2.716261   4.228971   3.101869
    14  H    3.193820   2.141605   3.815540   4.553539   2.570346
    15  H    3.268480   2.146274   3.918079   4.613005   2.520302
    16  H    3.313965   4.572205   3.224073   2.208444   4.954346
    17  H    2.775937   3.826519   2.812023   2.171576   4.243728
    18  C    3.668872   4.173405   4.686819   2.525920   3.835646
    19  H    2.882973   2.941608   4.295619   2.190672   2.292475
    20  H    4.009039   4.732024   4.718732   2.820825   4.597534
    21  H    4.547403   4.832253   5.681545   3.500178   4.287664
                    6          7          8          9         10
     6  C    0.000000
     7  O    4.473146   0.000000
     8  H    3.316763   2.052808   0.000000
     9  H    3.006649   2.082144   1.772957   0.000000
    10  C    4.775043   1.428493   3.141394   2.973140   0.000000
    11  C    4.529484   3.730762   4.519797   4.419747   2.586074
    12  H    4.439317   2.694478   3.162303   3.843554   2.132020
    13  H    1.090754   4.132387   2.792145   2.375295   4.736356
    14  H    1.093721   5.191974   3.756508   3.867661   5.527851
    15  H    1.093633   5.208772   4.277605   3.609909   5.382899
    16  H    5.800468   2.045597   3.858600   3.934096   1.090740
    17  H    4.938504   2.084294   3.806542   3.097955   1.099658
    18  C    5.601272   4.369606   5.549929   5.203764   3.010532
    19  H    4.375461   4.520865   4.909166   4.949293   3.543092
    20  H    6.107911   4.120328   5.638293   5.167238   2.712858
    21  H    6.221858   5.443632   6.534129   6.160505   4.092675
                   11         12         13         14         15
    11  C    0.000000
    12  H    2.106506   0.000000
    13  H    5.064631   4.695312   0.000000
    14  H    5.093978   4.815323   1.763756   0.000000
    15  H    4.930489   5.236427   1.772062   1.749555   0.000000
    16  H    3.050474   2.414728   5.759979   6.487938   6.445604
    17  H    2.763896   3.044748   4.909726   5.828944   5.343646
    18  C    1.327801   3.168491   6.099121   6.265021   5.850750
    19  H    1.085471   2.520024   5.099452   4.755804   4.738421
    20  H    2.118874   3.505714   6.445266   6.871232   6.372051
    21  H    2.099800   4.058124   6.838002   6.828638   6.350973
                   16         17         18         19         20
    16  H    0.000000
    17  H    1.782564   0.000000
    18  C    3.237443   2.824761   0.000000
    19  H    4.033316   3.782538   2.075189   0.000000
    20  H    2.757548   2.324032   1.083938   3.062488   0.000000
    21  H    4.277621   3.848884   1.082324   2.397330   1.842166
                   21
    21  H    0.000000
 Symmetry turned off by external request.
 Stoichiometry    C8H12O
 Framework group  C1[X(C8H12O)]
 Deg. of freedom    57
 Full point group                 C1      NOp   1
 Rotational constants (GHZ):           2.1352141           1.3427604           0.8777400
 Standard basis: def2TZVP (5D, 7F)
 The following finite field(s) will be applied:
 An electric field of              0.0032  0.0047 -0.0049
   351 basis functions,   555 primitive gaussians,   396 cartesian basis functions
    34 alpha electrons       34 beta electrons
       nuclear repulsion energy       444.6244494460 Hartrees.
 NAtoms=   21 NActive=   21 NUniq=   21 SFac= 1.00D+00 NAtFMM=   60 NAOKFM=F Big=F
 Integral buffers will be    131072 words long.
 Raffenetti 2 integral format.
 Two-electron integral symmetry is turned off.
 One-electron integrals computed using PRISM.
   1 Symmetry operations used in ECPInt.
 ECPInt:  NShTT=   10878 NPrTT=   32112 LenC2=   10564 LenP2D=   24715.
 LDataN:  DoStor=T MaxTD1= 6 Len=  172
 NBasis=   351 RedAO= T EigKep=  7.42D-05  NBF=   351
 NBsUse=   351 1.00D-06 EigRej= -1.00D+00 NBFU=   351
 The nuclear repulsion energy is now       444.9329960538 hartrees.
 Initial guess from the checkpoint file:  "checkpoint.chk"
 B after Tr=     0.001418    0.017697    0.007936
         Rot=    0.999942   -0.010471    0.000150   -0.002532 Ang=  -1.23 deg.
 ExpMin= 9.52D-02 ExpMax= 2.70D+04 ExpMxC= 9.22D+02 IAcc=2 IRadAn=         4 AccDes= 0.00D+00
 Harris functional with IExCor=  402 and IRadAn=       4 diagonalized for initial guess.
 HarFok:  IExCor=  402 AccDes= 0.00D+00 IRadAn=         4 IDoV= 1 UseB2=F ITyADJ=14
 ICtDFT=  3500011 ScaDFX=  1.000000  1.000000  1.000000  1.000000
 FoFCou: FMM=F IPFlag=           0 FMFlag=      100000 FMFlg1=           0
         NFxFlg=           0 DoJE=T BraDBF=F KetDBF=T FulRan=T
         wScrn=  0.000000 ICntrl=       500 IOpCl=  0 I1Cent=   200000004 NGrid=           0
         NMat0=    1 NMatS0=      1 NMatT0=    0 NMatD0=    1 NMtDS0=    0 NMtDT0=    0
 Symmetry not used in FoFCou.
 Requested convergence on RMS density matrix=1.00D-08 within 128 cycles.
 Requested convergence on MAX density matrix=1.00D-06.
 Requested convergence on             energy=1.00D-06.
 No special actions if energy rises.
 Integral accuracy reduced to 1.0D-05 until final iterations.
 Initial convergence to 1.0D-05 achieved.  Increase integral accuracy.
 SCF Done:  E(RB3LYP) =  -387.397390907     A.U. after   10 cycles
            NFock= 10  Conv=0.95D-08     -V/T= 2.0053
   1 Symmetry operations used in ECPInt.
 ECPInt:  NShTT=   10878 NPrTT=   32112 LenC2=   10564 LenP2D=   24715.
 LDataN:  DoStor=T MaxTD1= 7 Len=  274
 Calling FoFJK, ICntrl=      2127 FMM=F ISym2X=0 I1Cent= 0 IOpClX= 0 NMat=1 NMatS=1 NMatT=0.
 -------------------------------------------------------------------
 Center     Atomic                   Forces (Hartrees/Bohr)
 Number     Number              X              Y              Z
 -------------------------------------------------------------------
      1        6           0.000816207    0.000886124   -0.000208635
      2        6          -0.000585541   -0.001375145    0.000141669
      3        6           0.000032011    0.000731781    0.000205693
      4        6          -0.000249907    0.000510955    0.000425187
      5        1           0.000010734    0.000129548   -0.000029301
      6        6          -0.000080433    0.000029183    0.000128758
      7        8          -0.000602707    0.000486722   -0.000035922
      8        1          -0.000103238   -0.000225248    0.000016667
      9        1          -0.000083432   -0.000257715   -0.000182250
     10        6           0.000596699   -0.000313727    0.000089462
     11        6          -0.000012027    0.000038252    0.000004797
     12        1           0.000089317   -0.000046627   -0.000220952
     13        1          -0.000001353    0.000011372   -0.000017733
     14        1           0.000055309   -0.000044017   -0.000041621
     15        1          -0.000017535   -0.000001713   -0.000058966
     16        1           0.000081720   -0.000219019   -0.000006619
     17        1          -0.000037268   -0.000126858   -0.000168742
     18        6           0.000003961   -0.000133119   -0.000002410
     19        1           0.000007365   -0.000117783   -0.000029199
     20        1           0.000055038    0.000005598   -0.000023919
     21        1           0.000025080    0.000031437    0.000014036
 -------------------------------------------------------------------
 Cartesian Forces:  Max     0.001375145 RMS     0.000316631
 -----------------------------------------------------------------------------------------------
                       Internal Coordinate Forces (Hartree/Bohr or radian)
  Cent   Atom   N1       Length/X         N2         Alpha/Y        N3         Beta/Z          J
 -----------------------------------------------------------------------------------------------
      1  C 
      2  C        1   0.000123(     1)
      3  C        1  -0.000612(     2)      2   0.002947(    21)
      4  C        1  -0.000511(     3)      2   0.002729(    22)      3   0.000119(    40)     0
      5  H        2  -0.000020(     4)      1  -0.000046(    23)      3  -0.000107(    41)     0
      6  C        2  -0.000029(     5)      1   0.000027(    24)      5   0.000126(    42)     0
      7  O        3   0.000334(     6)      1  -0.001582(    25)      2   0.001267(    43)     0
      8  H        3   0.000152(     7)      1  -0.000343(    26)      7   0.000200(    44)     0
      9  H        3  -0.000285(     8)      1   0.000324(    27)      7   0.000061(    45)     0
     10  C        4   0.000011(     9)      1  -0.001274(    28)      2   0.001767(    46)     0
     11  C        4  -0.000148(    10)      1   0.000132(    29)     10  -0.000352(    47)     0
     12  H        4   0.000091(    11)      1   0.000077(    30)     10  -0.000441(    48)     0
     13  H        6   0.000008(    12)      2  -0.000035(    31)      1   0.000117(    49)     0
     14  H        6   0.000016(    13)      2   0.000037(    32)     13   0.000152(    50)     0
     15  H        6  -0.000041(    14)      2  -0.000076(    33)     13  -0.000053(    51)     0
     16  H       10   0.000009(    15)      4  -0.000158(    34)      1  -0.000602(    52)     0
     17  H       10  -0.000152(    16)      4   0.000242(    35)     16  -0.000186(    53)     0
     18  C       11  -0.000114(    17)      4  -0.000245(    36)      1  -0.000143(    54)     0
     19  H       11   0.000029(    18)      4  -0.000169(    37)     18  -0.000157(    55)     0
     20  H       18   0.000037(    19)     11  -0.000088(    38)      4   0.000039(    56)     0
     21  H       18  -0.000006(    20)     11   0.000021(    39)     20   0.000072(    57)     0
 -----------------------------------------------------------------------------------------------
 Internal  Forces:  Max     0.002946599 RMS     0.000691430

 GradGradGradGradGradGradGradGradGradGradGradGradGradGradGradGradGradGrad
 Berny optimization.
 Search for a local minimum.
 Step number   3 out of a maximum of   67
 All quantities printed in internal units (Hartrees-Bohrs-Radians)
 Update second derivatives using D2CorN and points    1    2    3
 DE= -2.24D-05 DEPred=-2.33D-05 R= 9.64D-01
 TightC=F SS=  1.41D+00  RLast= 7.43D-02 DXNew= 1.6818D-01 2.2302D-01
 Trust test= 9.64D-01 RLast= 7.43D-02 DXMaxT set to 1.68D-01
 ITU=  1  1  0
     Eigenvalues ---    0.00705   0.02982   0.03475   0.03922   0.05360
     Eigenvalues ---    0.06505   0.08094   0.09140   0.10586   0.11946
     Eigenvalues ---    0.13786   0.14477   0.15565   0.16185   0.16920
     Eigenvalues ---    0.19524   0.20431   0.20932   0.21767   0.22580
     Eigenvalues ---    0.23832   0.23993   0.24590   0.27229   0.28628
     Eigenvalues ---    0.29994   0.31944   0.32579   0.32622   0.33004
     Eigenvalues ---    0.33676   0.33788   0.33967   0.34362   0.34390
     Eigenvalues ---    0.34391   0.34679   0.34753   0.34780   0.35315
     Eigenvalues ---    0.35320   0.35369   0.35570   0.35709   0.38420
     Eigenvalues ---    0.39814   0.41656   0.43307   0.47516   0.52966
     Eigenvalues ---    0.54032   0.54433   0.59985   0.60058   1.33981
     Eigenvalues ---    1.58731  20.48191
 RFO step:  Lambda=-1.58743605D-05 EMin= 7.04987360D-03
 Quartic linear search produced a step of -0.02356.
 Variable       Old X    -DE/DX   Delta X   Delta X   Delta X     New X
                                 (Linear)    (Quad)   (Total)
    R2        2.50969   0.00012  -0.00000   0.00021   0.00020   2.50989
    R3        2.85965  -0.00061   0.00004  -0.00056  -0.00053   2.85913
    R4        2.87705  -0.00051   0.00004  -0.00015  -0.00011   2.87694
    R5        2.05062  -0.00002  -0.00000  -0.00006  -0.00007   2.05056
    R6        2.82981  -0.00003   0.00001  -0.00012  -0.00011   2.82970
    R7        2.71310   0.00033  -0.00010   0.00033   0.00023   2.71333
    R8        2.06695   0.00015  -0.00001   0.00044   0.00044   2.06738
    R9        2.07426  -0.00028   0.00002  -0.00082  -0.00080   2.07346
   R10        2.88852   0.00001   0.00002  -0.00020  -0.00018   2.88834
   R11        2.83050  -0.00015  -0.00001  -0.00045  -0.00046   2.83004
   R12        2.07854   0.00009   0.00000   0.00026   0.00026   2.07880
   R13        2.06123   0.00001   0.00001   0.00003   0.00004   2.06127
   R14        2.06683   0.00002  -0.00000   0.00003   0.00003   2.06686
   R15        2.06667  -0.00004  -0.00000  -0.00012  -0.00012   2.06655
   R16        2.06120   0.00001  -0.00001   0.00006   0.00005   2.06125
   R17        2.07805  -0.00015   0.00000  -0.00042  -0.00041   2.07764
   R18        2.50918  -0.00011  -0.00000  -0.00018  -0.00019   2.50899
   R19        2.05124   0.00003  -0.00000   0.00007   0.00007   2.05131
   R20        2.04835   0.00004   0.00000   0.00012   0.00013   2.04847
   R21        2.04530  -0.00001   0.00000  -0.00002  -0.00002   2.04528
    A3        2.20713   0.00295  -0.00001   0.00066   0.00065   2.20779
    A4        2.22827   0.00273  -0.00002  -0.00042  -0.00044   2.22783
    A5        2.06959  -0.00005   0.00003  -0.00026  -0.00023   2.06936
    A6        2.20182   0.00003  -0.00005   0.00023   0.00018   2.20200
    A7        1.85987  -0.00158   0.00002   0.00043   0.00045   1.86032
    A8        1.97476  -0.00034   0.00001  -0.00154  -0.00154   1.97322
    A9        1.94568   0.00032  -0.00005   0.00147   0.00142   1.94710
   A10        1.75444  -0.00127   0.00006   0.00116   0.00122   1.75566
   A11        2.03071   0.00013  -0.00001   0.00104   0.00102   2.03173
   A12        1.87069   0.00008  -0.00001  -0.00056  -0.00056   1.87012
   A13        1.96893  -0.00003  -0.00003  -0.00022  -0.00025   1.96868
   A14        1.92881   0.00004   0.00005   0.00027   0.00032   1.92913
   A15        1.93544  -0.00008  -0.00001  -0.00029  -0.00030   1.93514
   A16        1.98798  -0.00016  -0.00003  -0.00135  -0.00138   1.98660
   A17        1.92629   0.00024   0.00003   0.00112   0.00115   1.92744
   A18        2.21025  -0.00024  -0.00002  -0.00050  -0.00052   2.20973
   A19        2.00816  -0.00017   0.00000  -0.00021  -0.00020   2.00796
   A20        2.14010  -0.00009  -0.00001  -0.00039  -0.00040   2.13970
   A21        2.10955   0.00002   0.00001   0.00024   0.00025   2.10981
    D4       -3.07864   0.00012  -0.00040  -0.00042  -0.00082  -3.07947
    D5        3.11263  -0.00011   0.00008  -0.00086  -0.00079   3.11185
    D6       -3.18158   0.00013   0.00022   0.00023   0.00045  -3.18113
    D7        3.36884   0.00127  -0.00129   0.00412   0.00283   3.37167
    D8       -2.06309   0.00020  -0.00002   0.00121   0.00119  -2.06190
    D9        2.09136   0.00006   0.00002   0.00098   0.00101   2.09237
   D10        2.60591   0.00177   0.00103   0.00074   0.00176   2.60768
   D11       -2.23255  -0.00035  -0.00005  -0.00286  -0.00292  -2.23547
   D12        1.95391  -0.00044  -0.00006  -0.00297  -0.00303   1.95088
   D13        0.11070   0.00012  -0.00019   0.00261   0.00242   0.11312
   D14       -2.10512   0.00015  -0.00002   0.00013   0.00011  -2.10500
   D15        2.12673  -0.00005  -0.00008  -0.00039  -0.00047   2.12626
   D16        2.69422  -0.00060  -0.00022  -0.00747  -0.00769   2.68653
   D17        2.14507  -0.00019  -0.00000  -0.00013  -0.00014   2.14494
   D18        2.18150  -0.00014   0.00009  -0.00202  -0.00193   2.17957
   D19        3.10241  -0.00016   0.00001  -0.00043  -0.00042   3.10199
   D20       -0.01577   0.00004  -0.00001  -0.00046  -0.00047  -0.01624
   D21        3.12743   0.00007   0.00005   0.00070   0.00075   3.12818
         Item               Value     Threshold  Converged?
 Maximum Force            0.002947     0.000450     NO 
 RMS     Force            0.000691     0.000300     NO 
 Maximum Displacement     0.007686     0.001800     NO 
 RMS     Displacement     0.001430     0.001200     NO 
 Predicted change in Energy=-8.077889D-06
 GradGradGradGradGradGradGradGradGradGradGradGradGradGradGradGradGradGrad

 ---------------------------------------------------------------------------------------------------
                            Z-MATRIX (ANGSTROMS AND DEGREES)
   CD    Cent   Atom    N1       Length/X        N2       Alpha/Y        N3        Beta/Z          J
 ---------------------------------------------------------------------------------------------------
      1      1  C 
      2      2  C        1   1.328178(     1)
      3      3  C        1   1.512985(     2)      2  126.497(    21)
      4      4  C        1   1.522408(     3)      2  127.645(    22)      3 -176.441(    40)      0
      5      5  H        2   1.085108(     4)      1  118.565(    23)      3  178.296(    41)      0
      6      6  C        2   1.497411(     5)      1  126.165(    24)      5 -182.265(    42)      0
      7      7  O        3   1.435832(     6)      1  106.589(    25)      2  193.183(    43)      0
      8      8  H        3   1.094013(     7)      1  113.057(    26)      7 -118.138(    44)      0
      9      9  H        3   1.097226(     8)      1  111.560(    27)      7  119.884(    45)      0
     10     10  C        4   1.528443(     9)      1  100.592(    28)      2  149.409(    46)      0
     11     11  C        4   1.497591(    10)      1  116.410(    29)     10 -128.083(    47)      0
     12     12  H        4   1.100053(    11)      1  107.150(    30)     10  111.777(    48)      0
     13     13  H        6   1.090776(    12)      2  112.797(    31)      1    6.481(    49)      0
     14     14  H        6   1.093736(    13)      2  110.531(    32)     13 -120.608(    50)      0
     15     15  H        6   1.093570(    14)      2  110.875(    33)     13  121.826(    51)      0
     16     16  H       10   1.090767(    15)      4  113.824(    34)      1  153.927(    52)      0
     17     17  H       10   1.099440(    16)      4  110.434(    35)     16  122.896(    53)      0
     18     18  C       11   1.327702(    17)      4  126.608(    36)      1  124.880(    54)      0
     19     19  H       11   1.085509(    18)      4  115.048(    37)     18  177.731(    55)      0
     20     20  H       18   1.084004(    19)     11  122.596(    38)      4   -0.931(    56)      0
     21     21  H       18   1.082316(    20)     11  120.883(    39)     20  179.231(    57)      0
 ---------------------------------------------------------------------------------------------------
                         Z-Matrix orientation:                         
 ---------------------------------------------------------------------
 Center     Atomic      Atomic             Coordinates (Angstroms)
 Number     Number       Type             X           Y           Z
 ---------------------------------------------------------------------
      1          6           0        0.000000    0.000000    0.000000
      2          6           0        0.000000    0.000000    1.328178
      3          6           0        1.216273    0.000000   -0.899892
      4          6           0       -1.203132    0.074841   -0.929838
      5          1           0       -0.952599    0.028346    1.847033
      6          6           0        1.205983   -0.083692    2.211828
      7          8           0        0.748919    0.313818   -2.220767
      8          1           0        1.715229   -0.972517   -0.945907
      9          1           0        1.954860    0.745506   -0.579553
     10          6           0       -0.589312    0.802721   -2.125477
     11          6           0       -2.460917    0.641820   -0.347349
     12          1           0       -1.425794   -0.952044   -1.255488
     13          1           0        2.142426   -0.034896    1.654616
     14          1           0        1.203728   -1.020576    2.776188
     15          1           0        1.202455    0.720272    2.953127
     16          1           0       -1.087663    0.592291   -3.072651
     17          1           0       -0.590242    1.888924   -1.955388
     18          6           0       -3.165075    1.661261   -0.824523
     19          1           0       -2.831861    0.127618    0.533744
     20          1           0       -2.871137    2.209228   -1.712441
     21          1           0       -4.080229    1.978673   -0.341668
 ---------------------------------------------------------------------
                    Distance matrix (angstroms):
                    1          2          3          4          5
     1  C    0.000000
     2  C    1.328178   0.000000
     3  C    1.512985   2.538427   0.000000
     4  C    1.522408   2.559641   2.420748   0.000000
     5  H    2.078408   1.085108   3.500058   2.788538   0.000000
     6  C    2.520632   1.497411   3.112862   3.962201   2.192055
     7  O    2.364565   3.640655   1.435832   2.352470   4.418558
     8  H    2.186901   3.009860   1.094013   3.100653   3.989930
     9  H    2.170976   2.831377   1.097226   3.247369   3.854343
    10  C    2.347190   3.594354   2.325200   1.528443   4.063554
    11  C    2.566845   3.045560   3.773455   1.497591   2.732524
    12  H    2.124976   3.100742   2.830786   1.100053   3.287965
    13  H    2.707205   2.167434   2.717441   4.228972   3.101645
    14  H    3.193393   2.141792   3.815140   4.552751   2.571636
    15  H    3.268891   2.145962   3.919788   4.613117   2.519219
    16  H    3.312854   4.571774   3.221772   2.207428   4.953743
    17  H    2.782079   3.833826   2.818794   2.172161   4.248701
    18  C    3.668423   4.172722   4.686328   2.525280   3.833885
    19  H    2.884546   2.943951   4.296392   2.190345   2.294822
    20  H    4.007065   4.729639   4.716762   2.819631   4.594224
    21  H    4.547544   4.832370   5.681522   3.499744   4.286754
                    6          7          8          9         10
     6  C    0.000000
     7  O    4.473793   0.000000
     8  H    3.319733   2.052725   0.000000
     9  H    3.006692   2.081881   1.772918   0.000000
    10  C    4.777136   1.427924   3.139070   2.977577   0.000000
    11  C    4.530112   3.730995   4.517139   4.423093   2.586607
    12  H    4.438757   2.695097   3.156308   3.842835   2.129737
    13  H    1.090776   4.133044   2.797204   2.373967   4.738470
    14  H    1.093736   5.192015   3.757384   3.865779   5.528628
    15  H    1.093570   5.209614   4.281464   3.612005   5.386042
    16  H    5.800301   2.043597   3.850697   3.936490   1.090767
    17  H    4.948063   2.084403   3.810786   3.110928   1.099440
    18  C    5.600932   4.368575   5.546970   5.206952   3.010669
    19  H    4.377762   4.521503   4.906698   4.953172   3.543480
    20  H    6.105759   4.117740   5.634344   5.168769   2.712119
    21  H    6.222358   5.442741   6.531612   6.164381   4.092841
                   11         12         13         14         15
    11  C    0.000000
    12  H    2.106323   0.000000
    13  H    5.065232   4.694897   0.000000
    14  H    5.094082   4.813885   1.763702   0.000000
    15  H    4.931490   5.236103   1.771992   1.749818   0.000000
    16  H    3.052139   2.408606   5.759678   6.485425   6.447560
    17  H    2.764142   3.042877   4.919419   5.837066   5.354721
    18  C    1.327702   3.168626   6.098577   6.264488   5.850762
    19  H    1.085509   2.518739   5.101597   4.757403   4.741346
    20  H    2.118614   3.505919   6.442747   6.869058   6.370139
    21  H    2.099853   4.058349   6.838205   6.829109   6.351851
                   16         17         18         19         20
    16  H    0.000000
    17  H    1.782403   0.000000
    18  C    3.242286   2.821427   0.000000
    19  H    4.032894   3.784552   2.075568   0.000000
    20  H    2.765039   2.316053   1.084004   3.062677   0.000000
    21  H    4.282030   3.846058   1.082316   2.398161   1.842302
                   21
    21  H    0.000000
 Symmetry turned off by external request.
 Stoichiometry    C8H12O
 Framework group  C1[X(C8H12O)]
 Deg. of freedom    57
 Full point group                 C1      NOp   1
[...]
 -0.00039264,-0.00019802,0.00021845,-0.00019422,0.03824447,-0.07507351,
 0.00268409,0.00131906,-0.00041374,0.00329507,-0.00166409,0.00061836,-0
 .00398234,0.00283623,0.54601211,-0.01031915,0.01933147,-0.03941142,-0.
 00231208,0.00076802,-0.00032375,-0.03526730,0.01371744,-0.00560455,0.0
 1758686,0.04279194,-0.12630416,0.00011994,0.00014066,0.00015531,-0.000
 29127,-0.00133194,-0.00033813,0.03521604,-0.00904865,-0.08856491,-0.00
 126185,0.00052156,-0.00397782,-0.00119066,0.00094731,-0.00280921,0.091
 79420,0.02556362,0.58073340,-0.02865768,0.01094198,0.00251561,0.001437
 56,0.00010626,0.00115258,-0.00172355,0.00002929,-0.00028161,-0.1651535
 8,0.03781841,0.05143331,-0.00006174,0.00016036,0.00045586,-0.00061017,
 -0.00067373,0.00106049,0.00040192,0.00110530,-0.00041384,-0.00025387,0
 .00008563,0.00025670,-0.00004336,0.00010853,0.00010739,-0.01183358,-0.
 00060300,0.00718064,0.50911934,0.00556553,-0.00318256,0.00140123,-0.00
 028705,0.00048921,-0.00070337,-0.00044779,0.00003960,0.00163171,0.0398
 2438,-0.09599511,-0.00839480,-0.00005519,0.00010406,0.00033563,-0.0001
 4430,0.00007273,0.00002472,-0.00654617,-0.00044663,0.00322668,-0.00043
 756,0.00002556,0.00008262,-0.00018915,0.00008484,-0.00013604,-0.011297
 60,0.01016621,0.00064572,-0.22631870,0.58291228,-0.01535901,0.00877567
 ,0.01579215,-0.00105393,0.00023191,-0.00024183,-0.00433557,0.00000122,
 -0.00592584,0.04836433,-0.00762365,-0.11000995,-0.00115953,0.00033688,
 -0.00096019,0.00032115,-0.00034007,-0.00044254,0.00592065,0.00150521,-
 0.00253191,-0.00003453,-0.00001028,0.00027993,-0.00079503,-0.00011011,
 0.00109170,0.02023661,-0.01186845,-0.00839230,-0.07163172,-0.25129802,
 0.48307082,-0.00685910,-0.02197015,-0.01282696,-0.00098169,-0.00027167
 ,0.00099904,0.00007513,0.00066656,-0.00037231,-0.05239897,-0.04281372,
 -0.00974541,-0.00005046,-0.00096067,-0.00005654,0.00017082,0.00228931,
 -0.00063388,0.00094008,0.00065277,0.00071007,-0.00041416,-0.00008581,0
 .00011971,0.00023076,0.00022842,-0.00020605,-0.00235366,-0.01139267,-0
 .00182859,0.00220133,0.02924077,0.00879355,0.06291027,-0.00236268,0.00
 328642,-0.00257812,0.00003522,0.00072278,0.00139839,-0.00060572,-0.000
 22681,-0.00042014,-0.04302903,-0.25230076,-0.06595165,0.00005556,0.000
 13112,0.00001992,-0.00012715,-0.00040581,-0.00019508,0.00025754,0.0021
 0914,-0.00022800,-0.00014665,-0.00003464,-0.00007429,-0.00014266,-0.00
 006498,0.00010635,-0.00335507,-0.01999154,-0.00258904,0.00324644,-0.01
 472397,-0.00457872,0.04557739,0.27931901,-0.00972872,-0.01961606,-0.01
 334097,-0.00169977,-0.00003414,0.00123788,0.00031257,0.00032801,0.0000
 3765,-0.00952360,-0.07279136,-0.06438023,-0.00006940,-0.00135972,-0.00
 017657,0.00013781,0.00245780,-0.00057228,-0.00165617,-0.00148663,0.000
 78301,-0.00025970,-0.00004534,0.00028000,0.00001668,0.00016280,-0.0001
 2226,0.00644814,0.02862402,0.00441530,-0.00085056,-0.01320267,-0.00288
 961,0.01359086,0.07357487,0.07673836,0.00114305,0.00055182,0.00170356,
 -0.02373782,-0.00149076,0.01482421,-0.00040222,-0.00074801,-0.00053247
 ,0.00008300,0.00002760,-0.00020526,-0.00257334,-0.00018776,-0.00385069
 ,-0.23560623,-0.01483952,0.11360308,0.00110356,0.00001931,0.00039335,0
 .00020204,-0.00024445,-0.00042159,0.00079937,0.00062783,-0.00011953,-0
 .00057854,0.00011773,0.00031142,-0.00009785,-0.00007541,0.00006226,-0.
 00011048,0.00001449,-0.00007021,0.25926218,-0.00022418,0.00007070,-0.0
 0022066,0.00244550,-0.00097604,-0.00078200,0.00015917,0.00018380,0.000
 24658,0.00004789,-0.00016388,0.00000556,0.00047478,0.00137700,0.000376
 70,-0.01518270,-0.04805295,0.00757773,-0.00001392,-0.00016165,-0.00014
 925,-0.00003530,-0.00015499,-0.00049860,-0.00012805,-0.00000490,0.0006
 3781,0.00000389,0.00001859,0.00006465,0.00003686,-0.00001367,-0.000009
 66,-0.00007699,0.00000401,-0.00005623,0.01605317,0.04577460,0.00064442
 ,-0.00029726,0.00117700,-0.01832251,-0.00150049,0.01305162,-0.00011021
 ,-0.00031180,-0.00129352,0.00005497,0.00008544,0.00014598,-0.00347309,
 0.00085823,-0.00185640,0.11630489,0.00781627,-0.11957199,-0.00014960,-
 0.00000576,0.00038998,0.00016710,0.00019758,-0.00032645,0.00007643,0.0
 0015521,-0.00092440,-0.00013942,0.00006278,-0.00003597,-0.00016459,0.0
 0000036,0.00005592,0.00002424,0.00000874,0.00002458,-0.12578191,-0.010
 02482,0.12918876,-0.00275293,0.00053979,0.00042836,-0.00023249,0.02388
 372,-0.01668800,-0.00007562,0.00073038,0.00015052,-0.00018250,-0.00243
 752,-0.00045187,0.00039047,-0.00072287,0.00072288,-0.04612782,0.001279
 25,0.00073593,0.00034796,0.00005254,0.00020901,0.00008487,-0.00016293,
 0.00000539,0.00039472,0.00026810,-0.00053877,-0.00002970,-0.00003667,0
 .00035485,0.00039791,-0.00001104,-0.00018262,-0.00059605,0.00010326,-0
 .00060899,-0.00008383,-0.02472644,0.01329151,0.04893314,0.00029425,0.0
 0006525,-0.00175032,0.00184067,0.00223323,0.00119718,-0.00035097,0.000
 09779,0.00010960,0.00003800,-0.00017007,0.00008620,0.00045249,0.000259
 90,0.00031082,-0.00106781,-0.23873729,0.11246528,0.00000435,-0.0000374
 1,-0.00001192,0.00008218,-0.00011321,0.00004392,0.00005300,-0.00003618
 ,0.00003801,0.00004913,-0.00003062,0.00003498,-0.00003870,-0.00001653,
 0.00003455,-0.00006748,-0.00008442,-0.00004830,-0.00063280,-0.00045231
 ,-0.00033591,-0.00018953,0.25944171,-0.00228068,0.00036675,0.00103120,
 -0.00283776,0.01641031,-0.01521491,-0.00032303,0.00092636,0.00017146,-
 0.00026595,-0.00192031,-0.00045637,-0.00004688,-0.00043332,0.00049210,
 0.00257408,0.11363056,-0.10607779,0.00001244,-0.00007459,-0.00021017,-
 0.00002217,0.00003898,-0.00014084,0.00010224,-0.00008105,0.00036055,0.
 00016278,-0.00007416,0.00015826,0.00023033,-0.00006836,-0.00001199,-0.
 00035255,0.00012030,-0.00040106,0.00023069,0.01436997,-0.00891754,0.00
 280397,-0.12344545,0.11785336,-0.00306792,0.00037881,-0.00099125,0.001
 30756,-0.02066268,-0.02040214,-0.00082177,-0.00107003,0.00029703,0.000
 46326,0.00175824,-0.00070080,0.00083716,0.00027900,0.00080832,-0.04914
 975,0.00426527,0.00610339,0.00033594,0.00000838,-0.00002017,0.00019000
 ,-0.00007118,-0.00050090,0.00032358,0.00029010,0.00032571,-0.00067439,
 -0.00002019,-0.00007979,0.00024562,-0.00005334,-0.00024542,0.00007268,
 -0.00003204,0.00014935,0.00019048,0.02118093,0.01741630,-0.00030643,-0
 .00047268,0.00008366,0.05011395,0.00011715,0.00011418,0.00076229,-0.00
 015332,0.00407376,0.00336790,-0.00006765,-0.00005406,0.00020829,0.0001
 0676,-0.00040515,0.00014340,-0.00053725,0.00032353,-0.00031531,0.00432
 148,-0.18133592,-0.12949968,-0.00002508,0.00006027,-0.00010984,-0.0000
 1285,-0.00004071,-0.00004971,0.00004332,-0.00001096,0.00006112,0.00004
 769,-0.00002917,0.00007219,0.00005471,-0.00001252,-0.00006544,-0.00011
 547,-0.00000480,-0.00009809,0.00079573,0.00258023,0.00331084,0.0013365
 2,-0.02240805,-0.01988445,-0.00588361,0.19714889,-0.00332543,-0.000621
 47,0.00123069,-0.00197382,-0.01250212,-0.01810679,0.00021776,-0.000532
 46,-0.00002363,0.00027944,0.00160228,-0.00062965,-0.00002584,0.0006928
 5,0.00078131,0.00757404,-0.13019792,-0.16273972,-0.00003620,0.00000718
 ,-0.00002650,0.00011325,-0.00000007,0.00009385,-0.00023080,-0.00018591
 ,-0.00024096,-0.00044740,-0.00014178,-0.00021312,0.00009943,-0.0000798
 5,-0.00016213,0.00020321,-0.00002482,0.00023829,0.00009198,-0.01156394
 ,-0.01102133,-0.00028673,0.01124855,0.01131552,-0.00217571,0.14206903,
 0.17961527,-0.00278708,-0.00127507,0.00272760,0.00109952,-0.00013656,0
 .00007926,-0.00448844,-0.00182893,0.00260553,0.00931883,0.00346463,0.0
 1226860,0.00001302,-0.00020230,-0.00008362,-0.00015327,0.00033897,0.00
 020597,-0.02597226,0.00331966,-0.02996471,-0.00030864,0.00008633,-0.00
 058943,-0.00058381,0.00025411,-0.00151597,-0.09141492,-0.02539444,-0.0
 9258650,0.00057725,-0.00040167,-0.00013789,0.00034469,0.00057766,-0.00
 078810,0.00014347,0.00000022,0.00000814,0.00000793,-0.00000237,-0.0000
 3318,0.00013324,-0.00000418,0.00005311,0.11191139,-0.00000378,-0.00065
 057,0.00212701,0.00075206,0.00012381,0.00051891,0.00263913,-0.00025213
 ,0.00133575,0.00660684,0.00278607,0.01373541,-0.00004495,-0.00002198,0
 .00001994,-0.00001875,0.00010971,0.00016506,0.00799852,0.00322853,0.01
 259614,0.00022777,-0.00009209,0.00029457,0.00039439,-0.00031434,0.0005
 3514,-0.02847068,-0.06528219,-0.05572826,0.00036619,-0.00023913,0.0001
 5186,0.00067842,0.00104357,-0.00012989,-0.00005524,-0.00001216,-0.0000
 1425,-0.00000892,-0.00000550,0.00002922,0.00002579,-0.00001020,0.00009
 153,0.02275173,0.06597806,0.00192690,0.00249227,-0.00326714,-0.0010076
 7,0.00029434,0.00005260,0.00134374,-0.00074686,0.00048988,-0.01075889,
 -0.00598753,-0.01696978,0.00003662,0.00023363,-0.00001122,0.00015542,-
 0.00053318,-0.00035706,0.00020803,0.00272056,0.00622185,-0.00001027,-0
 .00003154,0.00005327,-0.00018067,0.00002583,0.00005271,-0.09919340,-0.
 04958956,-0.24862983,-0.00066450,0.00093933,-0.00028773,-0.00007575,-0
 .00001703,0.00146669,-0.00003930,0.00000266,0.00003006,-0.00003504,0.0
 0002274,0.00002172,-0.00018448,-0.00000171,-0.00014587,0.10960450,0.05
 227525,0.26487505,-0.00034482,0.00020750,-0.00074937,0.00051727,0.0001
 9011,0.00004329,0.00148579,0.00139958,0.00434782,0.00056461,-0.0136400
 0,-0.00282040,0.00001941,0.00008848,-0.00007339,-0.00004903,-0.0001455
 4,0.00007141,-0.01675387,0.03949508,0.00542847,-0.00055474,0.00018171,
 -0.00131628,-0.00034534,-0.00045391,-0.00011099,-0.04588278,-0.0107889
 4,-0.00504674,0.00075804,-0.00011848,-0.00050043,-0.00054390,-0.001246
 60,0.00303701,0.00003032,0.00001197,0.00000833,0.00002581,-0.00000118,
 0.00002647,0.00000885,-0.00000085,-0.00002441,0.00224646,-0.01342463,-
 0.00190883,0.06064667,-0.00023599,0.00076665,-0.00088431,0.00011971,0.
 00032349,0.00040155,-0.00002894,-0.00043411,-0.00211040,-0.00336837,-0
 .01782217,-0.00221784,-0.00002638,0.00001356,0.00012597,0.00000482,-0.
 00011810,0.00007680,0.01679074,-0.00664374,-0.00145098,0.00029159,-0.0
 0022551,0.00063711,0.00028945,-0.00025820,0.00070206,-0.01163094,-0.27
 555514,-0.03731392,0.00164116,-0.00012690,-0.00069984,-0.00048224,-0.0
 0071921,0.00330486,-0.00004661,-0.00001881,-0.00003141,0.00003283,-0.0
 0000467,0.00003316,0.00002024,0.00001031,0.00006217,-0.00177423,-0.006
 66995,-0.00158032,-0.00189555,0.30615734,0.00115705,0.00002633,0.00167
 607,-0.00012966,-0.00023661,-0.00027041,0.00004870,0.00032131,-0.00051
 371,0.00182112,0.02514063,0.00406512,0.00000272,0.00000343,0.00003280,
 0.00002990,0.00001259,0.00002149,0.00345362,-0.00111345,0.00439295,-0.
 00009719,-0.00019492,0.00015297,0.00010655,-0.00017993,0.00033457,-0.0
 0519388,-0.03974148,-0.06321368,-0.00091542,0.00026180,0.00098310,0.00
 143770,0.00280779,-0.00332641,-0.00001961,0.00000350,-0.00000402,0.000
 00198,0.00000603,0.00000323,0.00000835,0.00001481,-0.00000632,-0.00172
 448,-0.02783182,-0.00361227,-0.00059458,0.04143701,0.05895875,-0.00000
 069,0.00129366,0.00366106,-0.00027404,-0.00014738,0.00018741,-0.000510
 86,-0.00006419,-0.00087836,-0.01572665,0.02556443,-0.00818233,-0.00000
 429,0.00003151,-0.00034709,0.00020108,-0.00001145,-0.00040609,0.000159
 57,-0.00009452,0.00011510,-0.00002792,0.00004461,-0.00000198,-0.000265
 40,-0.00005171,0.00021051,-0.00039982,0.00042709,-0.00205853,-0.220457
 79,0.20042082,-0.06504400,-0.00246711,0.00055976,0.00119393,0.00005353
 ,-0.00000238,0.00006595,-0.00012639,0.00001998,-0.00004287,-0.00012043
 ,-0.00002730,-0.00008482,0.00009559,-0.00007599,0.00036106,-0.00069761
 ,0.00044522,0.00051621,0.55885139,-0.00222687,0.00089759,-0.00277515,0
 .00005763,0.00039497,0.00028116,0.00021760,-0.00011615,0.00034524,0.01
 401047,-0.00784138,0.00252407,-0.00015407,-0.00026927,-0.00002091,0.00
 001752,-0.00004943,0.00018274,-0.00007928,-0.00026300,0.00055671,0.000
 11293,-0.00000264,0.00005222,0.00016346,-0.00000690,-0.00006600,-0.000
 52496,0.00005523,0.00024929,0.19633362,-0.34756463,0.14332559,0.000126
 67,0.00137928,0.00006477,-0.00000404,0.00000380,-0.00000817,0.00005144
 ,0.00000342,0.00003461,0.00008528,-0.00000876,0.00007770,0.00028561,0.
 00069300,0.00003284,-0.00017240,0.00010230,-0.00072330,-0.25835150,0.5
 4851347,0.00140645,-0.00128472,-0.00258648,0.00006854,0.00022378,-0.00
 016688,0.00053013,0.00030196,0.00076149,0.00765233,-0.00829181,0.01175
 114,-0.00001784,-0.00004247,0.00045150,-0.00020378,-0.00005913,0.00036
 175,-0.00031563,0.00074875,-0.00031660,-0.00007872,-0.00000440,-0.0000
 3487,0.00020746,0.00002411,-0.00019899,0.00034777,-0.00268141,0.000664
 49,-0.06211289,0.14060196,-0.14646192,0.00148687,-0.00165157,-0.000871
 25,-0.00008720,0.00000729,-0.00006622,0.00008523,-0.00000234,0.0000219
 8,0.00007472,0.00000855,0.00003675,-0.00012294,-0.00025868,-0.00001988
 ,0.00027534,0.00074397,0.00054404,-0.12130152,-0.24698378,0.47771600,0
 .00173468,-0.00034923,0.00004942,-0.00070413,0.00005132,0.00045763,0.0
 0043918,-0.00029836,0.00100944,-0.00791958,-0.01370662,0.02190295,-0.0
 0068100,0.00000771,-0.00117565,0.00024153,0.00006720,-0.00050852,-0.00
 234570,-0.00025119,0.00076448,0.00000468,0.00004135,-0.00015803,-0.000
 00192,-0.00001127,-0.00012089,-0.00171581,0.00429834,-0.00036755,-0.08
 425735,-0.04257379,0.08191285,0.00066719,0.00043312,-0.00002566,0.0001
 9035,-0.00002021,0.00008648,-0.00005457,-0.00001118,-0.00002007,-0.000
 05332,0.00000938,-0.00000297,-0.00014435,-0.00017869,0.00039243,0.0000
 8658,-0.00021556,-0.00030731,0.00895098,0.01176545,-0.01429544,0.08491
 867,0.00004874,0.00016487,0.00026131,-0.00002164,-0.00013553,0.0004844
 4,-0.00007342,0.00005413,-0.00046777,0.00483881,0.00801193,-0.00993604
 ,0.00019342,0.00034353,-0.00013087,0.00009243,-0.00000361,-0.00014977,
 0.00124944,0.00025067,-0.00042868,0.00005552,-0.00002530,0.00000933,0.
 00000132,0.00000349,0.00005083,0.00189727,-0.00078705,0.00075911,-0.04
 047688,-0.11714354,0.11102044,-0.00098870,0.00069159,0.00033181,0.0000
 6170,-0.00000198,0.00002190,0.00000377,0.00000087,0.00001333,-0.000033
 61,0.00000059,-0.00001386,-0.00024132,-0.00014064,0.00001666,0.0001220
 2,0.00021255,-0.00013284,-0.00722503,-0.00958433,0.02338674,0.03731618
 ,0.11872563,-0.00008150,-0.00020177,-0.00067890,-0.00040736,0.00004000
 ,-0.00007201,-0.00013705,0.00008005,-0.00046597,0.00551278,0.00644472,
 -0.00823553,-0.00104131,-0.00000101,0.00015218,-0.00012652,0.00004754,
 0.00020470,0.00127307,0.00022439,-0.00033805,0.00004387,-0.00002862,0.
 00004105,0.00003937,0.00001657,0.00004804,0.00048514,-0.00173198,0.001
 87324,0.07854313,0.11271307,-0.22484359,-0.00026668,-0.00004634,0.0003
 4856,-0.00006618,0.00000790,-0.00004995,0.00001830,-0.00000010,0.00000
 805,0.00003491,0.00000530,0.00001701,-0.00014048,-0.00001780,-0.000049
 76,-0.00000841,0.00012055,-0.00009526,0.00539791,0.00777828,-0.0057326
 5,-0.08840229,-0.12702693,0.23506618,-0.00034629,0.00018665,0.00038243
 ,-0.00003558,-0.00004671,-0.00001586,-0.00026217,0.00022685,-0.0003351
 9,-0.00150286,-0.00296924,-0.00257878,0.00001522,0.00003182,0.00000125
 ,0.00000147,-0.00003208,0.00001092,0.00051995,-0.00028642,-0.00019896,
 -0.00006148,-0.00002631,0.00005274,0.00000022,0.00002357,0.00003869,-0
 .00110720,0.00107002,0.00038808,0.00994525,0.00966973,-0.01406762,0.00
 064309,-0.00050905,-0.00004485,-0.00000211,0.00000383,-0.00000260,0.00
 000866,-0.00000121,0.00000867,-0.00000252,0.00000453,-0.00000428,-0.00
 003523,-0.00016690,-0.00000271,-0.00131490,0.00006098,0.00041766,-0.07
 354778,-0.03312367,0.07075612,0.00191685,0.00608842,0.00228106,0.06824
 303,-0.00030821,0.00048592,0.00047006,-0.00010914,-0.00002563,0.000189
 08,-0.00015967,-0.00002520,0.00026243,-0.00464866,-0.00184251,-0.00276
 570,0.00004998,-0.00003252,-0.00022970,0.00007737,-0.00002510,-0.00014
 708,-0.00022678,0.00046134,-0.00052906,-0.00008124,0.00000959,-0.00005
 634,-0.00002687,0.00000864,-0.00006360,0.00053053,-0.00069857,0.000024
 99,-0.00717770,-0.00953590,0.02285689,0.00072743,-0.00037574,-0.000178
 54,0.00006223,0.00000330,0.00003022,-0.00001511,0.00000124,0.00000226,
 -0.00002714,-0.00000066,-0.00001503,0.00018840,-0.00022746,-0.00045181
 ,0.00002570,0.00061093,0.00011352,-0.03070463,-0.12015457,0.11964268,0
 .00653778,0.00179069,0.00527031,0.03286451,0.12367359,-0.00036726,0.00
 030175,0.00054236,-0.00001990,-0.00009944,0.00000952,-0.00021453,0.000
 10239,-0.00032882,-0.00198436,-0.00345971,-0.00256440,0.00004807,0.000
 00497,0.00001323,0.00002090,-0.00000916,-0.00000828,0.00017035,-0.0006
 5888,0.00030041,-0.00002562,-0.00003675,0.00009357,-0.00004726,-0.0000
 0038,0.00004329,0.00052277,0.00086519,-0.00001120,0.00554756,0.0072815
 5,-0.00645211,0.00052312,-0.00026850,-0.00006605,-0.00001746,0.0000079
 8,0.00001244,-0.00000485,-0.00000174,-0.00000035,-0.00000778,0.0000015
 6,-0.00002161,0.00017395,0.00000543,-0.00006177,0.00001998,-0.00090748
 ,-0.00004759,0.06790217,0.12225291,-0.22729448,0.00173558,0.00534575,0
 .00481223,-0.07578195,-0.13801466,0.23854686,0.00071965,-0.00018982,-0
 .00017061,0.00002867,-0.00007217,-0.00014338,0.00024590,-0.00012746,0.
 00022588,0.00421681,0.00490906,0.00206200,-0.00005107,0.00009308,0.000
 02700,-0.00000387,0.00004179,-0.00001583,-0.00035310,0.00000527,0.0000
 1686,0.00003704,0.00002676,-0.00005087,-0.00000523,-0.00001926,-0.0000
 2020,0.00035854,0.00013224,-0.00034201,-0.01193370,0.00423601,0.008935
 92,-0.00148047,0.00069622,0.00043937,-0.00000892,-0.00000802,-0.000004
 84,-0.00002312,0.00000185,-0.00001017,-0.00002578,-0.00000972,-0.00001
 382,-0.00000340,0.00000767,0.00003282,0.00009720,0.00000806,-0.0000194
 3,-0.25368537,0.07140912,0.11564501,-0.00127298,-0.00290844,-0.0029517
 7,-0.00307561,0.00242123,0.00180653,0.26621881,0.00131456,-0.00088737,
 -0.00142589,0.00011310,0.00005373,-0.00018032,0.00045102,-0.00011142,0
 .00067713,0.00469220,0.00296528,0.00713306,-0.00003994,0.00000193,0.00
 006509,-0.00005582,0.00004626,0.00009592,-0.00023885,0.00033868,-0.000
 21556,0.00006932,0.00000793,-0.00009349,0.00009786,0.00000348,-0.00011
 011,-0.00022628,-0.00050590,0.00037885,0.02325399,-0.00489339,-0.01163
 599,-0.00096216,0.00024576,0.00019805,-0.00000700,-0.00000270,-0.00001
 767,0.00002941,-0.00000715,0.00000588,0.00003446,0.00000921,0.00002791
 ,-0.00000625,-0.00004439,-0.00011657,0.00016593,0.00039938,0.00000561,
 0.06794898,-0.06618202,-0.02442949,-0.00291175,-0.00242855,-0.00369413
 ,-0.01306932,0.00589863,0.00728721,-0.08065347,0.06509264,0.00093032,-
 0.00052047,-0.00038381,0.00002326,-0.00002736,-0.00015318,0.00020504,-
 0.00009908,0.00010603,0.00293784,0.00615084,0.00403482,-0.00004334,0.0
 0002222,0.00004955,-0.00001100,0.00007305,0.00001958,-0.00003087,-0.00
 038960,0.00018454,0.00010077,-0.00000462,-0.00000801,0.00002802,-0.000
 01728,0.00001339,0.00003255,0.00080602,-0.00016995,-0.01154791,0.00473
 673,0.00834003,-0.00152364,0.00058693,0.00057635,-0.00000916,-0.000003
 14,-0.00000854,-0.00001106,-0.00000179,-0.00000639,0.00000669,-0.00000
 106,0.00000895,-0.00003934,0.00009950,0.00014846,-0.00010430,-0.000448
 73,-0.00007542,0.11873627,-0.02718081,-0.10855892,-0.00292687,-0.00341
 491,-0.00200956,0.01869519,-0.00641091,-0.00751726,-0.12544845,0.02604
 449,0.10540932\\-0.00048352,-0.00076100,-0.00004597,0.00050280,0.00102
 293,0.00001076,-0.00001882,-0.00025005,-0.00000746,0.00000539,0.000023
 00,0.00008153,-0.00000037,-0.00000407,0.00000037,0.00000545,-0.0001083
 0,-0.00001222,0.00004881,-0.00003049,-0.00000167,-0.00000263,0.0000001
 5,-0.00000239,0.00000164,-0.00000166,0.00000918,-0.00013065,0.00009354
 ,-0.00001184,-0.00001075,-0.00002556,-0.00002660,0.00000858,-0.0000012
 9,-0.00000500,-0.00000376,0.00004587,0.00000527,-0.00001673,0.00001973
 ,0.00001180,0.00001212,0.00002017,-0.00000258,0.00003815,-0.00003943,-
 0.00000637,0.00003828,-0.00001997,-0.00000785,-0.00001007,-0.00000727,
 -0.00000368,0.00000057,0.00000121,-0.00000068,0.00000750,0.00001045,0.
 00000897,0.00000798,0.00001204,0.00000639\\\@


 A COMPUTER IS LIKE A HORSE, IT WILL SENSE WEAKNESS.
     -- GREG WETTSTEIN
 Job cpu time:       0 days  2 hours 34 minutes 35.2 seconds.
 Elapsed time:       0 days  0 hours 12 minutes 54.0 seconds.
 File lengths (MBytes):  RWF=    204 Int=      0 D2E=      0 Chk=     32 Scr=      1
 Normal termination of Gaussian 16 at Fri Jun 10 13:25:19 2022.
