 Entering Gaussian System, Link 0=g16
 Input=int_initalOpt_zmat_sp.gjf
 Output=int_initalOpt_zmat_sp.out
 Initial command:
 /software/gaussian/g16-a03/l1.exe "/local_scratch/11171851/Gau-21811.inp" -scrdir="/local_scratch/11171851/"
 Entering Link 1 = /software/gaussian/g16-a03/l1.exe PID=     21812.
  
 Copyright (c) 1988,1990,1992,1993,1995,1998,2003,2009,2016,
            Gaussian, Inc.  All Rights Reserved.
  
 This is part of the Gaussian(R) 16 program.  It is based on
 the Gaussian(R) 09 system (copyright 2009, Gaussian, Inc.),
 the Gaussian(R) 03 system (copyright 2003, Gaussian, Inc.),
 the Gaussian(R) 98 system (copyright 1998, Gaussian, Inc.),
 the Gaussian(R) 94 system (copyright 1995, Gaussian, Inc.),
 the Gaussian 92(TM) system (copyright 1992, Gaussian, Inc.),
 the Gaussian 90(TM) system (copyright 1990, Gaussian, Inc.),
 the Gaussian 88(TM) system (copyright 1988, Gaussian, Inc.),
 the Gaussian 86(TM) system (copyright 1986, Carnegie Mellon
 University), and the Gaussian 82(TM) system (copyright 1983,
 Carnegie Mellon University). Gaussian is a federally registered
 trademark of Gaussian, Inc.
  
 This software contains proprietary and confidential information,
 including trade secrets, belonging to Gaussian, Inc.
  
 This software is provided under written license and may be
 used, copied, transmitted, or stored only in accord with that
 written license.
  
 The following legend is applicable only to US Government
 contracts under FAR:
  
                    RESTRICTED RIGHTS LEGEND
  
 Use, reproduction and disclosure by the US Government is
 subject to restrictions as set forth in subparagraphs (a)
 and (c) of the Commercial Computer Software - Restricted
 Rights clause in FAR 52.227-19.
  
 Gaussian, Inc.
 340 Quinnipiac St., Bldg. 40, Wallingford CT 06492
  
  
 ---------------------------------------------------------------
 Warning -- This program may not be used in any manner that
 competes with the business of Gaussian, Inc. or will provide
 assistance to any competitor of Gaussian, Inc.  The licensee
 of this program is prohibited from giving any competitor of
 Gaussian, Inc. access to this program.  By using this program,
 the user acknowledges that Gaussian, Inc. is engaged in the
 business of creating and licensing software in the field of
 computational chemistry and represents and warrants to the
 licensee that it is not a competitor of Gaussian, Inc. and that
 it will not use this program in any manner prohibited above.
 ---------------------------------------------------------------
  

 Cite this work as:
 Gaussian 16, Revision A.03,
 M. J. Frisch, G. W. Trucks, H. B. Schlegel, G. E. Scuseria, 
 M. A. Robb, J. R. Cheeseman, G. Scalmani, V. Barone, 
 G. A. Petersson, H. Nakatsuji, X. Li, M. Caricato, A. V. Marenich, 
 J. Bloino, B. G. Janesko, R. Gomperts, B. Mennucci, H. P. Hratchian, 
 J. V. Ortiz, A. F. Izmaylov, J. L. Sonnenberg, D. Williams-Young, 
 F. Ding, F. Lipparini, F. Egidi, J. Goings, B. Peng, A. Petrone, 
 T. Henderson, D. Ranasinghe, V. G. Zakrzewski, J. Gao, N. Rega, 
 G. Zheng, W. Liang, M. Hada, M. Ehara, K. Toyota, R. Fukuda, 
 J. Hasegawa, M. Ishida, T. Nakajima, Y. Honda, O. Kitao, H. Nakai, 
 T. Vreven, K. Throssell, J. A. Montgomery, Jr., J. E. Peralta, 
 F. Ogliaro, M. J. Bearpark, J. J. Heyd, E. N. Brothers, K. N. Kudin, 
 V. N. Staroverov, T. A. Keith, R. Kobayashi, J. Normand, 
 K. Raghavachari, A. P. Rendell, J. C. Burant, S. S. Iyengar, 
 J. Tomasi, M. Cossi, J. M. Millam, M. Klene, C. Adamo, R. Cammi, 
 J. W. Ochterski, R. L. Martin, K. Morokuma, O. Farkas, 
 J. B. Foresman, and D. J. Fox, Gaussian, Inc., Wallingford CT, 2016.
 
 ******************************************
 Gaussian 16:  ES64L-G16RevA.03 25-Dec-2016
                10-Jun-2022 
 ******************************************
 %nprocshared=12
 Will use up to   12 processors via shared memory.
 %chk=checkpoint.chk
 %mem=12GB
 --------------------------
 # sp B3LYP/Def2TZVP NoSymm
 --------------------------
 1/38=1,172=1/1;
 2/12=2,15=1,17=6,18=5,40=1/2;
 3/5=44,7=101,11=2,25=1,30=1,74=-5/1,2,3;
 4//1;
 5/5=2,38=5/2;
 6/7=2,8=2,9=2,10=2,28=1/1;
 99/5=1,9=1/99;
 ----------------------------
 int_initalOpt_zmat_AlignedSp
 ----------------------------
 Symbolic Z-matrix:
 Charge =  0 Multiplicity = 1
 C
 C                    1    R2
 C                    1    R3       2    A3
 C                    1    R4       2    A4       3    D4       0
 H                    2    R5       1    A5       3    D5       0
 C                    2    R6       1    A6       5    D6       0
 O                    3    R7       1    A7       2    D7       0
 H                    3    R8       1    A8       7    D8       0
 H                    3    R9       1    A9       7    D9       0
 C                    4    R10      1    A10      2    D10      0
 C                    4    R11      1    A11      10   D11      0
 H                    4    R12      1    A12      10   D12      0
 H                    6    R13      2    A13      1    D13      0
 H                    6    R14      2    A14      13   D14      0
 H                    6    R15      2    A15      13   D15      0
 H                    10   R16      4    A16      1    D16      0
 H                    10   R17      4    A17      16   D17      0
 C                    11   R18      4    A18      1    D18      0
 H                    11   R19      4    A19      18   D19      0
 H                    18   R20      11   A20      4    D20      0
 H                    18   R21      11   A21      20   D21      0
       Variables:
  R2                    1.3278                   
  R3                    1.51627                  
  R4                    1.5266                   
  R5                    1.086                    
  R6                    1.49924                  
  R7                    1.42565                  
  R8                    1.09206                  
  R9                    1.09915                  
  R10                   1.53265                  
  R11                   1.499                    
  R12                   1.09959                  
  R13                   1.09003                  
  R14                   1.09441                  
  R15                   1.0942                   
  R16                   1.08929                  
  R17                   1.09849                  
  R18                   1.32762                  
  R19                   1.08619                  
  R20                   1.08303                  
  R21                   1.08257                  
  A3                  126.50411                  
  A4                  127.35314                  
  A5                  118.75148                  
  A6                  125.78011                  
  A7                  106.1934                   
  A8                  113.53867                  
  A9                  110.97614                  
  A10                 101.14614                  
  A11                 115.93038                  
  A12                 107.04803                  
  A13                 112.56648                  
  A14                 110.97917                  
  A15                 110.93573                  
  A16                 114.00939                  
  A17                 110.66495                  
  A18                 126.55847                  
  A19                 115.12804                  
  A20                 122.69597                  
  A21                 120.97623                  
  D4                 -178.85274                  
  D5                  178.67023                  
  D6                 -179.96343                  
  D7                  177.612                    
  D8                 -118.25622                  
  D9                  119.80686                  
  D10                 160.51472                  
  D11                -128.04162                  
  D12                 111.86101                  
  D13                   1.22611                  
  D14                -120.85816                  
  D15                 120.90689                  
  D16                 152.23323                  
  D17                 123.22075                  
  D18                 127.61286                  
  D19                 178.32524                  
  D20                  -0.91149                  
  D21                 179.94043                  
 
                          Input orientation:                          
 ---------------------------------------------------------------------
 Center     Atomic      Atomic             Coordinates (Angstroms)
 Number     Number       Type             X           Y           Z
 ---------------------------------------------------------------------
      1          6           0        0.000000    0.000000    0.000000
      2          6           0        0.000000    0.000000    1.327797
      3          6           0        1.218797    0.000000   -0.901998
      4          6           0       -1.213266    0.024297   -0.926226
      5          1           0       -0.951854    0.022095    1.850174
      6          6           0        1.215974   -0.027450    2.204367
      7          8           0        0.724644   -0.057045   -2.238056
      8          1           0        1.872945   -0.861376   -0.751248
      9          1           0        1.816223    0.911020   -0.756178
     10          6           0       -0.578757    0.513287   -2.232870
     11          6           0       -2.409611    0.772193   -0.419867
     12          1           0       -1.516936   -1.020203   -1.087176
     13          1           0        2.143968   -0.026855    1.632526
     14          1           0        1.218401   -0.915956    2.843345
     15          1           0        1.234883    0.837756    2.873941
     16          1           0       -1.095245    0.174822   -3.130225
     17          1           0       -0.518884    1.610040   -2.248068
     18          6           0       -3.073943    1.727390   -1.059273
     19          1           0       -2.764412    0.465738    0.559929
     20          1           0       -2.790653    2.078454   -2.043885
     21          1           0       -3.939948    2.198746   -0.612255
 ---------------------------------------------------------------------
                    Distance matrix (angstroms):
                    1          2          3          4          5
     1  C    0.000000
     2  C    1.327797   0.000000
     3  C    1.516267   2.541151   0.000000
     4  C    1.526597   2.559926   2.432305   0.000000
     5  H    2.080783   1.085998   3.505234   2.788681   0.000000
     6  C    2.517653   1.499240   3.106487   3.962890   2.197131
     7  O    2.353138   3.639185   1.425655   2.341582   4.419336
     8  H    2.194143   2.927852   1.092063   3.215545   3.940483
     9  H    2.168047   2.910597   1.099154   3.161170   3.904550
    10  C    2.363077   3.643730   2.294752   1.532654   4.129373
    11  C    2.564916   3.075197   3.740866   1.498997   2.800141
    12  H    2.126937   3.028862   2.925635   1.099591   3.167607
    13  H    2.694895   2.165682   2.698235   4.221474   3.103849
    14  H    3.226157   2.149503   3.855719   4.583312   2.564437
    15  H    3.238257   2.148799   3.867791   4.593084   2.548572
    16  H    3.320908   4.593918   3.217196   2.212283   4.984803
    17  H    2.813410   3.955790   2.724641   2.178075   4.416403
    18  C    3.681720   4.258064   4.629928   2.525935   3.984492
    19  H    2.858742   2.906632   4.268501   2.193076   2.268682
    20  H    4.035490   4.845199   4.658279   2.820793   4.772158
    21  H    4.553299   4.911362   5.615255   3.501657   4.441855
                    6          7          8          9         10
     6  C    0.000000
     7  O    4.469608   0.000000
     8  H    3.140494   2.043560   0.000000
     9  H    3.163203   2.079581   1.773311   0.000000
    10  C    4.816900   1.422730   3.177380   2.841609   0.000000
    11  C    4.546526   3.717123   4.595503   4.241468   2.589602
    12  H    4.391880   2.697569   3.410185   3.866411   2.131756
    13  H    1.090034   4.122717   2.540130   2.587071   4.758810
    14  H    1.094414   5.177080   3.654109   4.080662   5.571397
    15  H    1.094198   5.214741   4.054155   3.677104   5.429004
    16  H    5.817260   2.040030   3.942510   3.828149   1.089295
    17  H    5.051265   2.079816   3.750894   2.857811   1.098491
    18  C    5.668703   4.359243   5.591805   4.967097   3.012861
    19  H    4.334845   4.502836   4.998550   4.786714   3.546699
    20  H    6.207700   4.117690   5.662389   4.923860   2.716237
    21  H    6.282742   5.430492   6.570646   5.900208   4.094480
                   11         12         13         14         15
    11  C    0.000000
    12  H    2.110653   0.000000
    13  H    5.058248   4.667519   0.000000
    14  H    5.163416   4.789774   1.764443   0.000000
    15  H    4.912821   5.168653   1.764964   1.754057   0.000000
    16  H    3.070904   2.404154   5.763416   6.498176   6.474487
    17  H    2.760282   3.043346   4.982892   5.943172   5.468738
    18  C    1.327622   3.158215   6.127785   6.375102   5.901492
    19  H    1.086185   2.545030   5.048297   4.794358   4.635452
    20  H    2.118714   3.484153   6.503753   6.994571   6.475283
    21  H    2.100952   4.056868   6.856120   6.946302   6.386293
                   16         17         18         19         20
    16  H    0.000000
    17  H    1.780517   0.000000
    18  C    3.257999   2.820519   0.000000
    19  H    4.060540   3.773151   2.075907   0.000000
    20  H    2.770985   2.328526   1.083033   3.062906   0.000000
    21  H    4.304506   3.837465   1.082574   2.399837   1.839814
                   21
    21  H    0.000000
 Symmetry turned off by external request.
 Stoichiometry    C8H12O
 Framework group  C1[X(C8H12O)]
 Deg. of freedom    57
 Full point group                 C1      NOp   1
 Rotational constants (GHZ):           2.1699050           1.3231418           0.8735133
 Standard basis: def2TZVP (5D, 7F)
   351 basis functions,   555 primitive gaussians,   396 cartesian basis functions
    34 alpha electrons       34 beta electrons
       nuclear repulsion energy       444.5741964837 Hartrees.
 NAtoms=   21 NActive=   21 NUniq=   21 SFac= 1.00D+00 NAtFMM=   60 NAOKFM=F Big=F
 Integral buffers will be    131072 words long.
 Raffenetti 2 integral format.
 Two-electron integral symmetry is turned off.
 One-electron integrals computed using PRISM.
   1 Symmetry operations used in ECPInt.
 ECPInt:  NShTT=   10878 NPrTT=   32112 LenC2=   10560 LenP2D=   24705.
 LDataN:  DoStor=T MaxTD1= 6 Len=  172
 NBasis=   351 RedAO= T EigKep=  6.87D-05  NBF=   351
 NBsUse=   351 1.00D-06 EigRej= -1.00D+00 NBFU=   351
 ExpMin= 9.52D-02 ExpMax= 2.70D+04 ExpMxC= 9.22D+02 IAcc=3 IRadAn=         5 AccDes= 0.00D+00
 Harris functional with IExCor=  402 and IRadAn=       5 diagonalized for initial guess.
 HarFok:  IExCor=  402 AccDes= 0.00D+00 IRadAn=         5 IDoV= 1 UseB2=F ITyADJ=14
 ICtDFT=  3500011 ScaDFX=  1.000000  1.000000  1.000000  1.000000
 FoFCou: FMM=F IPFlag=           0 FMFlag=      100000 FMFlg1=           0
         NFxFlg=           0 DoJE=T BraDBF=F KetDBF=T FulRan=T
         wScrn=  0.000000 ICntrl=       500 IOpCl=  0 I1Cent=   200000004 NGrid=           0
         NMat0=    1 NMatS0=      1 NMatT0=    0 NMatD0=    1 NMtDS0=    0 NMtDT0=    0
 Symmetry not used in FoFCou.
 Requested convergence on RMS density matrix=1.00D-08 within 128 cycles.
 Requested convergence on MAX density matrix=1.00D-06.
 Requested convergence on             energy=1.00D-06.
 No special actions if energy rises.
 Integral accuracy reduced to 1.0D-05 until final iterations.
 Initial convergence to 1.0D-05 achieved.  Increase integral accuracy.
 SCF Done:  E(RB3LYP) =  -387.391423838     A.U. after   14 cycles
            NFock= 14  Conv=0.73D-08     -V/T= 2.0053

 **********************************************************************

            Population analysis using the SCF density.

 **********************************************************************

 Alpha  occ. eigenvalues --  -19.12781 -10.21971 -10.21703 -10.18887 -10.18274
 Alpha  occ. eigenvalues --  -10.18083 -10.17157 -10.17130 -10.16873  -1.04183
 Alpha  occ. eigenvalues --   -0.82923  -0.79059  -0.73403  -0.72612  -0.64677
 Alpha  occ. eigenvalues --   -0.62880  -0.56557  -0.53108  -0.50643  -0.48530
 Alpha  occ. eigenvalues --   -0.46631  -0.45152  -0.43154  -0.41954  -0.41340
 Alpha  occ. eigenvalues --   -0.40124  -0.38922  -0.38278  -0.36454  -0.34031
 Alpha  occ. eigenvalues --   -0.31955  -0.27092  -0.26316  -0.24461
 Alpha virt. eigenvalues --   -0.00091   0.00301   0.03545   0.05189   0.05549
 Alpha virt. eigenvalues --    0.06703   0.08173   0.08670   0.10044   0.10933
 Alpha virt. eigenvalues --    0.11158   0.11285   0.13107   0.13538   0.14031
 Alpha virt. eigenvalues --    0.16193   0.17268   0.18229   0.18523   0.20068
 Alpha virt. eigenvalues --    0.20630   0.21153   0.22799   0.23346   0.24044
 Alpha virt. eigenvalues --    0.24609   0.26122   0.27344   0.28122   0.29179
 Alpha virt. eigenvalues --    0.30909   0.32502   0.33191   0.33844   0.35334
 Alpha virt. eigenvalues --    0.36444   0.36887   0.38760   0.39281   0.39629
 Alpha virt. eigenvalues --    0.40326   0.40851   0.41719   0.41842   0.42254
 Alpha virt. eigenvalues --    0.43802   0.44779   0.45127   0.45388   0.46291
 Alpha virt. eigenvalues --    0.47005   0.47756   0.48274   0.48851   0.50443
 Alpha virt. eigenvalues --    0.51058   0.52355   0.54419   0.56461   0.57540
 Alpha virt. eigenvalues --    0.59154   0.59405   0.61297   0.62205   0.63849
 Alpha virt. eigenvalues --    0.65624   0.66649   0.67425   0.70601   0.71826
 Alpha virt. eigenvalues --    0.72596   0.74910   0.77543   0.81086   0.81533
 Alpha virt. eigenvalues --    0.82615   0.84276   0.86575   0.87398   0.90027
 Alpha virt. eigenvalues --    0.90763   0.93417   0.94337   0.95198   0.98479
 Alpha virt. eigenvalues --    0.99125   1.00516   1.02551   1.02901   1.04306
 Alpha virt. eigenvalues --    1.06400   1.06805   1.09165   1.10983   1.11268
 Alpha virt. eigenvalues --    1.13357   1.14810   1.16267   1.18991   1.20476
 Alpha virt. eigenvalues --    1.21766   1.24751   1.25720   1.27340   1.30801
 Alpha virt. eigenvalues --    1.31438   1.35091   1.36350   1.39773   1.43353
 Alpha virt. eigenvalues --    1.45601   1.46480   1.47957   1.49231   1.51111
 Alpha virt. eigenvalues --    1.52570   1.52710   1.54477   1.56272   1.56469
 Alpha virt. eigenvalues --    1.57358   1.58829   1.59763   1.60678   1.61169
 Alpha virt. eigenvalues --    1.62709   1.63538   1.68355   1.69770   1.71158
 Alpha virt. eigenvalues --    1.74339   1.74613   1.76437   1.79522   1.80746
 Alpha virt. eigenvalues --    1.81877   1.83702   1.84382   1.87293   1.89030
 Alpha virt. eigenvalues --    1.89397   1.92432   1.95291   1.97118   1.98897
 Alpha virt. eigenvalues --    1.99866   2.01082   2.04255   2.05589   2.07294
 Alpha virt. eigenvalues --    2.09818   2.10794   2.12943   2.14282   2.16786
 Alpha virt. eigenvalues --    2.20514   2.21670   2.25392   2.27301   2.28453
 Alpha virt. eigenvalues --    2.31906   2.32090   2.35136   2.35644   2.37297
 Alpha virt. eigenvalues --    2.38748   2.40698   2.41794   2.42947   2.45569
 Alpha virt. eigenvalues --    2.45680   2.48319   2.49240   2.51935   2.52059
 Alpha virt. eigenvalues --    2.54028   2.55077   2.56034   2.56695   2.58536
 Alpha virt. eigenvalues --    2.58716   2.60983   2.63021   2.64345   2.67488
 Alpha virt. eigenvalues --    2.69099   2.69357   2.73702   2.74932   2.77228
 Alpha virt. eigenvalues --    2.79319   2.80262   2.81718   2.83282   2.85865
 Alpha virt. eigenvalues --    2.86509   2.89440   2.91178   2.91488   2.93427
 Alpha virt. eigenvalues --    2.94207   2.95860   2.97405   2.98896   2.99710
 Alpha virt. eigenvalues --    3.02720   3.04342   3.05664   3.06809   3.07529
 Alpha virt. eigenvalues --    3.08958   3.10647   3.12066   3.13425   3.14638
 Alpha virt. eigenvalues --    3.16089   3.18388   3.19338   3.20816   3.21974
 Alpha virt. eigenvalues --    3.22075   3.23724   3.25851   3.26734   3.28158
 Alpha virt. eigenvalues --    3.29875   3.31240   3.32832   3.33927   3.35447
 Alpha virt. eigenvalues --    3.35910   3.36879   3.39139   3.39939   3.42540
 Alpha virt. eigenvalues --    3.44847   3.47486   3.50042   3.50723   3.51038
 Alpha virt. eigenvalues --    3.52071   3.55021   3.57211   3.59232   3.59788
 Alpha virt. eigenvalues --    3.61289   3.65074   3.67354   3.69490   3.70187
 Alpha virt. eigenvalues --    3.72232   3.74524   3.79998   3.80276   3.82031
 Alpha virt. eigenvalues --    3.84400   3.87916   3.91389   3.93065   3.94995
 Alpha virt. eigenvalues --    3.96563   3.98787   4.01901   4.04416   4.05070
 Alpha virt. eigenvalues --    4.09843   4.14192   4.16413   4.18341   4.23587
 Alpha virt. eigenvalues --    4.25585   4.32204   4.34300   4.35852   4.38170
 Alpha virt. eigenvalues --    4.43841   4.44075   4.46641   4.52607   4.53888
 Alpha virt. eigenvalues --    4.57232   4.58135   4.60839   4.65382   4.67329
 Alpha virt. eigenvalues --    4.71405   4.81713   4.82455   4.87256   4.96824
 Alpha virt. eigenvalues --    4.98212   4.98989   5.07508   5.17029   5.27549
 Alpha virt. eigenvalues --    5.37430   5.44590   5.47701   5.78599   5.79748
 Alpha virt. eigenvalues --    5.83492   6.16370   6.18275   6.71074   6.80293
 Alpha virt. eigenvalues --    6.86472   7.20477   7.24505  22.11310  22.28769
 Alpha virt. eigenvalues --   22.35570  22.53493  22.59262  22.70555  22.72020
 Alpha virt. eigenvalues --   23.09673  44.11690
          Condensed to atoms (all electrons):
               1          2          3          4          5          6
     1  C    5.420034   0.396684   0.309410   0.352618  -0.047889  -0.017374
     2  C    0.396684   5.274545  -0.034267  -0.078922   0.400208   0.253305
     3  C    0.309410  -0.034267   4.704780  -0.077207   0.006215  -0.003857
     4  C    0.352618  -0.078922  -0.077207   5.150242  -0.005020   0.008747
     5  H   -0.047889   0.400208   0.006215  -0.005020   0.579503  -0.035890
     6  C   -0.017374   0.253305  -0.003857   0.008747  -0.035890   4.890618
     7  O   -0.071533   0.006283   0.326937  -0.082647  -0.000365  -0.000438
     8  H   -0.016069  -0.010948   0.388897   0.000073  -0.000235   0.002123
     9  H   -0.100626   0.023963   0.416082  -0.013732  -0.000397  -0.002663
    10  C   -0.070440   0.014633  -0.053966   0.273789  -0.000812  -0.000529
    11  C   -0.032802   0.009729   0.011194   0.186252  -0.000509   0.000688
    12  H   -0.057187   0.007562   0.007798   0.377760   0.001571  -0.000742
    13  H    0.013509  -0.073140   0.003537   0.000723   0.005323   0.425931
    14  H   -0.007618  -0.037163  -0.000511  -0.000748  -0.001485   0.408532
    15  H   -0.001673  -0.044158  -0.001118   0.000198  -0.001916   0.410245
    16  H    0.014074  -0.001951   0.007951  -0.003077  -0.000034   0.000050
    17  H   -0.012235   0.007509   0.000242  -0.121092   0.000026  -0.000194
    18  C   -0.000443   0.003074  -0.000454  -0.009689   0.001171  -0.000077
    19  H   -0.013625   0.002430  -0.000323  -0.037718   0.004009   0.000320
    20  H   -0.000643   0.000140   0.000044  -0.009955  -0.000002   0.000004
    21  H   -0.000778  -0.000043   0.000038   0.007993   0.000040  -0.000000
               7          8          9         10         11         12
     1  C   -0.071533  -0.016069  -0.100626  -0.070440  -0.032802  -0.057187
     2  C    0.006283  -0.010948   0.023963   0.014633   0.009729   0.007562
     3  C    0.326937   0.388897   0.416082  -0.053966   0.011194   0.007798
     4  C   -0.082647   0.000073  -0.013732   0.273789   0.186252   0.377760
     5  H   -0.000365  -0.000235  -0.000397  -0.000812  -0.000509   0.001571
     6  C   -0.000438   0.002123  -0.002663  -0.000529   0.000688  -0.000742
     7  O    7.996857  -0.035889  -0.050661   0.306237   0.010379   0.008285
     8  H   -0.035889   0.628918  -0.065589   0.004344  -0.001218  -0.000145
     9  H   -0.050661  -0.065589   0.684042   0.012848   0.003166   0.000300
    10  C    0.306237   0.004344   0.012848   4.764074   0.018274  -0.038794
    11  C    0.010379  -0.001218   0.003166   0.018274   5.089592  -0.053155
    12  H    0.008285  -0.000145   0.000300  -0.038794  -0.053155   0.675662
    13  H   -0.000114  -0.003058  -0.000332   0.000032   0.000023   0.000006
    14  H    0.000011   0.000927  -0.000308  -0.000012  -0.000086   0.000248
    15  H   -0.000004  -0.000339   0.000782   0.000066   0.000043  -0.000082
    16  H   -0.032009   0.000602  -0.001827   0.374151  -0.005333  -0.013925
    17  H   -0.050277  -0.001675   0.010367   0.444758   0.023844   0.013456
    18  C   -0.000534   0.000107  -0.000494  -0.018114   0.568596  -0.001890
    19  H   -0.000330  -0.000066   0.000113   0.005495   0.398804  -0.004034
    20  H   -0.000153  -0.000005   0.000057   0.002851  -0.046700   0.000238
    21  H   -0.000014  -0.000002   0.000003   0.000273  -0.038365  -0.000396
              13         14         15         16         17         18
     1  C    0.013509  -0.007618  -0.001673   0.014074  -0.012235  -0.000443
     2  C   -0.073140  -0.037163  -0.044158  -0.001951   0.007509   0.003074
     3  C    0.003537  -0.000511  -0.001118   0.007951   0.000242  -0.000454
     4  C    0.000723  -0.000748   0.000198  -0.003077  -0.121092  -0.009689
     5  H    0.005323  -0.001485  -0.001916  -0.000034   0.000026   0.001171
     6  C    0.425931   0.408532   0.410245   0.000050  -0.000194  -0.000077
     7  O   -0.000114   0.000011  -0.000004  -0.032009  -0.050277  -0.000534
     8  H   -0.003058   0.000927  -0.000339   0.000602  -0.001675   0.000107
     9  H   -0.000332  -0.000308   0.000782  -0.001827   0.010367  -0.000494
    10  C    0.000032  -0.000012   0.000066   0.374151   0.444758  -0.018114
    11  C    0.000023  -0.000086   0.000043  -0.005333   0.023844   0.568596
    12  H    0.000006   0.000248  -0.000082  -0.013925   0.013456  -0.001890
    13  H    0.565639  -0.024336  -0.023629  -0.000003   0.000016   0.000005
    14  H   -0.024336   0.581800  -0.037190  -0.000001   0.000011   0.000004
    15  H   -0.023629  -0.037190   0.581615  -0.000002  -0.000024   0.000003
    16  H   -0.000003  -0.000001  -0.000002   0.611581  -0.055542   0.003441
    17  H    0.000016   0.000011  -0.000024  -0.055542   0.671135  -0.008332
    18  C    0.000005   0.000004   0.000003   0.003441  -0.008332   4.930654
    19  H    0.000018  -0.000036   0.000036  -0.000580   0.000217  -0.032997
    20  H    0.000000  -0.000000  -0.000000  -0.002040   0.002237   0.417330
    21  H    0.000000  -0.000000   0.000001  -0.000071   0.000081   0.409938
              19         20         21
     1  C   -0.013625  -0.000643  -0.000778
     2  C    0.002430   0.000140  -0.000043
     3  C   -0.000323   0.000044   0.000038
     4  C   -0.037718  -0.009955   0.007993
     5  H    0.004009  -0.000002   0.000040
     6  C    0.000320   0.000004  -0.000000
     7  O   -0.000330  -0.000153  -0.000014
     8  H   -0.000066  -0.000005  -0.000002
     9  H    0.000113   0.000057   0.000003
    10  C    0.005495   0.002851   0.000273
    11  C    0.398804  -0.046700  -0.038365
    12  H   -0.004034   0.000238  -0.000396
    13  H    0.000018   0.000000   0.000000
    14  H   -0.000036  -0.000000  -0.000000
    15  H    0.000036  -0.000000   0.000001
    16  H   -0.000580  -0.002040  -0.000071
    17  H    0.000217   0.002237   0.000081
    18  C   -0.032997   0.417330   0.409938
    19  H    0.578798   0.006787  -0.008988
    20  H    0.006787   0.552540  -0.032633
    21  H   -0.008988  -0.032633   0.551010
 Mulliken charges:
               1
     1  C   -0.055393
     2  C   -0.119473
     3  C   -0.011424
     4  C    0.081411
     5  H    0.096489
     6  C   -0.338800
     7  O   -0.330019
     8  H    0.109246
     9  H    0.084908
    10  C   -0.039157
    11  C   -0.142417
    12  H    0.077465
    13  H    0.109850
    14  H    0.117961
    15  H    0.117146
    16  H    0.104545
    17  H    0.075471
    18  C   -0.261299
    19  H    0.101673
    20  H    0.109903
    21  H    0.111913
 Sum of Mulliken charges =  -0.00000
 Mulliken charges with hydrogens summed into heavy atoms:
               1
     1  C   -0.055393
     2  C   -0.022983
     3  C    0.182730
     4  C    0.158876
     6  C    0.006157
     7  O   -0.330019
    10  C    0.140859
    11  C   -0.040744
    18  C   -0.039483
 Electronic spatial extent (au):  <R**2>=           1502.6710
 Charge=             -0.0000 electrons
 Dipole moment (field-independent basis, Debye):
    X=             -0.5034    Y=              0.1769    Z=              1.3526  Tot=              1.4541
 Quadrupole moment (field-independent basis, Debye-Ang):
   XX=            -54.6882   YY=            -56.5312   ZZ=            -57.5590
   XY=             -0.5039   XZ=              2.8509   YZ=             -1.7234
 Traceless Quadrupole moment (field-independent basis, Debye-Ang):
   XX=              1.5713   YY=             -0.2718   ZZ=             -1.2995
   XY=             -0.5039   XZ=              2.8509   YZ=             -1.7234
 Octapole moment (field-independent basis, Debye-Ang**2):
  XXX=             79.7335  YYY=            -61.1054  ZZZ=             80.0353  XYY=             24.6025
  XXY=            -15.5948  XXZ=             28.4131  XZZ=             13.6792  YZZ=            -15.3036
  YYZ=             19.7334  XYZ=              1.2589
 Hexadecapole moment (field-independent basis, Debye-Ang**3):
 XXXX=           -940.2487 YYYY=           -264.3964 ZZZZ=           -886.3837 XXXY=            128.4879
 XXXZ=           -170.3845 YYYX=            154.0143 YYYZ=             66.4649 ZZZX=           -112.6069
 ZZZY=             61.0398 XXYY=           -183.8004 XXZZ=           -310.1935 YYZZ=           -182.3522
 XXYZ=             21.1765 YYXZ=            -42.2114 ZZXY=             48.5781
 N-N= 4.445741964837D+02 E-N=-1.789841636115D+03  KE= 3.853669702848D+02
 1\1\GINC-BHC0021\SP\RB3LYP\def2TZVP\C8H12O1\DHANAWAY\10-Jun-2022\0\\# 
 sp B3LYP/Def2TZVP NoSymm\\int_initalOpt_zmat_AlignedSp\\0,1\C\C,1,1.32
 77967\C,1,1.51626735,2,126.50411105\C,1,1.52659723,2,127.35314367,3,-1
 78.85273984,0\H,2,1.08599848,1,118.75147835,3,178.67022655,0\C,2,1.499
 24024,1,125.78011156,5,-179.96342913,0\O,3,1.42565496,1,106.19339913,2
 ,177.6119981,0\H,3,1.09206343,1,113.53866994,7,-118.25622022,0\H,3,1.0
 9915376,1,110.97614188,7,119.80685602,0\C,4,1.53265426,1,101.14614034,
 2,160.51472333,0\C,4,1.49899651,1,115.93038352,10,-128.04162068,0\H,4,
 1.09959128,1,107.04802775,10,111.86101119,0\H,6,1.09003407,2,112.56648
 097,1,1.22611204,0\H,6,1.09441424,2,110.97916739,13,-120.85815634,0\H,
 6,1.09419818,2,110.93572759,13,120.90688587,0\H,10,1.08929483,4,114.00
 939474,1,152.23322926,0\H,10,1.09849121,4,110.66494724,16,123.22075467
 ,0\C,11,1.32762192,4,126.55847005,1,127.6128551,0\H,11,1.08618506,4,11
 5.12803812,18,178.32524033,0\H,18,1.08303296,11,122.69596639,4,-0.9114
 9344,0\H,18,1.08257394,11,120.97623297,20,179.94042525,0\\Version=ES64
 L-G16RevA.03\HF=-387.3914238\RMSD=7.251e-09\Dipole=-0.1980693,0.069612
 2,0.5321542\Quadrupole=1.1682173,-0.2020507,-0.9661666,-0.3746257,2.11
 95795,-1.2812977\PG=C01 [X(C8H12O1)]\\@


 AND ALL THIS SCIENCE I DON'T UNDERSTAND
 IT'S JUST MY JOB FIVE DAYS A WEEK

                           -- ELTON JOHN, "ROCKET MAN"
 Job cpu time:       0 days  0 hours 16 minutes  8.2 seconds.
 Elapsed time:       0 days  0 hours  1 minutes 20.9 seconds.
 File lengths (MBytes):  RWF=     71 Int=      0 D2E=      0 Chk=     32 Scr=      1
 Normal termination of Gaussian 16 at Fri Jun 10 11:26:27 2022.
