 Entering Gaussian System, Link 0=g16
 Input=ts_zmat_field_N25.gjf
 Output=ts_zmat_field_N25.out
 Initial command:
 /software/gaussian/g16-a03/l1.exe "/local_scratch/11171962/Gau-438.inp" -scrdir="/local_scratch/11171962/"
 Entering Link 1 = /software/gaussian/g16-a03/l1.exe PID=       439.
  
 Copyright (c) 1988,1990,1992,1993,1995,1998,2003,2009,2016,
            Gaussian, Inc.  All Rights Reserved.
  
 This is part of the Gaussian(R) 16 program.  It is based on
 the Gaussian(R) 09 system (copyright 2009, Gaussian, Inc.),
 the Gaussian(R) 03 system (copyright 2003, Gaussian, Inc.),
 the Gaussian(R) 98 system (copyright 1998, Gaussian, Inc.),
 the Gaussian(R) 94 system (copyright 1995, Gaussian, Inc.),
 the Gaussian 92(TM) system (copyright 1992, Gaussian, Inc.),
 the Gaussian 90(TM) system (copyright 1990, Gaussian, Inc.),
 the Gaussian 88(TM) system (copyright 1988, Gaussian, Inc.),
 the Gaussian 86(TM) system (copyright 1986, Carnegie Mellon
 University), and the Gaussian 82(TM) system (copyright 1983,
 Carnegie Mellon University). Gaussian is a federally registered
 trademark of Gaussian, Inc.
  
 This software contains proprietary and confidential information,
 including trade secrets, belonging to Gaussian, Inc.
  
 This software is provided under written license and may be
 used, copied, transmitted, or stored only in accord with that
 written license.
  
 The following legend is applicable only to US Government
 contracts under FAR:
  
                    RESTRICTED RIGHTS LEGEND
  
 Use, reproduction and disclosure by the US Government is
 subject to restrictions as set forth in subparagraphs (a)
 and (c) of the Commercial Computer Software - Restricted
 Rights clause in FAR 52.227-19.
  
 Gaussian, Inc.
 340 Quinnipiac St., Bldg. 40, Wallingford CT 06492
  
  
 ---------------------------------------------------------------
 Warning -- This program may not be used in any manner that
 competes with the business of Gaussian, Inc. or will provide
 assistance to any competitor of Gaussian, Inc.  The licensee
 of this program is prohibited from giving any competitor of
 Gaussian, Inc. access to this program.  By using this program,
 the user acknowledges that Gaussian, Inc. is engaged in the
 business of creating and licensing software in the field of
 computational chemistry and represents and warrants to the
 licensee that it is not a competitor of Gaussian, Inc. and that
 it will not use this program in any manner prohibited above.
 ---------------------------------------------------------------
  

 Cite this work as:
 Gaussian 16, Revision A.03,
 M. J. Frisch, G. W. Trucks, H. B. Schlegel, G. E. Scuseria, 
 M. A. Robb, J. R. Cheeseman, G. Scalmani, V. Barone, 
 G. A. Petersson, H. Nakatsuji, X. Li, M. Caricato, A. V. Marenich, 
 J. Bloino, B. G. Janesko, R. Gomperts, B. Mennucci, H. P. Hratchian, 
 J. V. Ortiz, A. F. Izmaylov, J. L. Sonnenberg, D. Williams-Young, 
 F. Ding, F. Lipparini, F. Egidi, J. Goings, B. Peng, A. Petrone, 
 T. Henderson, D. Ranasinghe, V. G. Zakrzewski, J. Gao, N. Rega, 
 G. Zheng, W. Liang, M. Hada, M. Ehara, K. Toyota, R. Fukuda, 
 J. Hasegawa, M. Ishida, T. Nakajima, Y. Honda, O. Kitao, H. Nakai, 
 T. Vreven, K. Throssell, J. A. Montgomery, Jr., J. E. Peralta, 
 F. Ogliaro, M. J. Bearpark, J. J. Heyd, E. N. Brothers, K. N. Kudin, 
 V. N. Staroverov, T. A. Keith, R. Kobayashi, J. Normand, 
 K. Raghavachari, A. P. Rendell, J. C. Burant, S. S. Iyengar, 
 J. Tomasi, M. Cossi, J. M. Millam, M. Klene, C. Adamo, R. Cammi, 
 J. W. Ochterski, R. L. Martin, K. Morokuma, O. Farkas, 
 J. B. Foresman, and D. J. Fox, Gaussian, Inc., Wallingford CT, 2016.
 
 ******************************************
 Gaussian 16:  ES64L-G16RevA.03 25-Dec-2016
                10-Jun-2022 
 ******************************************
 %nprocshared=12
 Will use up to   12 processors via shared memory.
 %chk=checkpoint.chk
 %mem=12GB
 ----------------------------------------------------------------------
 # Opt=(TS, CalcFC, noeigentest, Z-matrix, MaxStep=10) Field=read NoSym
 m B3LYP/Def2TZVP freq=noraman pop=none
 ----------------------------------------------------------------------
 1/5=1,8=10,10=4,11=1,18=40,26=3,38=1/1,3;
 2/12=2,15=1,17=6,18=5,29=3,40=1/2;
 3/5=44,7=101,11=2,14=-6,25=1,30=1,71=2,74=-5,140=1/1,2,3;
 4//1;
 5/5=2,38=5/2;
 8/6=4,10=90,11=11/1;
 11/6=1,8=1,9=11,15=111,16=1,31=1/1,2,10;
 10/6=1,13=1,31=1/2;
 7/10=1,18=20,25=1,30=1/1,2,3,16;
 1/5=1,8=10,10=4,11=1,18=40,26=3/3(2);
 2/15=1,29=3/2;
 99//99;
 2/15=1,29=3/2;
 3/5=44,7=101,11=2,14=-2,25=1,30=1,71=1,74=-5/1,2,3;
 4/5=5,16=3,69=1/1;
 5/5=2,38=5/2;
 7/30=1/1,2,3,16;
 1/5=1,8=10,11=1,18=40,26=3/3(-5);
 2/15=1,29=3/2;
 99/9=1/99;
 -----------------
 ts_zmat_initalOpt
 -----------------
 Symbolic Z-matrix:
 Charge =  0 Multiplicity = 1
 C
 C                    1    R2
 C                    1    R3       2    A3
 C                    2    R4       1    A4       3    D4       0
 O                    3    R5       1    A5       2    D5       0
 H                    3    R6       1    A6       5    D6       0
 H                    3    R7       1    A7       5    D7       0
 H                    4    R8       2    A8       1    D8       0
 H                    4    R9       2    A9       8    D9       0
 H                    4    R10      2    A10      8    D10      0
 C                    5    R11      3    A11      1    D11      0
 C                    11   R12      5    A12      3    D12      0
 H                    11   R13      5    A13      12   D13      0
 H                    11   R14      5    A14      12   D14      0
 C                    12   R15      11   A15      5    D15      0
 H                    12   R16      11   A16      15   D16      0
 C                    15   R17      12   A17      11   D17      0
 H                    15   R18      12   A18      17   D18      0
 H                    17   R19      15   A19      12   D19      0
 H                    17   R20      15   A20      19   D20      0
 H                    17   R21      15   A21      19   D21      0
       Variables:
  R2                    1.24932                  
  R3                    1.46792                  
  R4                    1.4831                   
  R5                    1.43347                  
  R6                    1.09584                  
  R7                    1.09482                  
  R8                    1.09215                  
  R9                    1.09277                  
  R10                   1.09284                  
  R11                   1.43422                  
  R12                   1.49891                  
  R13                   1.09287                  
  R14                   1.09488                  
  R15                   1.3793                   
  R16                   1.08844                  
  R17                   1.40895                  
  R18                   1.08616                  
  R19                   1.33997                  
  R20                   1.08626                  
  R21                   1.08528                  
  A3                  153.08873                  
  A4                  146.20989                  
  A5                  110.65931                  
  A6                  111.57692                  
  A7                  109.90137                  
  A8                  111.74768                  
  A9                  110.9281                   
  A10                 110.62195                  
  A11                 112.65145                  
  A12                 109.43257                  
  A13                 104.84936                  
  A14                 110.89326                  
  A15                 129.62783                  
  A16                 111.38959                  
  A17                 124.14998                  
  A18                 115.66852                  
  A19                  94.35546                  
  A20                 119.46784                  
  A21                 117.6781                   
  D4                  -23.29377                  
  D5                 -114.64186                  
  D6                 -121.88088                  
  D7                  118.30225                  
  D8                    2.06209                  
  D9                 -120.83328                  
  D10                 120.80071                  
  D11                 -14.14424                  
  D12                 -35.40934                  
  D13                -119.08782                  
  D14                 124.29216                  
  D15                 146.13262                  
  D16                 156.49386                  
  D17                 -41.09774                  
  D18                -156.05305                  
  D19                 -60.29725                  
  D20                 101.20729                  
  D21                -115.04054                  
 

 GradGradGradGradGradGradGradGradGradGradGradGradGradGradGradGradGradGrad
 Berny optimization.
 Initialization pass.
                       ----------------------------
                       !    Initial Parameters    !
                       ! (Angstroms and Degrees)  !
 ----------------------                            ----------------------
 !      Name          Value   Derivative information (Atomic Units)     !
 ------------------------------------------------------------------------
 !       R2          1.2493   calculate D2E/DX2 analytically            !
 !       R3          1.4679   calculate D2E/DX2 analytically            !
 !       R4          1.4831   calculate D2E/DX2 analytically            !
 !       R5          1.4335   calculate D2E/DX2 analytically            !
 !       R6          1.0958   calculate D2E/DX2 analytically            !
 !       R7          1.0948   calculate D2E/DX2 analytically            !
 !       R8          1.0921   calculate D2E/DX2 analytically            !
 !       R9          1.0928   calculate D2E/DX2 analytically            !
 !       R10         1.0928   calculate D2E/DX2 analytically            !
 !       R11         1.4342   calculate D2E/DX2 analytically            !
 !       R12         1.4989   calculate D2E/DX2 analytically            !
 !       R13         1.0929   calculate D2E/DX2 analytically            !
 !       R14         1.0949   calculate D2E/DX2 analytically            !
 !       R15         1.3793   calculate D2E/DX2 analytically            !
 !       R16         1.0884   calculate D2E/DX2 analytically            !
 !       R17         1.409    calculate D2E/DX2 analytically            !
 !       R18         1.0862   calculate D2E/DX2 analytically            !
 !       R19         1.34     calculate D2E/DX2 analytically            !
 !       R20         1.0863   calculate D2E/DX2 analytically            !
 !       R21         1.0853   calculate D2E/DX2 analytically            !
 !       A3        153.0887   calculate D2E/DX2 analytically            !
 !       A4        146.2099   calculate D2E/DX2 analytically            !
 !       A5        110.6593   calculate D2E/DX2 analytically            !
 !       A6        111.5769   calculate D2E/DX2 analytically            !
 !       A7        109.9014   calculate D2E/DX2 analytically            !
 !       A8        111.7477   calculate D2E/DX2 analytically            !
 !       A9        110.9281   calculate D2E/DX2 analytically            !
 !       A10       110.6219   calculate D2E/DX2 analytically            !
 !       A11       112.6514   calculate D2E/DX2 analytically            !
 !       A12       109.4326   calculate D2E/DX2 analytically            !
 !       A13       104.8494   calculate D2E/DX2 analytically            !
 !       A14       110.8933   calculate D2E/DX2 analytically            !
 !       A15       129.6278   calculate D2E/DX2 analytically            !
 !       A16       111.3896   calculate D2E/DX2 analytically            !
 !       A17       124.15     calculate D2E/DX2 analytically            !
 !       A18       115.6685   calculate D2E/DX2 analytically            !
 !       A19        94.3555   calculate D2E/DX2 analytically            !
 !       A20       119.4678   calculate D2E/DX2 analytically            !
 !       A21       117.6781   calculate D2E/DX2 analytically            !
 !       D4        -23.2938   calculate D2E/DX2 analytically            !
 !       D5       -114.6419   calculate D2E/DX2 analytically            !
 !       D6       -121.8809   calculate D2E/DX2 analytically            !
 !       D7        118.3023   calculate D2E/DX2 analytically            !
 !       D8          2.0621   calculate D2E/DX2 analytically            !
 !       D9       -120.8333   calculate D2E/DX2 analytically            !
 !       D10       120.8007   calculate D2E/DX2 analytically            !
 !       D11       -14.1442   calculate D2E/DX2 analytically            !
 !       D12       -35.4093   calculate D2E/DX2 analytically            !
 !       D13      -119.0878   calculate D2E/DX2 analytically            !
 !       D14       124.2922   calculate D2E/DX2 analytically            !
 !       D15       146.1326   calculate D2E/DX2 analytically            !
 !       D16       156.4939   calculate D2E/DX2 analytically            !
 !       D17       -41.0977   calculate D2E/DX2 analytically            !
 !       D18      -156.0531   calculate D2E/DX2 analytically            !
 !       D19       -60.2973   calculate D2E/DX2 analytically            !
 !       D20       101.2073   calculate D2E/DX2 analytically            !
 !       D21      -115.0405   calculate D2E/DX2 analytically            !
 ------------------------------------------------------------------------
 Trust Radius=1.00D-01 FncErr=1.00D-07 GrdErr=1.00D-06 EigMax=2.50D+02 EigMin=1.00D-04
 Number of steps in this run=     67 maximum allowed number of steps=    114.
 Search for a saddle point of order  1.
 GradGradGradGradGradGradGradGradGradGradGradGradGradGradGradGradGradGrad

 ---------------------------------------------------------------------------------------------------
                            Z-MATRIX (ANGSTROMS AND DEGREES)
   CD    Cent   Atom    N1       Length/X        N2       Alpha/Y        N3        Beta/Z          J
 ---------------------------------------------------------------------------------------------------
      1      1  C 
      2      2  C        1   1.249316(     1)
      3      3  C        1   1.467916(     2)      2  153.089(    21)
      4      4  C        2   1.483100(     3)      1  146.210(    22)      3  -23.294(    40)      0
      5      5  O        3   1.433471(     4)      1  110.659(    23)      2 -114.642(    41)      0
      6      6  H        3   1.095839(     5)      1  111.577(    24)      5 -121.881(    42)      0
      7      7  H        3   1.094816(     6)      1  109.901(    25)      5  118.302(    43)      0
      8      8  H        4   1.092148(     7)      2  111.748(    26)      1    2.062(    44)      0
      9      9  H        4   1.092769(     8)      2  110.928(    27)      8 -120.833(    45)      0
     10     10  H        4   1.092840(     9)      2  110.622(    28)      8  120.801(    46)      0
     11     11  C        5   1.434219(    10)      3  112.651(    29)      1  -14.144(    47)      0
     12     12  C       11   1.498910(    11)      5  109.433(    30)      3  -35.409(    48)      0
     13     13  H       11   1.092865(    12)      5  104.849(    31)     12 -119.088(    49)      0
     14     14  H       11   1.094884(    13)      5  110.893(    32)     12  124.292(    50)      0
     15     15  C       12   1.379296(    14)     11  129.628(    33)      5  146.133(    51)      0
     16     16  H       12   1.088436(    15)     11  111.390(    34)     15  156.494(    52)      0
     17     17  C       15   1.408950(    16)     12  124.150(    35)     11  -41.098(    53)      0
     18     18  H       15   1.086164(    17)     12  115.669(    36)     17 -156.053(    54)      0
     19     19  H       17   1.339966(    18)     15   94.355(    37)     12  -60.297(    55)      0
     20     20  H       17   1.086256(    19)     15  119.468(    38)     19  101.207(    56)      0
     21     21  H       17   1.085285(    20)     15  117.678(    39)     19 -115.041(    57)      0
 ---------------------------------------------------------------------------------------------------
                         Z-Matrix orientation:                         
 ---------------------------------------------------------------------
 Center     Atomic      Atomic             Coordinates (Angstroms)
 Number     Number       Type             X           Y           Z
 ---------------------------------------------------------------------
      1          6           0        0.000000    0.000000    0.000000
      2          6           0        0.000000    0.000000    1.249316
      3          6           0        0.664393    0.000000   -1.308953
      4          6           0        0.757597   -0.326175    2.481892
      5          8           0        0.394615    1.219142   -2.013049
      6          1           0        0.345552   -0.849993   -1.922725
      7          1           0        1.749153   -0.065722   -1.176291
      8          1           0        1.752581   -0.714814    2.254396
      9          1           0        0.228190   -1.072316    3.079508
     10          1           0        0.870293    0.560685    3.110443
     11          6           0       -0.683393    1.965635   -1.431987
     12          6           0       -1.717322    1.018408   -0.902380
     13          1           0       -1.085094    2.563448   -2.253942
     14          1           0       -0.313920    2.648443   -0.659955
     15          6           0       -2.536362    1.137272    0.201025
     16          1           0       -2.086778    0.356714   -1.683633
     17          6           0       -2.117763    1.648746    1.445336
     18          1           0       -3.394431    0.471731    0.223914
     19          1           0       -1.178554    0.711047    1.630045
     20          1           0       -1.462502    2.514633    1.474048
     21          1           0       -2.828147    1.623680    2.265440
 ---------------------------------------------------------------------
                    Distance matrix (angstroms):
                    1          2          3          4          5
     1  C    0.000000
     2  C    1.249316   0.000000
     3  C    1.467916   2.643134   0.000000
     4  C    2.615364   1.483100   3.805993   0.000000
     5  O    2.386293   3.505004   1.433471   4.766996   0.000000
     6  H    2.130438   3.302081   1.095839   4.454752   2.071687
     7  H    2.108914   2.991225   1.094816   3.799121   2.045926
     8  H    2.943603   2.143055   3.793753   1.092148   4.878047
     9  H    3.268838   2.133433   4.538582   1.092769   5.586825
    10  H    3.278206   2.129688   4.459577   1.092840   5.187485
    11  C    2.526130   3.394132   2.386501   4.758917   1.434219
    12  C    2.191037   2.935328   2.622027   4.403002   2.394610
    13  H    3.581752   4.474540   3.244222   5.845815   2.013635
    14  H    2.747423   3.279955   2.896989   4.457320   2.091838
    15  C    2.786921   2.970763   3.717291   4.265465   3.674159
    16  H    2.704904   3.617192   2.799388   5.090030   2.647566
    17  C    3.048324   2.691042   4.247925   3.639019   4.296164
    18  H    3.434361   3.577170   4.364203   4.793168   4.463126
    19  H    2.133453   1.428122   3.541151   2.355877   4.000644
    20  H    3.261152   2.917670   4.311862   3.743632   4.157767
    21  H    3.970764   3.415737   5.254565   4.087340   5.371713
                    6          7          8          9         10
     6  H    0.000000
     7  H    1.772665   0.000000
     8  H    4.409800   3.491553   0.000000
     9  H    5.008547   4.630161   1.769855   0.000000
    10  H    5.253394   4.420506   1.771482   1.754978   0.000000
    11  C    3.037649   3.179476   5.167997   5.514864   5.002149
    12  C    2.964368   3.642364   5.000952   4.900162   4.796667
    13  H    3.715916   4.013330   6.254959   6.587047   6.050721
    14  H    3.777373   3.448124   4.906665   5.302972   4.469562
    15  C    4.094504   4.659381   5.103095   4.561873   4.516908
    16  H    2.725718   3.892328   5.603295   5.485318   5.636402
    17  C    4.863687   4.976481   4.606577   3.946922   3.589559
    18  H    4.510265   5.357788   5.658841   4.864349   5.150518
    19  H    4.169163   4.129208   3.318802   2.694487   2.532185
    20  H    5.111539   4.898700   4.623314   4.278101   3.455088
    21  H    5.807938   5.970868   5.143126   4.155995   3.939853
                   11         12         13         14         15
    11  C    0.000000
    12  C    1.498910   0.000000
    13  H    1.092865   2.147925   0.000000
    14  H    1.094884   2.164560   1.772775   0.000000
    15  C    2.605073   1.379296   3.188577   2.822086   0.000000
    16  H    2.149753   1.088436   2.489638   3.072940   2.088858
    17  C    3.230608   2.463625   3.948132   2.947116   1.408950
    18  H    3.510482   2.092866   3.980966   3.874125   1.086164
    19  H    3.345925   2.607282   4.304123   3.121729   2.016781
    20  H    3.058341   2.819757   3.747363   2.427162   2.161223
    21  H    4.288107   3.411065   4.934188   3.991166   2.140920
                   16         17         18         19         20
    16  H    0.000000
    17  C    3.385373   0.000000
    18  H    2.315582   2.122997   0.000000
    19  H    3.454110   1.339966   2.635258   0.000000
    20  H    3.875214   1.086256   3.077114   1.832453   0.000000
    21  H    4.213075   1.085285   2.411533   1.989417   1.812480
                   21
    21  H    0.000000
 Symmetry turned off by external request.
 Stoichiometry    C8H12O
 Framework group  C1[X(C8H12O)]
 Deg. of freedom    57
 Full point group                 C1      NOp   1
 Rotational constants (GHZ):           1.9776427           1.5037763           0.9634887
 Standard basis: def2TZVP (5D, 7F)
 The following finite field(s) will be applied:
 An electric field of             -0.0004  0.0020 -0.0015
   351 basis functions,   555 primitive gaussians,   396 cartesian basis functions
    34 alpha electrons       34 beta electrons
       nuclear repulsion energy       445.2971036084 Hartrees.
 NAtoms=   21 NActive=   21 NUniq=   21 SFac= 1.00D+00 NAtFMM=   60 NAOKFM=F Big=F
 Integral buffers will be    131072 words long.
 Raffenetti 2 integral format.
 Two-electron integral symmetry is turned off.
 One-electron integrals computed using PRISM.
   1 Symmetry operations used in ECPInt.
 ECPInt:  NShTT=   10878 NPrTT=   32112 LenC2=   10638 LenP2D=   24940.
 LDataN:  DoStor=T MaxTD1= 6 Len=  172
 NBasis=   351 RedAO= T EigKep=  2.24D-05  NBF=   351
 NBsUse=   351 1.00D-06 EigRej= -1.00D+00 NBFU=   351
 The nuclear repulsion energy is now       445.5138247043 hartrees.
 ExpMin= 9.52D-02 ExpMax= 2.70D+04 ExpMxC= 9.22D+02 IAcc=3 IRadAn=         5 AccDes= 0.00D+00
 Harris functional with IExCor=  402 and IRadAn=       5 diagonalized for initial guess.
 HarFok:  IExCor=  402 AccDes= 0.00D+00 IRadAn=         5 IDoV= 1 UseB2=F ITyADJ=14
 ICtDFT=  3500011 ScaDFX=  1.000000  1.000000  1.000000  1.000000
 FoFCou: FMM=F IPFlag=           0 FMFlag=      100000 FMFlg1=           0
         NFxFlg=           0 DoJE=T BraDBF=F KetDBF=T FulRan=T
         wScrn=  0.000000 ICntrl=       500 IOpCl=  0 I1Cent=   200000004 NGrid=           0
         NMat0=    1 NMatS0=      1 NMatT0=    0 NMatD0=    1 NMtDS0=    0 NMtDT0=    0
 Symmetry not used in FoFCou.
 Requested convergence on RMS density matrix=1.00D-08 within 128 cycles.
 Requested convergence on MAX density matrix=1.00D-06.
 Requested convergence on             energy=1.00D-06.
 No special actions if energy rises.
 Integral accuracy reduced to 1.0D-05 until final iterations.
 Initial convergence to 1.0D-05 achieved.  Increase integral accuracy.
 SCF Done:  E(RB3LYP) =  -387.288869820     A.U. after   14 cycles
            NFock= 14  Conv=0.86D-08     -V/T= 2.0053
 DoSCS=F DFT=T ScalE2(SS,OS)=  1.000000  1.000000
 Range of M.O.s used for correlation:     1   351
 NBasis=   351 NAE=    34 NBE=    34 NFC=     0 NFV=     0
 NROrb=    351 NOA=    34 NOB=    34 NVA=   317 NVB=   317

 **** Warning!!: The largest alpha MO coefficient is  0.34459920D+02

   1 Symmetry operations used in ECPInt.
 ECPInt:  NShTT=   10878 NPrTT=   32112 LenC2=   10638 LenP2D=   24940.
 LDataN:  DoStor=T MaxTD1= 7 Len=  274
 Symmetrizing basis deriv contribution to polar:
 IMax=3 JMax=2 DiffMx= 0.00D+00
 G2DrvN: will do    22 centers at a time, making    1 passes.
 Calling FoFCou, ICntrl=  3107 FMM=F I1Cent=   0 AccDes= 0.00D+00.
 End of G2Drv F.D. properties file   721 does not exist.
 End of G2Drv F.D. properties file   722 does not exist.
 End of G2Drv F.D. properties file   788 does not exist.
          IDoAtm=111111111111111111111
          Differentiating once with respect to nuclear coordinates.
 CalDSu exits because no D1Ps are significant.
          There are    66 degrees of freedom in the 1st order CPHF.  IDoFFX=6 NUNeed=     0.
     60 vectors produced by pass  0 Test12= 1.63D-14 1.52D-09 XBig12= 2.01D-01 1.60D-01.
 AX will form    60 AO Fock derivatives at one time.
     60 vectors produced by pass  1 Test12= 1.63D-14 1.52D-09 XBig12= 2.58D-02 4.23D-02.
     60 vectors produced by pass  2 Test12= 1.63D-14 1.52D-09 XBig12= 3.30D-04 2.27D-03.
     60 vectors produced by pass  3 Test12= 1.63D-14 1.52D-09 XBig12= 1.42D-06 1.35D-04.
     60 vectors produced by pass  4 Test12= 1.63D-14 1.52D-09 XBig12= 3.54D-09 5.59D-06.
     54 vectors produced by pass  5 Test12= 1.63D-14 1.52D-09 XBig12= 6.86D-12 2.77D-07.
     12 vectors produced by pass  6 Test12= 1.63D-14 1.52D-09 XBig12= 8.00D-15 8.82D-09.
 InvSVY:  IOpt=1 It=  1 EMax= 4.44D-16
 Solved reduced A of dimension   366 with    66 vectors.
 End of Minotr F.D. properties file   721 does not exist.
 End of Minotr F.D. properties file   722 does not exist.
 End of Minotr F.D. properties file   788 does not exist.
   1 Symmetry operations used in ECPInt.
 ECPInt:  NShTT=   10878 NPrTT=   32112 LenC2=   10638 LenP2D=   24940.
 LDataN:  DoStor=T MaxTD1= 8 Len=  415
 Calling FoFJK, ICntrl=    100147 FMM=F ISym2X=0 I1Cent= 0 IOpClX= 0 NMat=1 NMatS=1 NMatT=0.
 -------------------------------------------------------------------
 Center     Atomic                   Forces (Hartrees/Bohr)
 Number     Number              X              Y              Z
 -------------------------------------------------------------------
      1        6           0.000109199    0.000320931    0.000238642
      2        6           0.000621167    0.000198419   -0.000631017
      3        6           0.000069192   -0.001475489    0.000903304
      4        6          -0.000097788   -0.000241346    0.000610680
      5        8          -0.000245796    0.001737833   -0.000980206
      6        1           0.000068794    0.000149053    0.000050044
      7        1          -0.000151847   -0.000046499    0.000037386
      8        1          -0.000365517   -0.000001291   -0.000123052
      9        1           0.000159549    0.000158329   -0.000186142
     10        1          -0.000101909   -0.000077501   -0.000004866
     11        6           0.000229936   -0.001076227    0.000333144
     12        6          -0.000249757    0.000099146    0.000153273
     13        1          -0.000066333    0.000222144   -0.000422510
     14        1          -0.000007570    0.000076814    0.000208577
     15        6          -0.000560422    0.000544127   -0.000341089
     16        1           0.000062885   -0.000075878   -0.000008852
     17        6          -0.000125453   -0.000060955    0.000064894
     18        1           0.000202619   -0.000148478    0.000104512
     19        1           0.000090446   -0.000091597   -0.000134652
     20        1           0.000182852   -0.000033858    0.000061150
     21        1           0.000175752   -0.000177677    0.000066778
 -------------------------------------------------------------------
 Cartesian Forces:  Max     0.001737833 RMS     0.000426409
 -----------------------------------------------------------------------------------------------
                       Internal Coordinate Forces (Hartree/Bohr or radian)
  Cent   Atom   N1       Length/X         N2         Alpha/Y        N3         Beta/Z          J
 -----------------------------------------------------------------------------------------------
      1  C 
      2  C        1  -0.000334(     1)
      3  C        1  -0.000232(     2)      2   0.000930(    21)
      4  C        2   0.000075(     3)      1   0.000838(    22)      3  -0.000532(    40)     0
      5  O        3   0.001362(     4)      1  -0.001813(    23)      2  -0.000208(    41)     0
      6  H        3  -0.000164(     5)      1   0.000104(    24)      5   0.000023(    42)     0
      7  H        3  -0.000143(     6)      1  -0.000117(    25)      5   0.000105(    43)     0
      8  H        4  -0.000307(     7)      2  -0.000389(    26)      1   0.000032(    44)     0
      9  H        4  -0.000287(     8)      2  -0.000012(    27)      8   0.000099(    45)     0
     10  H        4  -0.000076(     9)      2  -0.000027(    28)      8   0.000197(    46)     0
     11  C        5  -0.000293(    10)      3  -0.002169(    29)      1  -0.000474(    47)     0
     12  C       11   0.000106(    11)      5  -0.000020(    30)      3  -0.001022(    48)     0
     13  H       11   0.000464(    12)      5  -0.000266(    31)     12  -0.000052(    49)     0
     14  H       11   0.000192(    13)      5   0.000136(    32)     12  -0.000174(    50)     0
     15  C       12  -0.000120(    14)     11   0.000292(    33)      5  -0.001525(    51)     0
     16  H       12   0.000031(    15)     11  -0.000022(    34)     15   0.000179(    52)     0
     17  C       15   0.000015(    16)     12  -0.000980(    35)     11  -0.000886(    53)     0
     18  H       15  -0.000067(    17)     12  -0.000047(    36)     17   0.000486(    54)     0
     19  H       17   0.000109(    18)     15  -0.000339(    37)     12   0.000312(    55)     0
     20  H       17   0.000085(    19)     15   0.000128(    38)     19  -0.000295(    56)     0
     21  H       17  -0.000060(    20)     15   0.000173(    39)     19   0.000430(    57)     0
 -----------------------------------------------------------------------------------------------
 Internal  Forces:  Max     0.002168912 RMS     0.000579165

 GradGradGradGradGradGradGradGradGradGradGradGradGradGradGradGradGradGrad
 Berny optimization.
 Search for a saddle point.
 Step number   1 out of a maximum of   67
 All quantities printed in internal units (Hartrees-Bohrs-Radians)
 Swapping is turned off.
 Second derivative matrix not updated -- analytic derivatives used.
 ITU=  0
     Eigenvalues ---   -0.31610   0.00431   0.00672   0.01201   0.01465
     Eigenvalues ---    0.05217   0.05661   0.05796   0.06153   0.07389
     Eigenvalues ---    0.09211   0.09449   0.10525   0.11803   0.11984
     Eigenvalues ---    0.12628   0.13223   0.14670   0.15677   0.16917
     Eigenvalues ---    0.17891   0.20990   0.21506   0.22162   0.22475
     Eigenvalues ---    0.23401   0.24092   0.24757   0.26840   0.27539
     Eigenvalues ---    0.28273   0.30211   0.30750   0.31247   0.31809
     Eigenvalues ---    0.32297   0.32960   0.33800   0.34320   0.34413
     Eigenvalues ---    0.34577   0.34649   0.34768   0.34907   0.35911
     Eigenvalues ---    0.36619   0.36751   0.37448   0.41752   0.43280
     Eigenvalues ---    0.46876   0.48092   0.65429   0.79799   1.33776
     Eigenvalues ---    2.58044   4.96460
 Eigenvectors required to have negative eigenvalues:
                          R19       A4        A3        D12       R17
   1                    0.56808  -0.36087  -0.35998   0.24557  -0.23961
                          R2        A5        A11       A19       R15
   1                    0.19866  -0.18379  -0.17064  -0.16804   0.16726
 RFO step:  Lambda0=1.161466140D-07 Lambda=-5.83581807D-05.
 Linear search not attempted -- option 19 set.
 Variable       Old X    -DE/DX   Delta X   Delta X   Delta X     New X
                                 (Linear)    (Quad)   (Total)
    R2        2.36087  -0.00033   0.00000  -0.00033  -0.00033   2.36053
    R3        2.77396  -0.00023   0.00000  -0.00273  -0.00273   2.77123
    R4        2.80265   0.00007   0.00000   0.00091   0.00091   2.80357
    R5        2.70887   0.00136   0.00000   0.00695   0.00695   2.71582
    R6        2.07084  -0.00016   0.00000  -0.00083  -0.00083   2.07001
    R7        2.06890  -0.00014   0.00000  -0.00074  -0.00074   2.06816
    R8        2.06386  -0.00031   0.00000  -0.00108  -0.00108   2.06278
    R9        2.06503  -0.00029   0.00000  -0.00081  -0.00081   2.06422
   R10        2.06517  -0.00008   0.00000  -0.00048  -0.00048   2.06469
   R11        2.71028  -0.00029   0.00000  -0.00075  -0.00075   2.70953
   R12        2.83253   0.00011   0.00000  -0.00096  -0.00096   2.83157
   R13        2.06522   0.00046   0.00000   0.00169   0.00169   2.06690
   R14        2.06903   0.00019   0.00000   0.00070   0.00070   2.06974
   R15        2.60649  -0.00012   0.00000   0.00037   0.00037   2.60686
   R16        2.05685   0.00003   0.00000   0.00004   0.00004   2.05689
   R17        2.66253   0.00002   0.00000  -0.00058  -0.00058   2.66195
   R18        2.05255  -0.00007   0.00000  -0.00010  -0.00010   2.05245
   R19        2.53217   0.00011   0.00000   0.00876   0.00876   2.54093
   R20        2.05273   0.00008   0.00000   0.00003   0.00003   2.05276
   R21        2.05089  -0.00006   0.00000  -0.00031  -0.00031   2.05058
    A3        2.67190   0.00093   0.00000   0.00740   0.00740   2.67930
    A4        2.55184   0.00084   0.00000   0.00389   0.00389   2.55573
    A5        1.93137  -0.00181   0.00000  -0.00066  -0.00066   1.93071
    A6        1.94738   0.00010   0.00000   0.00094   0.00094   1.94832
    A7        1.91814  -0.00012   0.00000   0.00180   0.00180   1.91995
    A8        1.95036  -0.00039   0.00000  -0.00166  -0.00166   1.94871
    A9        1.93606  -0.00001   0.00000  -0.00225  -0.00225   1.93381
   A10        1.93072  -0.00003   0.00000   0.00141   0.00141   1.93213
   A11        1.96614  -0.00217   0.00000  -0.00161  -0.00161   1.96453
   A12        1.90996  -0.00002   0.00000   0.00387   0.00387   1.91383
   A13        1.82997  -0.00027   0.00000  -0.00183  -0.00183   1.82813
   A14        1.93545   0.00014   0.00000   0.00021   0.00021   1.93566
   A15        2.26243   0.00029   0.00000  -0.00041  -0.00041   2.26202
   A16        1.94412  -0.00002   0.00000   0.00145   0.00145   1.94557
   A17        2.16683  -0.00098   0.00000   0.00021   0.00021   2.16703
   A18        2.01880  -0.00005   0.00000  -0.00105  -0.00105   2.01774
   A19        1.64681  -0.00034   0.00000  -0.00213  -0.00213   1.64468
   A20        2.08511   0.00013   0.00000   0.00231   0.00231   2.08741
   A21        2.05387   0.00017   0.00000   0.00192   0.00192   2.05579
    D4       -0.40655  -0.00053   0.00000  -0.02681  -0.02681  -0.43337
    D5       -2.00088  -0.00021   0.00000   0.00600   0.00600  -1.99488
    D6       -2.12722   0.00002   0.00000   0.00123   0.00123  -2.12599
    D7        2.06476   0.00010   0.00000  -0.00163  -0.00163   2.06313
    D8        0.03599   0.00003   0.00000   0.02425   0.02425   0.06024
    D9       -2.10894   0.00010   0.00000   0.00296   0.00296  -2.10597
   D10        2.10837   0.00020   0.00000   0.00273   0.00273   2.11110
   D11       -0.24686  -0.00047   0.00000  -0.00842  -0.00842  -0.25528
   D12       -0.61801  -0.00102   0.00000   0.00260   0.00260  -0.61541
   D13       -2.07847  -0.00005   0.00000  -0.00157  -0.00157  -2.08004
   D14        2.16931  -0.00017   0.00000   0.00018   0.00018   2.16949
   D15        2.55050  -0.00152   0.00000  -0.00293  -0.00293   2.54756
   D16        2.73133   0.00018   0.00000   0.00531   0.00531   2.73664
   D17       -0.71729  -0.00089   0.00000   0.00151   0.00151  -0.71578
   D18       -2.72364   0.00049   0.00000   0.00690   0.00690  -2.71674
   D19       -1.05239   0.00031   0.00000   0.00435   0.00435  -1.04803
   D20        1.76640  -0.00029   0.00000  -0.00571  -0.00571   1.76069
   D21       -2.00784   0.00043   0.00000   0.00459   0.00459  -2.00325
         Item               Value     Threshold  Converged?
 Maximum Force            0.002169     0.000450     NO 
 RMS     Force            0.000579     0.000300     NO 
 Maximum Displacement     0.026814     0.001800     NO 
 RMS     Displacement     0.005723     0.001200     NO 
 Predicted change in Energy=-2.917559D-05
 GradGradGradGradGradGradGradGradGradGradGradGradGradGradGradGradGradGrad

 ---------------------------------------------------------------------------------------------------
                            Z-MATRIX (ANGSTROMS AND DEGREES)
   CD    Cent   Atom    N1       Length/X        N2       Alpha/Y        N3        Beta/Z          J
 ---------------------------------------------------------------------------------------------------
      1      1  C 
      2      2  C        1   1.249139(     1)
      3      3  C        1   1.466471(     2)      2  153.512(    21)
      4      4  C        2   1.483583(     3)      1  146.433(    22)      3  -24.830(    40)      0
      5      5  O        3   1.437151(     4)      1  110.621(    23)      2 -114.298(    41)      0
      6      6  H        3   1.095400(     5)      1  111.631(    24)      5 -121.810(    42)      0
      7      7  H        3   1.094424(     6)      1  110.005(    25)      5  118.209(    43)      0
      8      8  H        4   1.091577(     7)      2  111.653(    26)      1    3.451(    44)      0
      9      9  H        4   1.092340(     8)      2  110.799(    27)      8 -120.663(    45)      0
     10     10  H        4   1.092587(     9)      2  110.703(    28)      8  120.957(    46)      0
     11     11  C        5   1.433823(    10)      3  112.559(    29)      1  -14.627(    47)      0
     12     12  C       11   1.498402(    11)      5  109.654(    30)      3  -35.260(    48)      0
     13     13  H       11   1.093757(    12)      5  104.744(    31)     12 -119.178(    49)      0
     14     14  H       11   1.095257(    13)      5  110.905(    32)     12  124.302(    50)      0
     15     15  C       12   1.379489(    14)     11  129.604(    33)      5  145.965(    51)      0
     16     16  H       12   1.088459(    15)     11  111.473(    34)     15  156.798(    52)      0
     17     17  C       15   1.408643(    16)     12  124.162(    35)     11  -41.011(    53)      0
     18     18  H       15   1.086112(    17)     12  115.608(    36)     17 -155.657(    54)      0
     19     19  H       17   1.344602(    18)     15   94.233(    37)     12  -60.048(    55)      0
     20     20  H       17   1.086274(    19)     15  119.600(    38)     19  100.880(    56)      0
     21     21  H       17   1.085121(    20)     15  117.788(    39)     19 -114.778(    57)      0
 ---------------------------------------------------------------------------------------------------
                         Z-Matrix orientation:                         
 ---------------------------------------------------------------------
 Center     Atomic      Atomic             Coordinates (Angstroms)
 Number     Number       Type             X           Y           Z
 ---------------------------------------------------------------------
      1          6           0        0.000000    0.000000    0.000000
      2          6           0        0.000000    0.000000    1.249139
      3          6           0        0.654050    0.000000   -1.312538
      4          6           0        0.744465   -0.344466    2.485316
      5          8           0        0.384418    1.225920   -2.012410
      6          1           0        0.325937   -0.845252   -1.927185
      7          1           0        1.739333   -0.070140   -1.190041
      8          1           0        1.738049   -0.736899    2.260978
      9          1           0        0.204639   -1.095320    3.066706
     10          1           0        0.855630    0.533192    3.126492
     11          6           0       -0.692531    1.968809   -1.425772
     12          6           0       -1.726943    1.023256   -0.895556
     13          1           0       -1.094918    2.570343   -2.245861
     14          1           0       -0.321802    2.649414   -0.651870
     15          6           0       -2.540445    1.140875    0.212313
     16          1           0       -2.099313    0.361784   -1.675645
     17          6           0       -2.114929    1.647499    1.455913
     18          1           0       -3.395960    0.472304    0.239620
     19          1           0       -1.170691    0.705973    1.628822
     20          1           0       -1.456433    2.510883    1.486634
     21          1           0       -2.817135    1.614751    2.282547
 ---------------------------------------------------------------------
                    Distance matrix (angstroms):
                    1          2          3          4          5
     1  C    0.000000
     2  C    1.249139   0.000000
     3  C    1.466471   2.643855   0.000000
     4  C    2.617190   1.483583   3.814515   0.000000
     5  O    2.387562   3.505476   1.437151   4.777582   0.000000
     6  H    2.129490   3.302987   1.095400   4.460507   2.073749
     7  H    2.108648   2.996631   1.094424   3.817495   2.047403
     8  H    2.945480   2.141880   3.806322   1.091577   4.893549
     9  H    3.262865   2.131936   4.536460   1.092340   5.587298
    10  H    3.285019   2.130927   4.475479   1.092587   5.206748
    11  C    2.527575   3.392781   2.387951   4.765796   1.433823
    12  C    2.198046   2.937534   2.624892   4.405544   2.397141
    13  H    3.584606   4.474431   3.246020   5.853501   2.012562
    14  H    2.747341   3.276704   2.899683   4.465667   2.091925
    15  C    2.792943   2.971610   3.719081   4.261856   3.675792
    16  H    2.710311   3.618337   2.800668   5.089151   2.651238
    17  C    3.050715   2.688854   4.248037   3.633693   4.295781
    18  H    3.437009   3.574177   4.362894   4.780521   4.464396
    19  H    2.126494   1.418829   3.532659   2.346237   3.993405
    20  H    3.261259   2.912410   4.312080   3.740900   4.157304
    21  H    3.969092   3.407580   5.251779   4.069968   5.371014
                    6          7          8          9         10
     6  H    0.000000
     7  H    1.772532   0.000000
     8  H    4.421143   3.514840   0.000000
     9  H    5.001619   4.639630   1.768900   0.000000
    10  H    5.265010   4.447178   1.772261   1.754826   0.000000
    11  C    3.034407   3.182270   5.178870   5.511457   5.018058
    12  C    2.961401   3.646547   5.006797   4.890694   4.804864
    13  H    3.713041   4.014958   6.266989   6.584019   6.067685
    14  H    3.776067   3.454545   4.918819   5.303582   4.487846
    15  C    4.091246   4.663652   5.101820   4.547924   4.516087
    16  H    2.720669   3.893272   5.606197   5.470030   5.641062
    17  C    4.859731   4.980632   4.602056   3.936763   3.585629
    18  H    4.503722   5.358116   5.648549   4.838819   5.139431
    19  H    4.158291   4.125116   3.307910   2.683971   2.525638
    20  H    5.108291   4.902977   4.620866   4.273229   3.456303
    21  H    5.801065   5.971526   5.126443   4.134067   3.920614
                   11         12         13         14         15
    11  C    0.000000
    12  C    1.498402   0.000000
    13  H    1.093757   2.148548   0.000000
    14  H    1.095257   2.162913   1.773349   0.000000
    15  C    2.604531   1.379489   3.189913   2.818666   0.000000
    16  H    2.150349   1.088459   2.492326   3.072606   2.089489
    17  C    3.229639   2.463660   3.949076   2.943109   1.408643
    18  H    3.510212   2.092316   3.984241   3.871047   1.086112
    19  H    3.339751   2.604336   4.300557   3.114343   2.017886
    20  H    3.059330   2.821531   3.750433   2.424826   2.162382
    21  H    4.288465   3.411557   4.938185   3.988485   2.141725
                   16         17         18         19         20
    16  H    0.000000
    17  C    3.385257   0.000000
    18  H    2.315545   2.121672   0.000000
    19  H    3.449682   1.344602   2.633686   0.000000
    20  H    3.877103   1.086274   3.077761   1.832911   0.000000
    21  H    4.213369   1.085121   2.411177   1.990982   1.813295
                   21
    21  H    0.000000
 Symmetry turned off by external request.
 Stoichiometry    C8H12O
 Framework group  C1[X(C8H12O)]
 Deg. of freedom    57
 Full point group                 C1      NOp   1
 Rotational constants (GHZ):           1.9811810           1.5000262           0.9623666
 Standard basis: def2TZVP (5D, 7F)
 The following finite field(s) will be applied:
 An electric field of             -0.0004  0.0020 -0.0015
   351 basis functions,   555 primitive gaussians,   396 cartesian basis functions
    34 alpha electrons       34 beta electrons
       nuclear repulsion energy       445.1774457614 Hartrees.
 NAtoms=   21 NActive=   21 NUniq=   21 SFac= 1.00D+00 NAtFMM=   60 NAOKFM=F Big=F
 Integral buffers will be    131072 words long.
 Raffenetti 2 integral format.
 Two-electron integral symmetry is turned off.
 One-electron integrals computed using PRISM.
   1 Symmetry operations used in ECPInt.
 ECPInt:  NShTT=   10878 NPrTT=   32112 LenC2=   10637 LenP2D=   24942.
 LDataN:  DoStor=T MaxTD1= 6 Len=  172
 NBasis=   351 RedAO= T EigKep=  2.20D-05  NBF=   351
 NBsUse=   351 1.00D-06 EigRej= -1.00D+00 NBFU=   351
 The nuclear repulsion energy is now       445.3934501840 hartrees.
 Initial guess from the checkpoint file:  "checkpoint.chk"
 B after Tr=    -0.016143   -0.004900   -0.000064
         Rot=    0.999997   -0.001979   -0.000949    0.001444 Ang=  -0.30 deg.
 ExpMin= 9.52D-02 ExpMax= 2.70D+04 ExpMxC= 9.22D+02 IAcc=2 IRadAn=         4 AccDes= 0.00D+00
 Harris functional with IExCor=  402 and IRadAn=       4 diagonalized for initial guess.
 HarFok:  IExCor=  402 AccDes= 0.00D+00 IRadAn=         4 IDoV= 1 UseB2=F ITyADJ=14
 ICtDFT=  3500011 ScaDFX=  1.000000  1.000000  1.000000  1.000000
 FoFCou: FMM=F IPFlag=           0 FMFlag=      100000 FMFlg1=           0
         NFxFlg=           0 DoJE=T BraDBF=F KetDBF=T FulRan=T
         wScrn=  0.000000 ICntrl=       500 IOpCl=  0 I1Cent=   200000004 NGrid=           0
         NMat0=    1 NMatS0=      1 NMatT0=    0 NMatD0=    1 NMtDS0=    0 NMtDT0=    0
 Symmetry not used in FoFCou.
 Requested convergence on RMS density matrix=1.00D-08 within 128 cycles.
 Requested convergence on MAX density matrix=1.00D-06.
 Requested convergence on             energy=1.00D-06.
 No special actions if energy rises.
 Integral accuracy reduced to 1.0D-05 until final iterations.
 Initial convergence to 1.0D-05 achieved.  Increase integral accuracy.
 SCF Done:  E(RB3LYP) =  -387.288898935     A.U. after   11 cycles
            NFock= 11  Conv=0.68D-08     -V/T= 2.0053
   1 Symmetry operations used in ECPInt.
 ECPInt:  NShTT=   10878 NPrTT=   32112 LenC2=   10637 LenP2D=   24942.
 LDataN:  DoStor=T MaxTD1= 7 Len=  274
 Calling FoFJK, ICntrl=      2127 FMM=F ISym2X=0 I1Cent= 0 IOpClX= 0 NMat=1 NMatS=1 NMatT=0.
 -------------------------------------------------------------------
 Center     Atomic                   Forces (Hartrees/Bohr)
 Number     Number              X              Y              Z
 -------------------------------------------------------------------
      1        6          -0.000131242    0.000355837    0.000006274
      2        6           0.000151096   -0.000400031   -0.000001773
      3        6          -0.000004514    0.000017800    0.000003003
      4        6           0.000001468   -0.000004904    0.000002592
      5        8           0.000001410    0.000021087   -0.000007673
      6        1          -0.000000448   -0.000000230   -0.000000258
      7        1           0.000001767    0.000000359    0.000001566
      8        1           0.000002994   -0.000000425    0.000001082
      9        1           0.000000084   -0.000000220   -0.000000065
     10        1          -0.000000478    0.000000720   -0.000002238
     11        6           0.000000389   -0.000003754   -0.000000619
     12        6          -0.000009527    0.000001579    0.000000351
     13        1          -0.000000894    0.000000794   -0.000001343
     14        1           0.000000739    0.000000354    0.000000528
     15        6          -0.000000658   -0.000004347   -0.000010421
     16        1          -0.000000285    0.000000313   -0.000000451
     17        6           0.000005832    0.000000303    0.000008572
     18        1          -0.000000793    0.000000551   -0.000001141
     19        1          -0.000017895    0.000016227    0.000003428
     20        1           0.000001288    0.000000373   -0.000001562
     21        1          -0.000000335   -0.000002388    0.000000148
 -------------------------------------------------------------------
 Cartesian Forces:  Max     0.000400031 RMS     0.000072221
 -----------------------------------------------------------------------------------------------
                       Internal Coordinate Forces (Hartree/Bohr or radian)
  Cent   Atom   N1       Length/X         N2         Alpha/Y        N3         Beta/Z          J
 -----------------------------------------------------------------------------------------------
      1  C 
      2  C        1  -0.000000(     1)
      3  C        1  -0.000005(     2)      2  -0.000041(    21)
      4  C        2   0.000004(     3)      1  -0.000006(    22)      3  -0.000001(    40)     0
      5  O        3   0.000035(     4)      1   0.000101(    23)      2  -0.000013(    41)     0
      6  H        3   0.000000(     5)      1  -0.000000(    24)      5   0.000001(    42)     0
      7  H        3   0.000002(     6)      1  -0.000003(    25)      5  -0.000001(    43)     0
      8  H        4   0.000003(     7)      2   0.000003(    26)      1   0.000000(    44)     0
      9  H        4   0.000000(     8)      2   0.000000(    27)      8   0.000000(    45)     0
     10  H        4  -0.000001(     9)      2  -0.000004(    28)      8  -0.000001(    46)     0
     11  C        5   0.000021(    10)      3   0.000142(    29)      1  -0.000070(    47)     0
     12  C       11   0.000007(    11)      5   0.000082(    30)      3  -0.000026(    48)     0
     13  H       11   0.000002(    12)      5   0.000000(    31)     12   0.000001(    49)     0
     14  H       11   0.000001(    13)      5  -0.000001(    32)     12  -0.000000(    50)     0
     15  C       12   0.000008(    14)     11  -0.000002(    33)      5   0.000086(    51)     0
     16  H       12   0.000000(    15)     11  -0.000001(    34)     15  -0.000001(    52)     0
     17  C       15   0.000011(    16)     12   0.000039(    35)     11   0.000031(    53)     0
     18  H       15   0.000000(    17)     12  -0.000001(    36)     17  -0.000003(    54)     0
     19  H       17  -0.000023(    18)     15   0.000013(    37)     12  -0.000008(    55)     0
     20  H       17   0.000001(    19)     15  -0.000003(    38)     19  -0.000001(    56)     0
     21  H       17   0.000000(    20)     15  -0.000002(    39)     19   0.000004(    57)     0
 -----------------------------------------------------------------------------------------------
 Internal  Forces:  Max     0.000142255 RMS     0.000031718

 GradGradGradGradGradGradGradGradGradGradGradGradGradGradGradGradGradGrad
 Berny optimization.
 Search for a saddle point.
 Step number   2 out of a maximum of   67
 All quantities printed in internal units (Hartrees-Bohrs-Radians)
 Swapping is turned off.
 Update second derivatives using D2CorN and points    1    2
 ITU=  0  0
     Eigenvalues ---   -0.31608   0.00433   0.00671   0.01203   0.01465
     Eigenvalues ---    0.05219   0.05661   0.05796   0.06156   0.07389
     Eigenvalues ---    0.09211   0.09449   0.10525   0.11803   0.11984
     Eigenvalues ---    0.12628   0.13219   0.14669   0.15676   0.16917
     Eigenvalues ---    0.17891   0.20989   0.21506   0.22162   0.22475
     Eigenvalues ---    0.23401   0.24092   0.24757   0.26840   0.27538
     Eigenvalues ---    0.28271   0.30211   0.30750   0.31247   0.31809
     Eigenvalues ---    0.32297   0.32960   0.33800   0.34320   0.34413
     Eigenvalues ---    0.34577   0.34649   0.34768   0.34907   0.35911
     Eigenvalues ---    0.36618   0.36751   0.37449   0.41752   0.43281
     Eigenvalues ---    0.46875   0.48093   0.65430   0.79799   1.33776
     Eigenvalues ---    2.58045   4.96467
 Eigenvectors required to have negative eigenvalues:
                          R19       A4        A3        D12       R17
   1                    0.56766  -0.36103  -0.36035   0.24541  -0.23959
                          R2        A5        A11       A19       R15
   1                    0.19867  -0.18381  -0.17061  -0.16794   0.16727
 RFO step:  Lambda0=1.401797867D-08 Lambda=-2.08272654D-08.
 Linear search not attempted -- option 19 set.
 Variable       Old X    -DE/DX   Delta X   Delta X   Delta X     New X
                                 (Linear)    (Quad)   (Total)
    R2        2.36053  -0.00000   0.00000   0.00003   0.00003   2.36056
    R3        2.77123  -0.00001   0.00000   0.00002   0.00002   2.77124
    R4        2.80357   0.00000   0.00000   0.00001   0.00001   2.80358
    R5        2.71582   0.00004   0.00000   0.00007   0.00007   2.71589
    R6        2.07001   0.00000   0.00000  -0.00000  -0.00000   2.07000
    R7        2.06816   0.00000   0.00000  -0.00000  -0.00000   2.06816
    R8        2.06278   0.00000   0.00000   0.00001   0.00001   2.06279
    R9        2.06422   0.00000   0.00000  -0.00000  -0.00000   2.06422
   R10        2.06469  -0.00000   0.00000  -0.00000  -0.00000   2.06469
   R11        2.70953   0.00002   0.00000   0.00001   0.00001   2.70954
   R12        2.83157   0.00001   0.00000   0.00002   0.00002   2.83159
   R13        2.06690   0.00000   0.00000   0.00001   0.00001   2.06691
   R14        2.06974   0.00000   0.00000   0.00000   0.00000   2.06974
   R15        2.60686   0.00001   0.00000   0.00003   0.00003   2.60689
   R16        2.05689   0.00000   0.00000   0.00000   0.00000   2.05689
   R17        2.66195   0.00001   0.00000  -0.00000  -0.00000   2.66194
   R18        2.05245   0.00000   0.00000  -0.00000  -0.00000   2.05245
   R19        2.54093  -0.00002   0.00000  -0.00000  -0.00000   2.54093
   R20        2.05276   0.00000   0.00000   0.00000   0.00000   2.05276
   R21        2.05058   0.00000   0.00000  -0.00000  -0.00000   2.05058
    A3        2.67930  -0.00004   0.00000  -0.00011  -0.00011   2.67919
    A4        2.55573  -0.00001   0.00000  -0.00009  -0.00009   2.55564
    A5        1.93071   0.00010   0.00000  -0.00007  -0.00007   1.93063
    A6        1.94832  -0.00000   0.00000   0.00003   0.00003   1.94835
    A7        1.91995  -0.00000   0.00000   0.00003   0.00003   1.91997
    A8        1.94871   0.00000   0.00000   0.00002   0.00002   1.94873
    A9        1.93381   0.00000   0.00000  -0.00000  -0.00000   1.93381
   A10        1.93213  -0.00000   0.00000  -0.00002  -0.00002   1.93211
   A11        1.96453   0.00014   0.00000  -0.00004  -0.00004   1.96449
   A12        1.91383   0.00008   0.00000   0.00003   0.00003   1.91385
   A13        1.82813   0.00000   0.00000   0.00003   0.00003   1.82817
   A14        1.93566  -0.00000   0.00000  -0.00003  -0.00003   1.93563
   A15        2.26202  -0.00000   0.00000  -0.00006  -0.00006   2.26196
   A16        1.94557  -0.00000   0.00000   0.00000   0.00000   1.94557
   A17        2.16703   0.00004   0.00000  -0.00004  -0.00004   2.16699
   A18        2.01774  -0.00000   0.00000   0.00001   0.00001   2.01775
   A19        1.64468   0.00001   0.00000   0.00002   0.00002   1.64470
   A20        2.08741  -0.00000   0.00000  -0.00000  -0.00000   2.08741
   A21        2.05579  -0.00000   0.00000   0.00000   0.00000   2.05579
    D4       -0.43337  -0.00000   0.00000  -0.00009  -0.00009  -0.43346
    D5       -1.99488  -0.00001   0.00000   0.00028   0.00028  -1.99460
    D6       -2.12599   0.00000   0.00000   0.00000   0.00000  -2.12599
    D7        2.06313  -0.00000   0.00000  -0.00007  -0.00007   2.06307
    D8        0.06024   0.00000   0.00000   0.00013   0.00013   0.06036
    D9       -2.10597   0.00000   0.00000  -0.00002  -0.00002  -2.10599
   D10        2.11110  -0.00000   0.00000  -0.00001  -0.00001   2.11109
   D11       -0.25528  -0.00007   0.00000  -0.00040  -0.00040  -0.25568
   D12       -0.61541  -0.00003   0.00000   0.00046   0.00046  -0.61495
   D13       -2.08004   0.00000   0.00000  -0.00002  -0.00002  -2.08007
   D14        2.16949  -0.00000   0.00000  -0.00003  -0.00003   2.16946
   D15        2.54756   0.00009   0.00000   0.00005   0.00005   2.54761
   D16        2.73664  -0.00000   0.00000  -0.00020  -0.00020   2.73644
   D17       -0.71578   0.00003   0.00000  -0.00019  -0.00019  -0.71598
   D18       -2.71674  -0.00000   0.00000   0.00003   0.00003  -2.71670
   D19       -1.04803  -0.00001   0.00000   0.00007   0.00007  -1.04796
   D20        1.76069  -0.00000   0.00000  -0.00004  -0.00004   1.76066
   D21       -2.00325   0.00000   0.00000   0.00002   0.00002  -2.00323
         Item               Value     Threshold  Converged?
 Maximum Force            0.000142     0.000450     YES
 RMS     Force            0.000032     0.000300     YES
 Maximum Displacement     0.000461     0.001800     YES
 RMS     Displacement     0.000103     0.001200     YES
 Predicted change in Energy=-3.404643D-09
 Optimization completed.
    -- Stationary point found.
                       ----------------------------
                       !   Optimized Parameters   !
                       ! (Angstroms and Degrees)  !
 ----------------------                            ----------------------
 !      Name          Value   Derivative information (Atomic Units)     !
 ------------------------------------------------------------------------
 !       R2          1.2491   -DE/DX =    0.0                           !
 !       R3          1.4665   -DE/DX =    0.0                           !
 !       R4          1.4836   -DE/DX =    0.0                           !
 !       R5          1.4372   -DE/DX =    0.0                           !
 !       R6          1.0954   -DE/DX =    0.0                           !
 !       R7          1.0944   -DE/DX =    0.0                           !
 !       R8          1.0916   -DE/DX =    0.0                           !
 !       R9          1.0923   -DE/DX =    0.0                           !
 !       R10         1.0926   -DE/DX =    0.0                           !
 !       R11         1.4338   -DE/DX =    0.0                           !
 !       R12         1.4984   -DE/DX =    0.0                           !
 !       R13         1.0938   -DE/DX =    0.0                           !
 !       R14         1.0953   -DE/DX =    0.0                           !
 !       R15         1.3795   -DE/DX =    0.0                           !
 !       R16         1.0885   -DE/DX =    0.0                           !
 !       R17         1.4086   -DE/DX =    0.0                           !
 !       R18         1.0861   -DE/DX =    0.0                           !
 !       R19         1.3446   -DE/DX =    0.0                           !
 !       R20         1.0863   -DE/DX =    0.0                           !
 !       R21         1.0851   -DE/DX =    0.0                           !
 !       A3        153.5125   -DE/DX =    0.0                           !
 !       A4        146.4328   -DE/DX =    0.0                           !
 !       A5        110.6214   -DE/DX =    0.0001                        !
 !       A6        111.6307   -DE/DX =    0.0                           !
 !       A7        110.0048   -DE/DX =    0.0                           !
 !       A8        111.6528   -DE/DX =    0.0                           !
 !       A9        110.7994   -DE/DX =    0.0                           !
 !       A10       110.703    -DE/DX =    0.0                           !
 !       A11       112.5592   -DE/DX =    0.0001                        !
 !       A12       109.6542   -DE/DX =    0.0001                        !
 !       A13       104.7442   -DE/DX =    0.0                           !
 !       A14       110.9053   -DE/DX =    0.0                           !
 !       A15       129.6042   -DE/DX =    0.0                           !
 !       A16       111.4728   -DE/DX =    0.0                           !
 !       A17       124.1619   -DE/DX =    0.0                           !
 !       A18       115.6082   -DE/DX =    0.0                           !
 !       A19        94.2334   -DE/DX =    0.0                           !
 !       A20       119.6      -DE/DX =    0.0                           !
 !       A21       117.788    -DE/DX =    0.0                           !
 !       D4        -24.8301   -DE/DX =    0.0                           !
 !       D5       -114.2981   -DE/DX =    0.0                           !
 !       D6       -121.8103   -DE/DX =    0.0                           !
 !       D7        118.2089   -DE/DX =    0.0                           !
 !       D8          3.4514   -DE/DX =    0.0                           !
 !       D9       -120.6634   -DE/DX =    0.0                           !
 !       D10       120.9573   -DE/DX =    0.0                           !
 !       D11       -14.6267   -DE/DX =   -0.0001                        !
 !       D12       -35.2603   -DE/DX =    0.0                           !
 !       D13      -119.1777   -DE/DX =    0.0                           !
 !       D14       124.3025   -DE/DX =    0.0                           !
 !       D15       145.9646   -DE/DX =    0.0001                        !
 !       D16       156.7982   -DE/DX =    0.0                           !
 !       D17       -41.0115   -DE/DX =    0.0                           !
 !       D18      -155.6575   -DE/DX =    0.0                           !
 !       D19       -60.0478   -DE/DX =    0.0                           !
 !       D20       100.8803   -DE/DX =    0.0                           !
 !       D21      -114.7778   -DE/DX =    0.0                           !
 ------------------------------------------------------------------------
 GradGradGradGradGradGradGradGradGradGradGradGradGradGradGradGradGradGrad

 ---------------------------------------------------------------------------------------------------
                            Z-MATRIX (ANGSTROMS AND DEGREES)
   CD    Cent   Atom    N1       Length/X        N2       Alpha/Y        N3        Beta/Z          J
 ---------------------------------------------------------------------------------------------------
      1      1  C 
      2      2  C        1   1.249139(     1)
      3      3  C        1   1.466471(     2)      2  153.512(    21)
      4      4  C        2   1.483583(     3)      1  146.433(    22)      3  -24.830(    40)      0
      5      5  O        3   1.437151(     4)      1  110.621(    23)      2 -114.298(    41)      0
      6      6  H        3   1.095400(     5)      1  111.631(    24)      5 -121.810(    42)      0
      7      7  H        3   1.094424(     6)      1  110.005(    25)      5  118.209(    43)      0
      8      8  H        4   1.091577(     7)      2  111.653(    26)      1    3.451(    44)      0
      9      9  H        4   1.092340(     8)      2  110.799(    27)      8 -120.663(    45)      0
     10     10  H        4   1.092587(     9)      2  110.703(    28)      8  120.957(    46)      0
     11     11  C        5   1.433823(    10)      3  112.559(    29)      1  -14.627(    47)      0
     12     12  C       11   1.498402(    11)      5  109.654(    30)      3  -35.260(    48)      0
     13     13  H       11   1.093757(    12)      5  104.744(    31)     12 -119.178(    49)      0
     14     14  H       11   1.095257(    13)      5  110.905(    32)     12  124.302(    50)      0
     15     15  C       12   1.379489(    14)     11  129.604(    33)      5  145.965(    51)      0
     16     16  H       12   1.088459(    15)     11  111.473(    34)     15  156.798(    52)      0
     17     17  C       15   1.408643(    16)     12  124.162(    35)     11  -41.011(    53)      0
     18     18  H       15   1.086112(    17)     12  115.608(    36)     17 -155.657(    54)      0
     19     19  H       17   1.344602(    18)     15   94.233(    37)     12  -60.048(    55)      0
     20     20  H       17   1.086274(    19)     15  119.600(    38)     19  100.880(    56)      0
     21     21  H       17   1.085121(    20)     15  117.788(    39)     19 -114.778(    57)      0
 ---------------------------------------------------------------------------------------------------
                         Z-Matrix orientation:                         
 ---------------------------------------------------------------------
 Center     Atomic      Atomic             Coordinates (Angstroms)
 Number     Number       Type             X           Y           Z
 ---------------------------------------------------------------------
      1          6           0        0.000000    0.000000    0.000000
      2          6           0        0.000000    0.000000    1.249139
      3          6           0        0.654050    0.000000   -1.312538
      4          6           0        0.744465   -0.344466    2.485316
      5          8           0        0.384418    1.225920   -2.012410
      6          1           0        0.325937   -0.845252   -1.927185
      7          1           0        1.739333   -0.070140   -1.190041
      8          1           0        1.738049   -0.736899    2.260978
      9          1           0        0.204639   -1.095320    3.066706
     10          1           0        0.855630    0.533192    3.126492
     11          6           0       -0.692531    1.968809   -1.425772
     12          6           0       -1.726943    1.023256   -0.895556
     13          1           0       -1.094918    2.570343   -2.245861
     14          1           0       -0.321802    2.649414   -0.651870
     15          6           0       -2.540445    1.140875    0.212313
     16          1           0       -2.099313    0.361784   -1.675645
     17          6           0       -2.114929    1.647499    1.455913
     18          1           0       -3.395960    0.472304    0.239620
     19          1           0       -1.170691    0.705973    1.628822
     20          1           0       -1.456433    2.510883    1.486634
     21          1           0       -2.817135    1.614751    2.282547
 ---------------------------------------------------------------------
                    Distance matrix (angstroms):
                    1          2          3          4          5
     1  C    0.000000
     2  C    1.249139   0.000000
     3  C    1.466471   2.643855   0.000000
     4  C    2.617190   1.483583   3.814515   0.000000
     5  O    2.387562   3.505476   1.437151   4.777582   0.000000
     6  H    2.129490   3.302987   1.095400   4.460507   2.073749
     7  H    2.108648   2.996631   1.094424   3.817495   2.047403
     8  H    2.945480   2.141880   3.806322   1.091577   4.893549
     9  H    3.262865   2.131936   4.536460   1.092340   5.587298
    10  H    3.285019   2.130927   4.475479   1.092587   5.206748
    11  C    2.527575   3.392781   2.387951   4.765796   1.433823
    12  C    2.198046   2.937534   2.624892   4.405544   2.397141
    13  H    3.584606   4.474431   3.246020   5.853501   2.012562
    14  H    2.747341   3.276704   2.899683   4.465667   2.091925
    15  C    2.792943   2.971610   3.719081   4.261856   3.675792
    16  H    2.710311   3.618337   2.800668   5.089151   2.651238
    17  C    3.050715   2.688854   4.248037   3.633693   4.295781
    18  H    3.437009   3.574177   4.362894   4.780521   4.464396
    19  H    2.126494   1.418829   3.532659   2.346237   3.993405
    20  H    3.261259   2.912410   4.312080   3.740900   4.157304
    21  H    3.969092   3.407580   5.251779   4.069968   5.371014
                    6          7          8          9         10
     6  H    0.000000
     7  H    1.772532   0.000000
     8  H    4.421143   3.514840   0.000000
     9  H    5.001619   4.639630   1.768900   0.000000
    10  H    5.265010   4.447178   1.772261   1.754826   0.000000
    11  C    3.034407   3.182270   5.178870   5.511457   5.018058
    12  C    2.961401   3.646547   5.006797   4.890694   4.804864
    13  H    3.713041   4.014958   6.266989   6.584019   6.067685
    14  H    3.776067   3.454545   4.918819   5.303582   4.487846
    15  C    4.091246   4.663652   5.101820   4.547924   4.516087
    16  H    2.720669   3.893272   5.606197   5.470030   5.641062
    17  C    4.859731   4.980632   4.602056   3.936763   3.585629
    18  H    4.503722   5.358116   5.648549   4.838819   5.139431
    19  H    4.158291   4.125116   3.307910   2.683971   2.525638
    20  H    5.108291   4.902977   4.620866   4.273229   3.456303
    21  H    5.801065   5.971526   5.126443   4.134067   3.920614
                   11         12         13         14         15
    11  C    0.000000
    12  C    1.498402   0.000000
    13  H    1.093757   2.148548   0.000000
    14  H    1.095257   2.162913   1.773349   0.000000
    15  C    2.604531   1.379489   3.189913   2.818666   0.000000
    16  H    2.150349   1.088459   2.492326   3.072606   2.089489
    17  C    3.229639   2.463660   3.949076   2.943109   1.408643
    18  H    3.510212   2.092316   3.984241   3.871047   1.086112
    19  H    3.339751   2.604336   4.300557   3.114343   2.017886
    20  H    3.059330   2.821531   3.750433   2.424826   2.162382
    21  H    4.288465   3.411557   4.938185   3.988485   2.141725
                   16         17         18         19         20
    16  H    0.000000
    17  C    3.385257   0.000000
    18  H    2.315545   2.121672   0.000000
    19  H    3.449682   1.344602   2.633686   0.000000
    20  H    3.877103   1.086274   3.077761   1.832911   0.000000
    21  H    4.213369   1.085121   2.411177   1.990982   1.813295
                   21
    21  H    0.000000
 Symmetry turned off by external request.
 Stoichiometry    C8H12O
 Framework group  C1[X(C8H12O)]
 Deg. of freedom    57
 Full point group                 C1      NOp   1
 Rotational constants (GHZ):           1.9811810           1.5000262           0.9623666
 1\1\GINC-BHC0069\FTS\RB3LYP\def2TZVP\C8H12O1\DHANAWAY\10-Jun-2022\1\\#
  Opt=(TS, CalcFC, noeigentest, Z-matrix, MaxStep=10) Field=read NoSymm
  B3LYP/Def2TZVP freq=noraman pop=none\\ts_zmat_initalOpt\\0,1\C\C,1,R2
 \C,1,R3,2,A3\C,2,R4,1,A4,3,D4,0\O,3,R5,1,A5,2,D5,0\H,3,R6,1,A6,5,D6,0\
 H,3,R7,1,A7,5,D7,0\H,4,R8,2,A8,1,D8,0\H,4,R9,2,A9,8,D9,0\H,4,R10,2,A10
 ,8,D10,0\C,5,R11,3,A11,1,D11,0\C,11,R12,5,A12,3,D12,0\H,11,R13,5,A13,1
 2,D13,0\H,11,R14,5,A14,12,D14,0\C,12,R15,11,A15,5,D15,0\H,12,R16,11,A1
 6,15,D16,0\C,15,R17,12,A17,11,D17,0\H,15,R18,12,A18,17,D18,0\H,17,R19,
 15,A19,12,D19,0\H,17,R20,15,A20,19,D20,0\H,17,R21,15,A21,19,D21,0\\R2=
 1.24913934\R3=1.46647074\R4=1.4835829\R5=1.43715131\R6=1.09539964\R7=1
 .09442392\R8=1.09157707\R9=1.09234028\R10=1.0925869\R11=1.43382256\R12
 =1.49840222\R13=1.09375692\R14=1.09525691\R15=1.37948934\R16=1.0884589
 7\R17=1.40864281\R18=1.08611181\R19=1.34460172\R20=1.08627416\R21=1.08
 512131\A3=153.51247844\A4=146.43276933\A5=110.62137592\A6=111.63071551
 \A7=110.004773\A8=111.65283235\A9=110.79940025\A10=110.70300737\A11=11
 2.55915788\A12=109.65423869\A13=104.74424352\A14=110.90529025\A15=129.
 60419658\A16=111.47278148\A17=124.16193976\A18=115.60820674\A19=94.233
 36114\A20=119.59996674\A21=117.78802328\D4=-24.83008263\D5=-114.298069
 75\D6=-121.81028992\D7=118.20889918\D8=3.4514282\D9=-120.66342317\D10=
 120.95729449\D11=-14.62674316\D12=-35.26027561\D13=-119.17767569\D14=1
 24.30245283\D15=145.96460608\D16=156.79815122\D17=-41.01145826\D18=-15
 5.65745979\D19=-60.04777045\D20=100.88029382\D21=-114.77778857\\Versio
 n=ES64L-G16RevA.03\HF=-387.2888989\RMSD=6.774e-09\RMSF=7.222e-05\Dipol
 e=0.0284756,-0.4405602,0.8702819\PG=C01 [X(C8H12O1)]\\@


 IT'S WHAT A FELLER THINKS HE KNOWS THAT HURTS HIM...
                    ------
           KIN HUBBARD
 Job cpu time:       0 days  2 hours 47 minutes 54.5 seconds.
 Elapsed time:       0 days  0 hours 14 minutes  9.1 seconds.
 File lengths (MBytes):  RWF=    205 Int=      0 D2E=      0 Chk=     32 Scr=      1
 Normal termination of Gaussian 16 at Fri Jun 10 12:04:16 2022.
 Link1:  Proceeding to internal job step number  2.
 --------------------------------------------------------------------
 #N Geom=AllCheck Guess=TCheck SCRF=Check GenChk RB3LYP/def2TZVP Freq
 --------------------------------------------------------------------
 1/5=1,8=10,10=4,11=1,29=7,30=1,38=1,40=1/1,3;
 2/12=2,15=1,40=1/2;
 3/5=44,7=101,11=2,14=-4,25=1,30=1,70=2,71=2,74=-5,116=1,140=1/1,2,3;
 4/5=101/1;
 5/5=2,38=6,98=1/2;
 8/6=4,10=90,11=11/1;
 11/6=1,8=1,9=11,15=111,16=1,31=1/1,2,10;
 10/6=1,31=1/2;
 7/8=1,10=1,25=1,30=1/1,2,3,16;
 1/5=1,8=10,10=4,11=1,30=1/3;
 99//99;
 Structure from the checkpoint file:  "checkpoint.chk"
 -----------------
 ts_zmat_initalOpt
 -----------------
 Charge =  0 Multiplicity = 1
 Z-Matrix found in chk file.
 C
 C,1,R2
 C,1,R3,2,A3
 C,2,R4,1,A4,3,D4,0
 O,3,R5,1,A5,2,D5,0
 H,3,R6,1,A6,5,D6,0
 H,3,R7,1,A7,5,D7,0
 H,4,R8,2,A8,1,D8,0
 H,4,R9,2,A9,8,D9,0
 H,4,R10,2,A10,8,D10,0
 C,5,R11,3,A11,1,D11,0
 C,11,R12,5,A12,3,D12,0
 H,11,R13,5,A13,12,D13,0
 H,11,R14,5,A14,12,D14,0
 C,12,R15,11,A15,5,D15,0
 H,12,R16,11,A16,15,D16,0
 C,15,R17,12,A17,11,D17,0
 H,15,R18,12,A18,17,D18,0
 H,17,R19,15,A19,12,D19,0
 H,17,R20,15,A20,19,D20,0
 H,17,R21,15,A21,19,D21,0
      Variables:
 R2=1.24913934
 R3=1.46647074
 R4=1.4835829
 R5=1.43715131
 R6=1.09539964
 R7=1.09442392
 R8=1.09157707
 R9=1.09234028
 R10=1.0925869
 R11=1.43382256
 R12=1.49840222
 R13=1.09375692
 R14=1.09525691
 R15=1.37948934
 R16=1.08845897
 R17=1.40864281
 R18=1.08611181
 R19=1.34460172
 R20=1.08627416
 R21=1.08512131
 A3=153.51247844
 A4=146.43276933
 A5=110.62137592
 A6=111.63071551
 A7=110.004773
 A8=111.65283235
 A9=110.79940025
 A10=110.70300737
 A11=112.55915788
 A12=109.65423869
 A13=104.74424352
 A14=110.90529025
 A15=129.60419658
 A16=111.47278148
 A17=124.16193976
 A18=115.60820674
 A19=94.23336114
 A20=119.59996674
 A21=117.78802328
 D4=-24.83008263
 D5=-114.29806975
 D6=-121.81028992
 D7=118.20889918
 D8=3.4514282
 D9=-120.66342317
 D10=120.95729449
 D11=-14.62674316
 D12=-35.26027561
 D13=-119.17767569
 D14=124.30245283
 D15=145.96460608
 D16=156.79815122
 D17=-41.01145826
 D18=-155.65745979
 D19=-60.04777045
 D20=100.88029382
 D21=-114.77778857
 Recover connectivity data from disk.

 GradGradGradGradGradGradGradGradGradGradGradGradGradGradGradGradGradGrad
 Berny optimization.
 Initialization pass.
                       ----------------------------
                       !    Initial Parameters    !
                       ! (Angstroms and Degrees)  !
 ----------------------                            ----------------------
 !      Name          Value   Derivative information (Atomic Units)     !
 ------------------------------------------------------------------------
 !       R2          1.2491   calculate D2E/DX2 analytically            !
 !       R3          1.4665   calculate D2E/DX2 analytically            !
 !       R4          1.4836   calculate D2E/DX2 analytically            !
 !       R5          1.4372   calculate D2E/DX2 analytically            !
 !       R6          1.0954   calculate D2E/DX2 analytically            !
 !       R7          1.0944   calculate D2E/DX2 analytically            !
 !       R8          1.0916   calculate D2E/DX2 analytically            !
 !       R9          1.0923   calculate D2E/DX2 analytically            !
 !       R10         1.0926   calculate D2E/DX2 analytically            !
 !       R11         1.4338   calculate D2E/DX2 analytically            !
 !       R12         1.4984   calculate D2E/DX2 analytically            !
 !       R13         1.0938   calculate D2E/DX2 analytically            !
 !       R14         1.0953   calculate D2E/DX2 analytically            !
 !       R15         1.3795   calculate D2E/DX2 analytically            !
 !       R16         1.0885   calculate D2E/DX2 analytically            !
 !       R17         1.4086   calculate D2E/DX2 analytically            !
 !       R18         1.0861   calculate D2E/DX2 analytically            !
 !       R19         1.3446   calculate D2E/DX2 analytically            !
 !       R20         1.0863   calculate D2E/DX2 analytically            !
 !       R21         1.0851   calculate D2E/DX2 analytically            !
 !       A3        153.5125   calculate D2E/DX2 analytically            !
 !       A4        146.4328   calculate D2E/DX2 analytically            !
 !       A5        110.6214   calculate D2E/DX2 analytically            !
 !       A6        111.6307   calculate D2E/DX2 analytically            !
 !       A7        110.0048   calculate D2E/DX2 analytically            !
 !       A8        111.6528   calculate D2E/DX2 analytically            !
 !       A9        110.7994   calculate D2E/DX2 analytically            !
 !       A10       110.703    calculate D2E/DX2 analytically            !
 !       A11       112.5592   calculate D2E/DX2 analytically            !
 !       A12       109.6542   calculate D2E/DX2 analytically            !
 !       A13       104.7442   calculate D2E/DX2 analytically            !
 !       A14       110.9053   calculate D2E/DX2 analytically            !
 !       A15       129.6042   calculate D2E/DX2 analytically            !
 !       A16       111.4728   calculate D2E/DX2 analytically            !
 !       A17       124.1619   calculate D2E/DX2 analytically            !
 !       A18       115.6082   calculate D2E/DX2 analytically            !
 !       A19        94.2334   calculate D2E/DX2 analytically            !
 !       A20       119.6      calculate D2E/DX2 analytically            !
 !       A21       117.788    calculate D2E/DX2 analytically            !
 !       D4        -24.8301   calculate D2E/DX2 analytically            !
 !       D5       -114.2981   calculate D2E/DX2 analytically            !
 !       D6       -121.8103   calculate D2E/DX2 analytically            !
 !       D7        118.2089   calculate D2E/DX2 analytically            !
 !       D8          3.4514   calculate D2E/DX2 analytically            !
 !       D9       -120.6634   calculate D2E/DX2 analytically            !
 !       D10       120.9573   calculate D2E/DX2 analytically            !
 !       D11       -14.6267   calculate D2E/DX2 analytically            !
 !       D12       -35.2603   calculate D2E/DX2 analytically            !
 !       D13      -119.1777   calculate D2E/DX2 analytically            !
 !       D14       124.3025   calculate D2E/DX2 analytically            !
 !       D15       145.9646   calculate D2E/DX2 analytically            !
 !       D16       156.7982   calculate D2E/DX2 analytically            !
 !       D17       -41.0115   calculate D2E/DX2 analytically            !
 !       D18      -155.6575   calculate D2E/DX2 analytically            !
 !       D19       -60.0478   calculate D2E/DX2 analytically            !
 !       D20       100.8803   calculate D2E/DX2 analytically            !
 !       D21      -114.7778   calculate D2E/DX2 analytically            !
 ------------------------------------------------------------------------
 Trust Radius=1.00D-01 FncErr=1.00D-07 GrdErr=1.00D-07 EigMax=2.50D+02 EigMin=1.00D-04
 Number of steps in this run=      2 maximum allowed number of steps=      2.
[...]
 00003876,-0.00012120,0.00019335,0.00004087,-0.00001089,-0.00002124,-0.
 00002563,-0.00000804,0.00003692,-0.00123432,-0.00866436,-0.00489064,-0
 .00174344,-0.01896317,-0.01295783,0.02081202,0.23400070,-0.00113576,0.
 00097039,-0.00173608,-0.00644151,-0.01955593,-0.02195420,-0.00057244,0
 .00018309,0.00048011,-0.01378308,-0.12342714,-0.12820041,0.00006433,0.
 00062517,-0.00048598,-0.00004621,0.00004141,-0.00000903,0.00000970,-0.
 00003145,-0.00000586,-0.00020149,-0.00563228,-0.00433754,0.00125287,0.
 01353171,0.01085036,0.01949218,0.13310256,0.14520140,0.00055602,0.0032
 8661,0.00102679,-0.00282066,0.00249592,0.00361903,-0.01894651,0.023087
 80,-0.01757929,-0.00013462,-0.00016326,0.00043147,-0.11249031,0.050526
 99,0.03870024,-0.00017980,-0.00541087,0.00299464,0.00024011,0.00150797
 ,0.00097828,-0.00014661,0.00006896,-0.00017894,0.00018539,-0.00012029,
 0.00000880,0.00027466,-0.00005237,-0.00000713,0.42656972,0.01179336,-0
 .01268633,0.00985158,0.00169253,-0.00226173,-0.00669979,0.02761061,-0.
 03212891,-0.00231721,-0.00058122,0.00064005,0.00072765,0.03137498,-0.1
 0291033,-0.00487035,0.00123035,-0.00095864,0.00120854,-0.00120460,-0.0
 0078820,-0.00104920,-0.00026408,0.00011672,-0.00037039,-0.00007334,0.0
 0005805,-0.00006793,-0.00013095,0.00006428,-0.00011534,0.02704829,0.54
 646213,-0.01091778,0.01557263,-0.00900281,-0.00145291,0.00116102,0.003
 38968,-0.01535317,0.00601374,0.00861344,0.00031044,-0.00058819,-0.0005
 3633,0.05351802,-0.02758439,-0.09809555,-0.00009905,0.00137984,-0.0004
 8400,-0.00167169,0.00518814,-0.00381688,0.00019487,-0.00005192,0.00028
 603,0.00001113,-0.00002768,0.00004663,-0.00003799,0.00000355,-0.000287
 13,0.08333678,-0.01706065,0.56083472,0.04416704,-0.03026722,0.06703910
 ,0.02433917,-0.01699594,-0.06563871,-0.02421949,0.00812185,0.00238765,
 -0.00901108,0.00482808,0.00811622,-0.03513230,-0.00367181,0.01549339,0
 .00036297,-0.00033054,-0.00103331,-0.00081434,-0.00085959,0.00370235,-
 0.00210761,0.00110431,-0.00287232,0.00030773,0.00001621,0.00058020,0.0
 0019710,-0.00018969,0.00110978,-0.11505411,-0.07338056,0.03448128,0.38
 832445,-0.02913636,-0.00002941,-0.03223110,-0.00949909,0.00593848,0.02
 694572,0.01694940,0.00072077,-0.00208228,0.00521853,0.00143696,-0.0040
 4190,0.01429456,0.00730558,-0.00358313,-0.00030531,-0.00018510,-0.0001
 5458,0.00072529,-0.00080340,-0.00134875,0.00090475,-0.00040806,0.00126
 572,-0.00045210,0.00010681,-0.00092950,0.00013733,0.00001632,0.0000980
 3,-0.07107075,-0.13723440,0.01828004,0.18416727,0.36502556,0.01035969,
 -0.01011112,-0.01278667,-0.00772053,0.00405212,0.00098024,0.00050034,0
 .00073521,0.00394244,0.00285059,-0.00042607,-0.00078001,0.03042609,0.0
 0479411,-0.01338817,0.00003429,-0.00056237,0.00031872,0.00057959,0.001
 18380,-0.00117385,0.00046803,-0.00019291,0.00071963,-0.00017140,0.0000
 4666,-0.00021503,0.00000356,0.00003194,0.00004344,0.01506849,0.0150675
 7,-0.09395540,-0.16437568,0.13966146,0.63814930,-0.00035307,-0.0016919
 6,0.00206080,0.00104450,-0.00062607,-0.00124733,-0.00407851,-0.0014741
 2,0.00199867,-0.00004226,0.00026243,0.00008620,-0.01727341,0.02705603,
 -0.01250734,-0.00005086,0.00020871,-0.00013871,-0.00034260,0.00133208,
 -0.00086765,0.00000993,-0.00001440,0.00000399,-0.00002517,0.00001567,-
 0.00001564,-0.00001678,0.00000226,0.00007816,-0.07424346,0.04066875,-0
 .07073939,0.00487472,-0.01303606,0.02079587,0.09182567,0.00117665,-0.0
 0112080,0.00032605,0.00048493,-0.00019367,-0.00047000,0.00342768,0.000
 13582,-0.00015827,-0.00012023,0.00007875,0.00005720,0.01476256,-0.0177
 5604,0.00993422,0.00006457,-0.00025925,0.00005998,0.00010346,-0.000927
 30,0.00059668,-0.00000413,-0.00000238,-0.00002772,0.00000492,-0.000007
 50,0.00002630,0.00000579,-0.00000541,0.00006275,0.04338613,-0.11688403
 ,0.09788528,0.00195801,-0.00890881,0.01724393,-0.05818138,0.13449664,0
 .00061924,0.00180202,-0.00154498,-0.00070508,0.00073986,0.00162311,0.0
 0290902,-0.00203100,-0.00025969,0.00010639,-0.00041786,-0.00006414,0.0
 0842940,-0.01131089,0.01166087,0.00003273,-0.00012369,0.00000574,0.000
 15230,-0.00061242,0.00039352,-0.00000625,0.00000183,0.00001240,-0.0000
 1485,0.00001631,0.00000488,-0.00004010,-0.00001561,-0.00010168,-0.0778
 9412,0.10393780,-0.19811040,0.00003803,0.00639417,-0.00995931,0.074067
 13,-0.11026372,0.21107983,-0.00039514,0.00131780,-0.00232218,-0.000153
 76,0.00050302,0.00126237,0.00147925,-0.00206208,0.00363756,0.00013137,
 -0.00024431,-0.00010873,0.00213206,0.02462366,0.02351002,-0.00011005,0
 .00096326,-0.00057613,-0.00009970,-0.00011574,0.00018714,0.00003454,0.
 00000243,0.00005131,-0.00003146,0.00000653,-0.00000147,-0.00002300,-0.
 00000802,-0.00006702,-0.08484026,-0.05835966,-0.06791244,-0.00654936,-
 0.01430756,-0.01857965,-0.00259979,-0.00718547,-0.00819557,0.09193304,
 -0.00051591,0.00004045,-0.00042373,-0.00026645,0.00030454,0.00089370,-
 0.00099612,0.00124796,-0.00308448,0.00016479,0.00002853,-0.00001205,0.
 00837935,-0.01427325,-0.01640362,0.00007296,-0.00069929,0.00049882,0.0
 0002965,-0.00013295,0.00000713,0.00003710,-0.00001324,0.00003365,-0.00
 001430,0.00001011,-0.00001921,0.00001872,-0.00003656,0.00005837,-0.057
 20378,-0.13718681,-0.09625822,-0.01020381,-0.01332322,-0.01513934,0.00
 542946,0.01155249,0.01135723,0.05717551,0.15336786,0.00049069,0.000384
 79,0.00026022,-0.00003039,0.00058070,0.00020560,-0.00063940,0.00172165
 ,-0.00216639,-0.00003579,-0.00008833,-0.00001826,0.00943352,-0.0137614
 3,-0.00744680,0.00005117,-0.00071375,0.00030206,0.00008815,-0.00029768
 ,0.00021646,0.00001116,-0.00001866,0.00000857,0.00000775,-0.00001124,0
 .00001113,-0.00000869,-0.00000352,0.00001758,-0.06907856,-0.10093871,-
 0.17283790,0.00287495,0.00833970,0.00978023,-0.01147759,-0.01367050,-0
 .01693639,0.06564248,0.11673362,0.18946890,-0.02572601,0.01179227,-0.0
 2122761,-0.00562708,0.00410969,0.00828162,0.00548310,-0.00463112,0.002
 53105,-0.00226743,0.00094954,0.00112371,-0.00584856,0.00080486,0.00436
 721,-0.00015268,0.00014225,0.00079279,0.00044778,0.00036360,-0.0015708
 0,-0.00015256,0.00007372,-0.00103430,0.00018115,-0.00011123,-0.0000794
 7,0.00034496,-0.00008534,-0.00008298,-0.01186214,0.00724076,0.00932756
 ,-0.17171445,-0.01824336,0.16061765,0.00051162,0.00005656,-0.00046784,
 0.00053559,0.00046390,-0.00039706,0.53592197,0.02158444,-0.00827066,0.
 01754294,0.01464597,-0.00495439,-0.01208433,-0.00364371,-0.00108155,0.
 00070221,-0.00010056,0.00049249,-0.00051387,-0.00423314,0.00060142,0.0
 0064573,0.00006335,0.00032150,-0.00059875,-0.00010627,0.00032230,0.000
 54028,0.00020104,0.00001705,0.00048742,-0.00017037,0.00008278,0.000381
 24,-0.00010756,0.00002875,0.00026259,-0.00517125,0.00632613,0.01692092
 ,-0.03566928,-0.07446634,-0.02360175,-0.00207115,-0.00150440,0.0011932
 6,0.00100584,0.00014221,-0.00065595,0.19681252,0.33916728,0.03635982,-
 0.01777327,0.05331758,0.03551773,-0.02374920,-0.06310348,-0.00859949,0
 .00505153,-0.00253130,-0.01255184,0.00482053,0.00711532,-0.00287070,0.
 00275718,0.00023885,-0.00001123,0.00001216,-0.00045093,-0.00082289,-0.
 00066601,0.00196740,-0.00220164,0.00120651,-0.00335839,0.00041027,-0.0
 0007989,0.00082174,0.00016125,-0.00018137,0.00076023,0.02050390,-0.002
 72717,-0.00129209,0.10280020,-0.02342161,-0.28637161,-0.00354181,-0.00
 226310,0.00271600,0.00005836,-0.00025721,-0.00016203,-0.08943833,0.114
 78522,0.63509004,0.00009469,-0.00328432,-0.00172900,-0.00022759,-0.000
 19004,-0.00120754,-0.00070769,0.00000578,-0.00074069,0.00010186,0.0004
 2251,0.00000871,0.00261681,0.00098790,0.00021295,-0.00053855,0.0004133
 1,0.00024774,0.00017145,0.00034382,0.00013521,-0.00004627,0.00004041,-
 0.00002311,-0.00004883,0.00002514,-0.00007616,0.00002160,-0.00002349,0
 .00005603,-0.00847775,-0.01561798,-0.01621876,-0.08136242,-0.06480976,
 -0.06559661,0.00070677,0.00031642,0.00061315,-0.00216907,-0.00299267,0
 .00232689,0.00923242,0.01141543,0.01909879,0.08260703,0.00088071,0.003
 14135,0.00257440,0.00043079,0.00000170,0.00053134,-0.00024478,-0.00019
 166,0.00038471,-0.00024704,-0.00043936,0.00010896,0.00039306,0.0023264
 0,0.00092439,0.00021275,0.00029641,-0.00022010,-0.00017168,-0.00015917
 ,0.00001846,0.00002878,-0.00002261,-0.00000898,0.00005845,-0.00002129,
 0.00011573,-0.00001576,0.00001071,-0.00003294,-0.00871179,-0.01537157,
 -0.01731197,-0.06125967,-0.14280076,-0.11749534,0.00090050,0.00055451,
 -0.00027183,-0.00343116,-0.00149549,0.00201291,-0.00371431,-0.00074536
 ,-0.00386561,0.07241586,0.15169233,0.00028613,-0.00119183,-0.00107231,
 -0.00035141,-0.00002896,-0.00072614,-0.00007270,-0.00049962,-0.0003927
 0,0.00004584,0.00021682,0.00010378,-0.00130152,0.00010569,0.00030802,0
 .00010506,0.00018542,0.00056133,0.00007220,0.00026269,0.00021141,-0.00
 006150,0.00004741,-0.00004441,-0.00002570,0.00000236,-0.00006180,0.000
 04356,-0.00001606,0.00001328,0.00520755,0.00706616,0.00772501,-0.06058
 247,-0.12007193,-0.18633852,-0.00059042,-0.00044917,0.00108336,0.00243
 545,0.00109484,0.00020520,-0.00969904,-0.01523022,-0.01930402,0.060905
 15,0.12947887,0.20049139,-0.01952222,0.01065083,-0.04136616,-0.0641415
 2,0.04124026,0.05664887,0.00524346,-0.00192247,0.00102165,0.01218240,-
 0.00562256,-0.00401651,0.00044834,-0.00201978,0.00171480,-0.00014002,0
 .00008205,0.00032202,0.00084269,0.00026256,-0.00093091,0.00112457,-0.0
 0092265,0.00221196,-0.00063789,0.00026460,-0.00102325,-0.00053255,-0.0
 0006302,-0.00128918,-0.00688406,0.00480737,-0.00122518,0.04238878,-0.0
 0167080,0.00422306,0.00189521,0.00099558,-0.00119505,-0.00028081,-0.00
 023132,-0.00020720,-0.10649087,-0.04606356,-0.01119398,-0.00069003,0.0
 0021742,0.00521018,0.41776529,0.00247419,-0.00157216,0.02292156,0.0439
 9411,-0.02679587,-0.03480860,0.00017176,0.00250022,-0.00131465,-0.0091
 1514,0.00351203,0.00261769,-0.00007270,-0.00012967,-0.00054274,-0.0001
 0542,-0.00018345,0.00014887,-0.00051622,-0.00000902,0.00003979,-0.0007
 3479,0.00071456,-0.00157802,0.00037003,-0.00028334,0.00054398,0.000536
 90,0.00007835,0.00071941,0.00481363,-0.00017533,0.00186322,-0.00575629
 ,0.00678699,-0.00195187,-0.00104956,-0.00090577,0.00008094,-0.00021455
 ,-0.00045183,-0.00044367,-0.05826619,-0.11310531,-0.10677257,-0.002913
 60,0.00408105,-0.00207492,0.21208590,0.40138583,-0.01893999,0.00768970
 ,-0.04399459,-0.03480936,0.01998615,0.03531207,0.00717359,-0.00524133,
 0.00492191,0.00539388,-0.00192838,-0.00148746,-0.00063266,0.00023312,0
 .00147388,-0.00003470,-0.00003589,0.00055497,0.00096949,0.00066232,-0.
 00242017,0.00053680,-0.00025125,0.00083766,0.00003993,0.00002859,-0.00
 046364,0.00039663,-0.00005884,-0.00015552,-0.00675544,0.00238764,-0.00
 121910,0.03314437,-0.02593565,-0.03894560,0.00135911,0.00076952,-0.001
 29764,-0.00004190,-0.00015965,-0.00051008,-0.06428267,-0.08905873,-0.2
 5057946,0.00289974,-0.00014304,-0.00135316,-0.11805111,0.13240873,0.58
 578858,-0.00011795,0.00035035,-0.00010086,-0.00014258,0.00007931,0.000
 26419,0.00020449,-0.00028543,0.00002104,0.00008853,-0.00005695,-0.0001
 7853,-0.00049146,0.00020011,0.00021465,-0.00000720,0.00008034,-0.00010
 296,-0.00004547,0.00002264,0.00002302,0.00005478,0.00001660,0.00008280
 ,-0.00004226,0.00000189,-0.00003299,0.00000688,0.00003541,0.00001310,0
 .00305245,-0.00000724,0.00246803,-0.01277676,-0.01494919,0.00296889,-0
 .00055755,-0.00058407,0.00022410,0.00001083,0.00012342,-0.00010640,-0.
 21479628,-0.13407148,0.00829045,-0.00084964,0.00272790,-0.00126841,-0.
 00506077,-0.00785369,0.00008820,0.22831813,0.00080566,-0.00052923,0.00
 110873,0.00040456,-0.00013000,-0.00059085,-0.00030509,-0.00029064,0.00
 023756,-0.00000237,-0.00006125,0.00014806,-0.00123391,-0.00018715,0.00
 056152,-0.00000666,0.00000871,0.00008724,-0.00001403,0.00000939,0.0000
 1320,-0.00005482,-0.00000995,-0.00004569,0.00000709,0.00002028,-0.0000
 0161,0.00000358,-0.00004615,0.00000857,-0.00257804,0.00443705,-0.00249
 526,0.00061676,0.00444385,-0.00242909,0.00065364,0.00050615,-0.0001015
 9,0.00020614,-0.00004420,-0.00015122,-0.14314022,-0.14936633,-0.001176
 33,0.00327327,-0.00186145,0.00199067,-0.01023381,-0.00577948,0.0004990
 8,0.15379453,0.14725253,0.00016865,-0.00014807,0.00064941,0.00046313,-
 0.00041690,-0.00056567,-0.00027691,0.00083643,-0.00072923,-0.00005400,
 0.00006887,-0.00001175,0.00242635,-0.00014216,-0.00112433,0.00003174,-
 0.00009288,-0.00006468,-0.00001166,-0.00010589,0.00014622,0.00002704,0
 .00002954,0.00000834,-0.00001125,0.00001634,-0.00000437,0.00003783,0.0
 0001184,0.00007153,0.00281629,-0.00444031,-0.00018965,0.02251881,0.017
 93846,-0.00242046,-0.00039137,-0.00008408,0.00002847,0.00005880,0.0002
 7219,0.00018409,0.00836019,0.00087763,-0.05404688,-0.00106475,0.002167
 96,-0.00025426,-0.02152274,-0.02133253,0.00124594,-0.01128614,0.004797
 26,0.05984523,0.01324684,-0.00488787,0.06818770,0.03048617,-0.03480516
 ,-0.05730486,-0.00683285,0.00809253,-0.00416636,-0.02093265,0.01047436
 ,0.00313011,0.00059679,0.00031606,-0.00210066,-0.00004750,-0.00005319,
 -0.00024595,-0.00126369,-0.00058980,0.00203425,-0.00035370,0.00113051,
 -0.00280999,0.00121956,-0.00006746,0.00109264,0.00093964,-0.00041204,0
 .00171188,0.00448609,-0.00266691,0.00150982,-0.04029124,0.01362064,0.0
 0794681,-0.00109648,-0.00063107,0.00093467,0.00061490,0.00007343,0.000
 10572,-0.01136439,-0.00336035,-0.07022655,-0.00067064,-0.00014481,0.00
 033652,0.02523434,-0.02372424,0.03742159,0.00090943,-0.00099285,-0.000
 30816,0.01416279,-0.01105749,0.00804808,-0.05600750,-0.04834994,0.0053
 8302,0.04961243,0.00591596,-0.00130536,0.00487344,0.01603881,-0.005222
 80,-0.00282536,-0.00006166,-0.00096234,0.00092055,0.00006375,-0.000136
 29,0.00116022,0.00133681,0.00053068,-0.00177744,0.00048563,0.00015185,
 0.00214258,-0.00067341,0.00017168,-0.00129801,-0.00083642,0.00070819,-
 0.00109461,-0.00423884,0.00217123,-0.00136097,0.03198702,-0.01296477,-
 0.00749466,0.00100156,0.00062651,-0.00046832,-0.00027977,-0.00015678,0
 .00024057,0.00223567,0.00840769,0.04884082,0.00012022,0.00041280,-0.00
 026212,-0.03740765,-0.01299950,-0.02771356,-0.00048320,0.00018911,0.00
 071242,0.02905122,0.02757388,0.00703104,-0.00300237,-0.01738377,-0.004
 16888,0.00266968,-0.01314854,0.00042196,-0.00039497,-0.00178122,-0.007
 27739,0.00343489,0.00079700,0.00090192,-0.00127264,0.00052459,-0.00006
 796,-0.00004528,-0.00002159,0.00022286,0.00003197,0.00019448,-0.001111
 29,0.00062199,-0.00103554,-0.00002280,0.00007808,0.00004218,-0.0003378
 2,0.00012050,-0.00008814,-0.00330955,0.00118258,-0.00062950,0.00511040
 ,-0.00358313,-0.00581112,0.00098787,0.00045286,-0.00034601,0.00014670,
 0.00036028,0.00008298,-0.01017587,0.01036218,-0.00437731,-0.00028173,0
 .00040993,0.00025430,-0.01263377,0.01179721,-0.03048408,0.00010867,-0.
 00037685,0.00041918,0.01608509,-0.01307835,0.06977799,0.00216625,-0.00
 108525,0.00486619,0.00544504,-0.00155760,-0.00507811,-0.00135486,0.000
 02174,-0.00069977,-0.00076605,0.00055591,0.00051290,0.00015195,0.00019
 438,-0.00017929,0.00003798,-0.00000112,-0.00006034,-0.00016017,-0.0001
 0443,0.00035872,-0.00013977,-0.00001239,-0.00023585,0.00005006,-0.0000
 2490,0.00007586,-0.00006829,-0.00004348,-0.00009305,0.00081853,-0.0010
 4886,0.00056559,-0.00478641,0.00399193,0.00052861,-0.00022056,-0.00001
 589,0.00036218,0.00029793,0.00030779,0.00095304,-0.00765965,-0.0107546
 8,-0.00723131,0.00000299,-0.00002209,-0.00017302,-0.13760883,-0.138148
 20,0.00721338,0.00266878,-0.00356989,-0.00172634,-0.00234706,0.0161839
 5,0.00085309,0.15343753,-0.00203264,0.00151613,-0.00540071,-0.00507775
 ,0.00345946,0.00557311,0.00134682,-0.00056018,0.00048509,0.00114628,-0
 .00081760,-0.00052754,-0.00007966,0.00016524,0.00029823,-0.00003918,0.
 00002014,0.00009674,0.00017489,0.00012819,-0.00043217,0.00013549,-0.00
 006403,0.00029515,-0.00007743,0.00005296,-0.00002729,0.00012443,-0.000
 08853,0.00011465,-0.00106654,-0.00095710,-0.00055467,0.00435903,-0.002
 20594,-0.00012631,0.00038768,0.00027905,0.00007189,0.00012149,0.000756
 28,0.00057942,-0.00364615,-0.00316541,0.00746815,0.00009533,0.00018135
 ,-0.00011865,-0.14782543,-0.21315542,-0.01400991,-0.00151290,0.0031959
 6,-0.00167515,0.00147373,-0.01960867,-0.00049279,0.15038521,0.22981150
 ,0.00060399,-0.00041246,0.00099238,0.00136085,-0.00119449,-0.00097093,
 -0.00026402,-0.00016193,0.00022823,-0.00001584,0.00019709,0.00009040,-
 0.00014984,0.00059610,0.00015990,-0.00000130,0.00004970,-0.00007039,-0
 .00006319,-0.00000503,0.00006408,-0.00000971,-0.00006620,-0.00001352,0
 .00001703,-0.00003419,0.00001822,-0.00010332,-0.00000515,-0.00007649,0
 .00045433,-0.00041303,-0.00081255,-0.00114708,0.00180551,0.00062464,0.
 00009175,0.00000155,0.00003481,0.00079736,0.00038944,-0.00073330,-0.01
 896310,-0.02415279,0.00355961,-0.00029618,0.00072714,-0.00021352,0.005
 71939,-0.00575404,-0.05100559,-0.00046112,-0.00352868,-0.00407329,-0.0
 0038105,0.00495072,0.00039854,0.00085637,0.00824895,0.04966030,0.00014
 263,0.00024387,0.00207315,0.00076916,0.00009455,-0.00044221,-0.0002655
 9,0.00050510,-0.00080762,0.00008195,-0.00009406,0.00012601,0.00002595,
 -0.00015093,0.00016184,-0.00000678,0.00006582,-0.00003155,-0.00010282,
 -0.00002822,0.00028101,0.00001541,-0.00002330,-0.00007643,-0.00010049,
 0.00015182,-0.00006315,-0.00018423,-0.00009826,-0.00006817,-0.00010267
 ,-0.00013160,-0.00009518,-0.00114243,-0.00252935,-0.00092770,0.0000320
 6,-0.00002101,0.00003052,0.00008288,0.00014827,-0.00000446,0.01100351,
 -0.00020522,-0.01451101,0.00023285,-0.00030314,-0.00052143,-0.16513553
 ,-0.01597592,0.14691111,-0.00042637,0.00236649,-0.00025551,-0.00669635
 ,-0.00103220,0.00751748,-0.00996539,0.00160729,0.01195468,0.17174226,-
 0.00091325,0.00036826,-0.00472376,-0.00243401,0.00121637,0.00212529,0.
 00074485,-0.00116076,0.00130031,0.00022483,0.00001733,-0.00008298,-0.0
 0032081,0.00081978,0.00015984,0.00000772,-0.00003022,0.00004361,0.0001
 6429,0.00007748,-0.00048656,0.00001050,-0.00001344,0.00009142,0.000113
 35,-0.00010350,0.00007547,0.00014421,-0.00000024,0.00011099,-0.0004344
 9,-0.00073224,-0.00097447,0.00142588,0.00154890,-0.00328597,0.00022592
 ,0.00024543,0.00002163,0.00028265,0.00036321,0.00016129,0.00679259,0.0
 0075015,-0.00200876,-0.00004353,0.00041011,-0.00050744,-0.01662353,-0.
 04351290,-0.00012861,0.00237165,-0.00175717,0.00070903,0.00810327,-0.0
 0101822,-0.00927576,-0.01525211,0.00105663,0.01876178,0.01541002,0.041
 45502,-0.00040977,0.00038051,0.00154143,0.00114894,-0.00090402,-0.0003
 1679,-0.00022972,0.00050272,-0.00051033,0.00006218,-0.00004594,-0.0001
 5128,0.00038571,-0.00018620,-0.00000887,-0.00001531,0.00001704,-0.0000
 0711,-0.00003717,-0.00003726,0.00013979,0.00004078,-0.00002509,0.00005
 158,-0.00002763,0.00001527,-0.00000209,-0.00005993,0.00001739,0.000000
 14,-0.00034354,-0.00035945,0.00037379,-0.00374717,-0.00334528,-0.00241
 290,-0.00001230,-0.00002977,-0.00002275,0.00001754,0.00005823,0.000068
 14,0.02201729,0.00119476,-0.02000927,0.00073016,-0.00010499,-0.0011962
 2,0.13758312,0.00343221,-0.20621890,-0.00122973,0.00144528,0.00088615,
 -0.00295322,-0.00007286,0.00261557,-0.00166886,0.00013380,0.00213846,-
 0.15125138,-0.00208636,0.22304147\\0.00013121,-0.00035584,-0.00000629,
 -0.00015106,0.00040002,0.00000184,0.00000451,-0.00001776,-0.00000302,-
 0.00000147,0.00000489,-0.00000257,-0.00000144,-0.00002106,0.00000768,0
 .00000044,0.00000021,0.00000025,-0.00000176,-0.00000037,-0.00000156,-0
 .00000302,0.00000043,-0.00000108,-0.00000007,0.00000024,0.00000005,0.0
 0000047,-0.00000073,0.00000222,-0.00000034,0.00000373,0.00000059,0.000
 00954,-0.00000158,-0.00000039,0.00000089,-0.00000080,0.00000135,-0.000
 00074,-0.00000035,-0.00000052,0.00000064,0.00000436,0.00001041,0.00000
 028,-0.00000032,0.00000045,-0.00000581,-0.00000031,-0.00000852,0.00000
 076,-0.00000057,0.00000114,0.00001789,-0.00001623,-0.00000344,-0.00000
 128,-0.00000036,0.00000156,0.00000033,0.00000239,-0.00000015\\\@


 WHEN ALL ELSE FAILS, TRY THE BOSS'S SUGGESTION.
 Job cpu time:       0 days  2 hours 30 minutes 32.7 seconds.
 Elapsed time:       0 days  0 hours 12 minutes 41.0 seconds.
 File lengths (MBytes):  RWF=    205 Int=      0 D2E=      0 Chk=     32 Scr=      1
 Normal termination of Gaussian 16 at Fri Jun 10 12:16:57 2022.
