 Entering Gaussian System, Link 0=g16
 Input=ts_zmat_field_N25.gjf
 Output=ts_zmat_field_N25.out
 Initial command:
 /software/gaussian/g16-a03/l1.exe "/local_scratch/11174462/Gau-19135.inp" -scrdir="/local_scratch/11174462/"
 Entering Link 1 = /software/gaussian/g16-a03/l1.exe PID=     19136.
  
 Copyright (c) 1988,1990,1992,1993,1995,1998,2003,2009,2016,
            Gaussian, Inc.  All Rights Reserved.
  
 This is part of the Gaussian(R) 16 program.  It is based on
 the Gaussian(R) 09 system (copyright 2009, Gaussian, Inc.),
 the Gaussian(R) 03 system (copyright 2003, Gaussian, Inc.),
 the Gaussian(R) 98 system (copyright 1998, Gaussian, Inc.),
 the Gaussian(R) 94 system (copyright 1995, Gaussian, Inc.),
 the Gaussian 92(TM) system (copyright 1992, Gaussian, Inc.),
 the Gaussian 90(TM) system (copyright 1990, Gaussian, Inc.),
 the Gaussian 88(TM) system (copyright 1988, Gaussian, Inc.),
 the Gaussian 86(TM) system (copyright 1986, Carnegie Mellon
 University), and the Gaussian 82(TM) system (copyright 1983,
 Carnegie Mellon University). Gaussian is a federally registered
 trademark of Gaussian, Inc.
  
 This software contains proprietary and confidential information,
 including trade secrets, belonging to Gaussian, Inc.
  
 This software is provided under written license and may be
 used, copied, transmitted, or stored only in accord with that
 written license.
  
 The following legend is applicable only to US Government
 contracts under FAR:
  
                    RESTRICTED RIGHTS LEGEND
  
 Use, reproduction and disclosure by the US Government is
 subject to restrictions as set forth in subparagraphs (a)
 and (c) of the Commercial Computer Software - Restricted
 Rights clause in FAR 52.227-19.
  
 Gaussian, Inc.
 340 Quinnipiac St., Bldg. 40, Wallingford CT 06492
  
  
 ---------------------------------------------------------------
 Warning -- This program may not be used in any manner that
 competes with the business of Gaussian, Inc. or will provide
 assistance to any competitor of Gaussian, Inc.  The licensee
 of this program is prohibited from giving any competitor of
 Gaussian, Inc. access to this program.  By using this program,
 the user acknowledges that Gaussian, Inc. is engaged in the
 business of creating and licensing software in the field of
 computational chemistry and represents and warrants to the
 licensee that it is not a competitor of Gaussian, Inc. and that
 it will not use this program in any manner prohibited above.
 ---------------------------------------------------------------
  

 Cite this work as:
 Gaussian 16, Revision A.03,
 M. J. Frisch, G. W. Trucks, H. B. Schlegel, G. E. Scuseria, 
 M. A. Robb, J. R. Cheeseman, G. Scalmani, V. Barone, 
 G. A. Petersson, H. Nakatsuji, X. Li, M. Caricato, A. V. Marenich, 
 J. Bloino, B. G. Janesko, R. Gomperts, B. Mennucci, H. P. Hratchian, 
 J. V. Ortiz, A. F. Izmaylov, J. L. Sonnenberg, D. Williams-Young, 
 F. Ding, F. Lipparini, F. Egidi, J. Goings, B. Peng, A. Petrone, 
 T. Henderson, D. Ranasinghe, V. G. Zakrzewski, J. Gao, N. Rega, 
 G. Zheng, W. Liang, M. Hada, M. Ehara, K. Toyota, R. Fukuda, 
 J. Hasegawa, M. Ishida, T. Nakajima, Y. Honda, O. Kitao, H. Nakai, 
 T. Vreven, K. Throssell, J. A. Montgomery, Jr., J. E. Peralta, 
 F. Ogliaro, M. J. Bearpark, J. J. Heyd, E. N. Brothers, K. N. Kudin, 
 V. N. Staroverov, T. A. Keith, R. Kobayashi, J. Normand, 
 K. Raghavachari, A. P. Rendell, J. C. Burant, S. S. Iyengar, 
 J. Tomasi, M. Cossi, J. M. Millam, M. Klene, C. Adamo, R. Cammi, 
 J. W. Ochterski, R. L. Martin, K. Morokuma, O. Farkas, 
 J. B. Foresman, and D. J. Fox, Gaussian, Inc., Wallingford CT, 2016.
 
 ******************************************
 Gaussian 16:  ES64L-G16RevA.03 25-Dec-2016
                10-Jun-2022 
 ******************************************
 %nprocshared=12
 Will use up to   12 processors via shared memory.
 %chk=checkpoint.chk
 %mem=12GB
 ----------------------------------------------------------------------
 # Opt=(TS, CalcFC, noeigentest, Z-matrix, MaxStep=10) Field=read NoSym
 m B3LYP/Def2TZVP freq=noraman pop=none
 ----------------------------------------------------------------------
 1/5=1,8=10,10=4,11=1,18=40,26=3,38=1/1,3;
 2/12=2,15=1,17=6,18=5,29=3,40=1/2;
 3/5=44,7=101,11=2,14=-6,25=1,30=1,71=2,74=-5,140=1/1,2,3;
 4//1;
 5/5=2,38=5/2;
 8/6=4,10=90,11=11/1;
 11/6=1,8=1,9=11,15=111,16=1,31=1/1,2,10;
 10/6=1,13=1,31=1/2;
 7/10=1,18=20,25=1,30=1/1,2,3,16;
 1/5=1,8=10,10=4,11=1,18=40,26=3/3(2);
 2/15=1,29=3/2;
 99//99;
 2/15=1,29=3/2;
 3/5=44,7=101,11=2,14=-2,25=1,30=1,71=1,74=-5/1,2,3;
 4/5=5,16=3,69=1/1;
 5/5=2,38=5/2;
 7/30=1/1,2,3,16;
 1/5=1,8=10,11=1,18=40,26=3/3(-5);
 2/15=1,29=3/2;
 99/9=1/99;
 -----------------
 ts_zmat_initalOpt
 -----------------
 Symbolic Z-matrix:
 Charge =  0 Multiplicity = 1
 H
 C                    1    R2
 C                    2    R3       1    A3
 O                    2    R4       1    A4       3    D4       0
 H                    2    R5       1    A5       3    D5       0
 C                    4    R6       2    A6       1    D6       0
 C                    3    R7       2    A7       1    D7       0
 C                    6    R8       4    A8       2    D8       0
 H                    6    R9       4    A9       8    D9       0
 H                    6    R10      4    A10      8    D10      0
 C                    7    R11      3    A11      2    D11      0
 C                    8    R12      6    A12      4    D12      0
 H                    8    R13      6    A13      12   D13      0
 H                    11   R14      7    A14      3    D14      0
 H                    11   R15      7    A15      14   D15      0
 H                    11   R16      7    A16      14   D16      0
 C                    12   R17      8    A17      6    D17      0
 H                    12   R18      8    A18      17   D18      0
 H                    17   R19      12   A19      8    D19      0
 H                    17   R20      12   A20      19   D20      0
 H                    17   R21      12   A21      19   D21      0
       Variables:
  R2                    1.09482                  
  R3                    1.46792                  
  R4                    1.43347                  
  R5                    1.09584                  
  R6                    1.43422                  
  R7                    1.24932                  
  R8                    1.49891                  
  R9                    1.09287                  
  R10                   1.09488                  
  R11                   1.4831                   
  R12                   1.3793                   
  R13                   1.08844                  
  R14                   1.09215                  
  R15                   1.09277                  
  R16                   1.09284                  
  R17                   1.40895                  
  R18                   1.08616                  
  R19                   1.08626                  
  R20                   1.33997                  
  R21                   1.08528                  
  A3                  109.90137                  
  A4                  107.28009                  
  A5                  108.03449                  
  A6                  112.65145                  
  A7                  153.08873                  
  A8                  109.43257                  
  A9                  104.84936                  
  A10                 110.89326                  
  A11                 146.20989                  
  A12                 129.62783                  
  A13                 111.38959                  
  A14                 111.74768                  
  A15                 110.9281                   
  A16                 110.62195                  
  A17                 124.14998                  
  A18                 115.66852                  
  A19                 119.46784                  
  A20                  94.35546                  
  A21                 117.6781                   
  D4                  120.36947                  
  D5                 -121.95031                  
  D6                 -134.0311                   
  D7                    3.66039                  
  D8                  -35.40934                  
  D9                 -119.08782                  
  D10                 124.29216                  
  D11                 -23.29377                  
  D12                 146.13262                  
  D13                 156.49386                  
  D14                   2.06209                  
  D15                -120.83328                  
  D16                 120.80071                  
  D17                 -41.09774                  
  D18                -156.05305                  
  D19                  40.91004                  
  D20                -101.20729                  
  D21                 143.75217                  
 

 GradGradGradGradGradGradGradGradGradGradGradGradGradGradGradGradGradGrad
 Berny optimization.
 Initialization pass.
                       ----------------------------
                       !    Initial Parameters    !
                       ! (Angstroms and Degrees)  !
 ----------------------                            ----------------------
 !      Name          Value   Derivative information (Atomic Units)     !
 ------------------------------------------------------------------------
 !       R2          1.0948   calculate D2E/DX2 analytically            !
 !       R3          1.4679   calculate D2E/DX2 analytically            !
 !       R4          1.4335   calculate D2E/DX2 analytically            !
 !       R5          1.0958   calculate D2E/DX2 analytically            !
 !       R6          1.4342   calculate D2E/DX2 analytically            !
 !       R7          1.2493   calculate D2E/DX2 analytically            !
 !       R8          1.4989   calculate D2E/DX2 analytically            !
 !       R9          1.0929   calculate D2E/DX2 analytically            !
 !       R10         1.0949   calculate D2E/DX2 analytically            !
 !       R11         1.4831   calculate D2E/DX2 analytically            !
 !       R12         1.3793   calculate D2E/DX2 analytically            !
 !       R13         1.0884   calculate D2E/DX2 analytically            !
 !       R14         1.0921   calculate D2E/DX2 analytically            !
 !       R15         1.0928   calculate D2E/DX2 analytically            !
 !       R16         1.0928   calculate D2E/DX2 analytically            !
 !       R17         1.409    calculate D2E/DX2 analytically            !
 !       R18         1.0862   calculate D2E/DX2 analytically            !
 !       R19         1.0863   calculate D2E/DX2 analytically            !
 !       R20         1.34     calculate D2E/DX2 analytically            !
 !       R21         1.0853   calculate D2E/DX2 analytically            !
 !       A3        109.9014   calculate D2E/DX2 analytically            !
 !       A4        107.2801   calculate D2E/DX2 analytically            !
 !       A5        108.0345   calculate D2E/DX2 analytically            !
 !       A6        112.6514   calculate D2E/DX2 analytically            !
 !       A7        153.0887   calculate D2E/DX2 analytically            !
 !       A8        109.4326   calculate D2E/DX2 analytically            !
 !       A9        104.8494   calculate D2E/DX2 analytically            !
 !       A10       110.8933   calculate D2E/DX2 analytically            !
 !       A11       146.2099   calculate D2E/DX2 analytically            !
 !       A12       129.6278   calculate D2E/DX2 analytically            !
 !       A13       111.3896   calculate D2E/DX2 analytically            !
 !       A14       111.7477   calculate D2E/DX2 analytically            !
 !       A15       110.9281   calculate D2E/DX2 analytically            !
 !       A16       110.6219   calculate D2E/DX2 analytically            !
 !       A17       124.15     calculate D2E/DX2 analytically            !
 !       A18       115.6685   calculate D2E/DX2 analytically            !
 !       A19       119.4678   calculate D2E/DX2 analytically            !
 !       A20        94.3555   calculate D2E/DX2 analytically            !
 !       A21       117.6781   calculate D2E/DX2 analytically            !
 !       D4        120.3695   calculate D2E/DX2 analytically            !
 !       D5       -121.9503   calculate D2E/DX2 analytically            !
 !       D6       -134.0311   calculate D2E/DX2 analytically            !
 !       D7          3.6604   calculate D2E/DX2 analytically            !
 !       D8        -35.4093   calculate D2E/DX2 analytically            !
 !       D9       -119.0878   calculate D2E/DX2 analytically            !
 !       D10       124.2922   calculate D2E/DX2 analytically            !
 !       D11       -23.2938   calculate D2E/DX2 analytically            !
 !       D12       146.1326   calculate D2E/DX2 analytically            !
 !       D13       156.4939   calculate D2E/DX2 analytically            !
 !       D14         2.0621   calculate D2E/DX2 analytically            !
 !       D15      -120.8333   calculate D2E/DX2 analytically            !
 !       D16       120.8007   calculate D2E/DX2 analytically            !
 !       D17       -41.0977   calculate D2E/DX2 analytically            !
 !       D18      -156.0531   calculate D2E/DX2 analytically            !
 !       D19        40.91     calculate D2E/DX2 analytically            !
 !       D20      -101.2073   calculate D2E/DX2 analytically            !
 !       D21       143.7522   calculate D2E/DX2 analytically            !
 ------------------------------------------------------------------------
 Trust Radius=1.00D-01 FncErr=1.00D-07 GrdErr=1.00D-06 EigMax=2.50D+02 EigMin=1.00D-04
 Number of steps in this run=     67 maximum allowed number of steps=    114.
 Search for a saddle point of order  1.
 GradGradGradGradGradGradGradGradGradGradGradGradGradGradGradGradGradGrad

 ---------------------------------------------------------------------------------------------------
                            Z-MATRIX (ANGSTROMS AND DEGREES)
   CD    Cent   Atom    N1       Length/X        N2       Alpha/Y        N3        Beta/Z          J
 ---------------------------------------------------------------------------------------------------
      1      1  H 
      2      2  C        1   1.094816(     1)
      3      3  C        2   1.467916(     2)      1  109.901(    21)
      4      4  O        2   1.433471(     3)      1  107.280(    22)      3  120.369(    40)      0
      5      5  H        2   1.095839(     4)      1  108.034(    23)      3 -121.950(    41)      0
      6      6  C        4   1.434219(     5)      2  112.651(    24)      1 -134.031(    42)      0
      7      7  C        3   1.249316(     6)      2  153.089(    25)      1    3.660(    43)      0
      8      8  C        6   1.498910(     7)      4  109.433(    26)      2  -35.409(    44)      0
      9      9  H        6   1.092865(     8)      4  104.849(    27)      8 -119.088(    45)      0
     10     10  H        6   1.094884(     9)      4  110.893(    28)      8  124.292(    46)      0
     11     11  C        7   1.483100(    10)      3  146.210(    29)      2  -23.294(    47)      0
     12     12  C        8   1.379296(    11)      6  129.628(    30)      4  146.133(    48)      0
     13     13  H        8   1.088436(    12)      6  111.390(    31)     12  156.494(    49)      0
     14     14  H       11   1.092148(    13)      7  111.748(    32)      3    2.062(    50)      0
     15     15  H       11   1.092769(    14)      7  110.928(    33)     14 -120.833(    51)      0
     16     16  H       11   1.092840(    15)      7  110.622(    34)     14  120.801(    52)      0
     17     17  C       12   1.408950(    16)      8  124.150(    35)      6  -41.098(    53)      0
     18     18  H       12   1.086164(    17)      8  115.669(    36)     17 -156.053(    54)      0
     19     19  H       17   1.086256(    18)     12  119.468(    37)      8   40.910(    55)      0
     20     20  H       17   1.339966(    19)     12   94.355(    38)     19 -101.207(    56)      0
     21     21  H       17   1.085285(    20)     12  117.678(    39)     19  143.752(    57)      0
 ---------------------------------------------------------------------------------------------------
                         Z-Matrix orientation:                         
 ---------------------------------------------------------------------
 Center     Atomic      Atomic             Coordinates (Angstroms)
 Number     Number       Type             X           Y           Z
 ---------------------------------------------------------------------
      1          1           0        0.000000    0.000000    0.000000
      2          6           0        0.000000    0.000000    1.094816
      3          6           0        1.380252    0.000000    1.594497
      4          8           0       -0.692015    1.180952    1.520619
      5          1           0       -0.551410   -0.884146    1.434076
      6          6           0        0.000526    1.881342    2.563128
      7          6           0        2.619836    0.036100    1.443114
      8          6           0        0.673415    0.892491    3.466524
      9          1           0       -0.778745    2.431316    3.096624
     10          1           0        0.706387    2.606099    2.144488
     11          6           0        3.756973   -0.210665    0.523541
     12          6           0        1.866106    0.996368    4.151473
     13          1           0       -0.042054    0.188539    3.887532
     14          1           0        3.417650   -0.548441   -0.458067
     15          1           0        4.431087   -0.968154    0.930880
     16          1           0        4.347532    0.698965    0.388956
     17          6           0        3.038264    1.566584    3.616647
     18          1           0        2.008531    0.283998    4.958935
     19          1           0        2.967561    2.468838    3.015904
     20          1           0        3.126709    0.689604    2.607393
     21          1           0        3.939660    1.524826    4.219626
 ---------------------------------------------------------------------
                    Distance matrix (angstroms):
                    1          2          3          4          5
     1  H    0.000000
     2  C    1.094816   0.000000
     3  C    2.108914   1.467916   0.000000
     4  O    2.045926   1.433471   2.386293   0.000000
     5  H    1.772665   1.095839   2.130438   2.071687   0.000000
     6  C    3.179476   2.386501   2.526130   1.434219   3.037649
     7  C    2.991225   2.643134   1.249316   3.505004   3.302081
     8  C    3.642364   2.622027   2.191037   2.394610   2.964368
     9  H    4.013330   3.244222   3.581752   2.013635   3.715916
    10  H    3.448124   2.896989   2.747423   2.091838   3.777373
    11  C    3.799121   3.805993   2.615364   4.766996   4.454752
    12  C    4.659381   3.717291   2.786921   3.674159   4.094504
    13  H    3.892328   2.799388   2.704904   2.647566   2.725718
    14  H    3.491553   3.793753   2.943603   4.878047   4.409800
    15  H    4.630161   4.538582   3.268838   5.586825   5.008547
    16  H    4.420506   4.459577   3.278206   5.187485   5.253394
    17  C    4.976481   4.247925   3.048324   4.296164   4.863687
    18  H    5.357788   4.364203   3.434361   4.463126   4.510265
    19  H    4.898700   4.311862   3.261152   4.157767   5.111539
    20  H    4.129208   3.541151   2.133453   4.000644   4.169163
    21  H    5.970868   5.254565   3.970764   5.371713   5.807938
                    6          7          8          9         10
     6  C    0.000000
     7  C    3.394132   0.000000
     8  C    1.498910   2.935328   0.000000
     9  H    1.092865   4.474540   2.147925   0.000000
    10  H    1.094884   3.279955   2.164560   1.772775   0.000000
    11  C    4.758917   1.483100   4.403002   5.845815   4.457320
    12  C    2.605073   2.970763   1.379296   3.188577   2.822086
    13  H    2.149753   3.617192   1.088436   2.489638   3.072940
    14  H    5.167997   2.143055   5.000952   6.254959   4.906665
    15  H    5.514864   2.133433   4.900162   6.587047   5.302972
    16  H    5.002149   2.129688   4.796667   6.050721   4.469562
    17  C    3.230608   2.691042   2.463625   3.948132   2.947116
    18  H    3.510482   3.577170   2.092866   3.980966   3.874125
    19  H    3.058341   2.917670   2.819757   3.747363   2.427162
    20  H    3.345925   1.428122   2.607282   4.304123   3.121729
    21  H    4.288107   3.415737   3.411065   4.934188   3.991166
                   11         12         13         14         15
    11  C    0.000000
    12  C    4.265465   0.000000
    13  H    5.090030   2.088858   0.000000
    14  H    1.092148   5.103095   5.603295   0.000000
    15  H    1.092769   4.561873   5.485318   1.769855   0.000000
    16  H    1.092840   4.516908   5.636402   1.771482   1.754978
    17  C    3.639019   1.408950   3.385373   4.606577   3.946922
    18  H    4.793168   1.086164   2.315582   5.658841   4.864349
    19  H    3.743632   2.161223   3.875214   4.623314   4.278101
    20  H    2.355877   2.016781   3.454110   3.318802   2.694487
    21  H    4.087340   2.140920   4.213075   5.143126   4.155995
                   16         17         18         19         20
    16  H    0.000000
    17  C    3.589559   0.000000
    18  H    5.150518   2.122997   0.000000
    19  H    3.455088   1.086256   3.077114   0.000000
    20  H    2.532185   1.339966   2.635258   1.832453   0.000000
    21  H    3.939853   1.085285   2.411533   1.812480   1.989417
                   21
    21  H    0.000000
 Symmetry turned off by external request.
 Stoichiometry    C8H12O
 Framework group  C1[X(C8H12O)]
 Deg. of freedom    57
 Full point group                 C1      NOp   1
 Rotational constants (GHZ):           1.9776427           1.5037763           0.9634887
 Standard basis: def2TZVP (5D, 7F)
 The following finite field(s) will be applied:
 An electric field of             -0.0020  0.0006 -0.0013
   351 basis functions,   555 primitive gaussians,   396 cartesian basis functions
    34 alpha electrons       34 beta electrons
       nuclear repulsion energy       445.2971035986 Hartrees.
 NAtoms=   21 NActive=   21 NUniq=   21 SFac= 1.00D+00 NAtFMM=   60 NAOKFM=F Big=F
 Integral buffers will be    131072 words long.
 Raffenetti 2 integral format.
 Two-electron integral symmetry is turned off.
 One-electron integrals computed using PRISM.
   1 Symmetry operations used in ECPInt.
 ECPInt:  NShTT=   10878 NPrTT=   32112 LenC2=   10638 LenP2D=   24940.
 LDataN:  DoStor=T MaxTD1= 6 Len=  172
 NBasis=   351 RedAO= T EigKep=  2.24D-05  NBF=   351
 NBsUse=   351 1.00D-06 EigRej= -1.00D+00 NBFU=   351
 The nuclear repulsion energy is now       444.6025283189 hartrees.
 ExpMin= 9.52D-02 ExpMax= 2.70D+04 ExpMxC= 9.22D+02 IAcc=3 IRadAn=         5 AccDes= 0.00D+00
 Harris functional with IExCor=  402 and IRadAn=       5 diagonalized for initial guess.
 HarFok:  IExCor=  402 AccDes= 0.00D+00 IRadAn=         5 IDoV= 1 UseB2=F ITyADJ=14
 ICtDFT=  3500011 ScaDFX=  1.000000  1.000000  1.000000  1.000000
 FoFCou: FMM=F IPFlag=           0 FMFlag=      100000 FMFlg1=           0
         NFxFlg=           0 DoJE=T BraDBF=F KetDBF=T FulRan=T
         wScrn=  0.000000 ICntrl=       500 IOpCl=  0 I1Cent=   200000004 NGrid=           0
         NMat0=    1 NMatS0=      1 NMatT0=    0 NMatD0=    1 NMtDS0=    0 NMtDT0=    0
 Symmetry not used in FoFCou.
 Requested convergence on RMS density matrix=1.00D-08 within 128 cycles.
 Requested convergence on MAX density matrix=1.00D-06.
 Requested convergence on             energy=1.00D-06.
 No special actions if energy rises.
 Integral accuracy reduced to 1.0D-05 until final iterations.
 Initial convergence to 1.0D-05 achieved.  Increase integral accuracy.
 SCF Done:  E(RB3LYP) =  -387.288881127     A.U. after   14 cycles
            NFock= 14  Conv=0.58D-08     -V/T= 2.0053
 DoSCS=F DFT=T ScalE2(SS,OS)=  1.000000  1.000000
 Range of M.O.s used for correlation:     1   351
 NBasis=   351 NAE=    34 NBE=    34 NFC=     0 NFV=     0
 NROrb=    351 NOA=    34 NOB=    34 NVA=   317 NVB=   317

 **** Warning!!: The largest alpha MO coefficient is  0.34393162D+02

   1 Symmetry operations used in ECPInt.
 ECPInt:  NShTT=   10878 NPrTT=   32112 LenC2=   10638 LenP2D=   24940.
 LDataN:  DoStor=T MaxTD1= 7 Len=  274
 Symmetrizing basis deriv contribution to polar:
 IMax=3 JMax=2 DiffMx= 0.00D+00
 G2DrvN: will do    22 centers at a time, making    1 passes.
 Calling FoFCou, ICntrl=  3107 FMM=F I1Cent=   0 AccDes= 0.00D+00.
 End of G2Drv F.D. properties file   721 does not exist.
 End of G2Drv F.D. properties file   722 does not exist.
 End of G2Drv F.D. properties file   788 does not exist.
          IDoAtm=111111111111111111111
          Differentiating once with respect to nuclear coordinates.
 CalDSu exits because no D1Ps are significant.
          There are    66 degrees of freedom in the 1st order CPHF.  IDoFFX=6 NUNeed=     0.
     60 vectors produced by pass  0 Test12= 1.63D-14 1.52D-09 XBig12= 1.59D-01 1.32D-01.
 AX will form    60 AO Fock derivatives at one time.
     60 vectors produced by pass  1 Test12= 1.63D-14 1.52D-09 XBig12= 2.70D-02 4.31D-02.
     60 vectors produced by pass  2 Test12= 1.63D-14 1.52D-09 XBig12= 3.44D-04 2.46D-03.
     60 vectors produced by pass  3 Test12= 1.63D-14 1.52D-09 XBig12= 1.25D-06 1.30D-04.
     60 vectors produced by pass  4 Test12= 1.63D-14 1.52D-09 XBig12= 2.41D-09 5.06D-06.
     52 vectors produced by pass  5 Test12= 1.63D-14 1.52D-09 XBig12= 3.91D-12 2.25D-07.
      9 vectors produced by pass  6 Test12= 1.63D-14 1.52D-09 XBig12= 5.25D-15 8.77D-09.
 InvSVY:  IOpt=1 It=  1 EMax= 3.89D-16
 Solved reduced A of dimension   361 with    66 vectors.
 End of Minotr F.D. properties file   721 does not exist.
 End of Minotr F.D. properties file   722 does not exist.
 End of Minotr F.D. properties file   788 does not exist.
   1 Symmetry operations used in ECPInt.
 ECPInt:  NShTT=   10878 NPrTT=   32112 LenC2=   10638 LenP2D=   24940.
 LDataN:  DoStor=T MaxTD1= 8 Len=  415
 Calling FoFJK, ICntrl=    100147 FMM=F ISym2X=0 I1Cent= 0 IOpClX= 0 NMat=1 NMatS=1 NMatT=0.
 -------------------------------------------------------------------
 Center     Atomic                   Forces (Hartrees/Bohr)
 Number     Number              X              Y              Z
 -------------------------------------------------------------------
      1        1          -0.000150438    0.000057282   -0.000298045
      2        6           0.001447508   -0.000565095    0.000191697
      3        6          -0.000777866    0.000110698    0.000328189
      4        8          -0.001497337    0.000407738   -0.001000555
      5        1          -0.000065403   -0.000087013    0.000106568
      6        6           0.000925577   -0.000076790    0.000995310
      7        6          -0.000055773    0.000191358   -0.000618533
      8        6          -0.000082338    0.000038338   -0.000425120
      9        1          -0.000226066    0.000124191    0.000020857
     10        1           0.000048237   -0.000053976    0.000046537
     11        6           0.000319809   -0.000106893    0.000246254
     12        6           0.000772800   -0.000149742   -0.000135139
     13        1          -0.000066253    0.000030638    0.000100018
     14        1          -0.000075455   -0.000108528   -0.000041859
     15        1          -0.000078560    0.000236193   -0.000039956
     16        1           0.000065257   -0.000134915    0.000174154
     17        6          -0.000275890    0.000071784    0.000472223
     18        1          -0.000001908    0.000204849   -0.000084358
     19        1           0.000015745   -0.000017894   -0.000127710
     20        1          -0.000121060   -0.000036379    0.000353471
     21        1          -0.000120586   -0.000135846   -0.000264002
 -------------------------------------------------------------------
 Cartesian Forces:  Max     0.001497337 RMS     0.000414798
 -----------------------------------------------------------------------------------------------
                       Internal Coordinate Forces (Hartree/Bohr or radian)
  Cent   Atom   N1       Length/X         N2         Alpha/Y        N3         Beta/Z          J
 -----------------------------------------------------------------------------------------------
      1  H 
      2  C        1   0.000298(     1)
      3  C        2  -0.000550(     2)      1   0.001326(    21)
      4  O        2   0.000625(     3)      1   0.000245(    22)      3  -0.000598(    40)     0
      5  H        2   0.000136(     4)      1   0.000140(    23)      3  -0.000019(    41)     0
      6  C        4   0.001111(     5)      2  -0.001644(    24)      1  -0.000418(    42)     0
      7  C        3   0.000210(     6)      2   0.000622(    25)      1  -0.000372(    43)     0
      8  C        6  -0.000016(     7)      4   0.000188(    26)      2  -0.000462(    44)     0
      9  H        6   0.000234(     8)      4  -0.000199(    27)      8  -0.000108(    45)     0
     10  H        6  -0.000022(     9)      4   0.000086(    28)      8  -0.000139(    46)     0
     11  C        7  -0.000014(    10)      3   0.001070(    29)      2  -0.000400(    47)     0
     12  C        8   0.000334(    11)      6   0.000095(    30)      4  -0.000526(    48)     0
     13  H        8   0.000062(    12)      6  -0.000027(    31)     12  -0.000203(    49)     0
     14  H       11   0.000095(    13)      7  -0.000109(    32)      3   0.000024(    50)     0
     15  H       11  -0.000227(    14)      7   0.000014(    33)     14  -0.000211(    51)     0
     16  H       11  -0.000098(    15)      7  -0.000002(    34)     14   0.000401(    52)     0
     17  C       12  -0.000630(    16)      8  -0.000031(    35)      6  -0.000561(    53)     0
     18  H       12  -0.000197(    17)      8   0.000131(    36)     17  -0.000144(    54)     0
     19  H       17   0.000055(    18)     12   0.000065(    37)      8  -0.000236(    55)     0
     20  H       17  -0.000250(    19)     12  -0.000586(    38)     19  -0.000397(    56)     0
     21  H       17  -0.000242(    20)     12   0.000132(    39)     19   0.000364(    57)     0
 -----------------------------------------------------------------------------------------------
 Internal  Forces:  Max     0.001644300 RMS     0.000453471

 GradGradGradGradGradGradGradGradGradGradGradGradGradGradGradGradGradGrad
 Berny optimization.
 Search for a saddle point.
 Step number   1 out of a maximum of   67
 All quantities printed in internal units (Hartrees-Bohrs-Radians)
 Swapping is turned off.
 Second derivative matrix not updated -- analytic derivatives used.
 ITU=  0
     Eigenvalues ---   -0.32021   0.00424   0.00642   0.01144   0.01402
     Eigenvalues ---    0.03702   0.04511   0.05573   0.05922   0.07191
     Eigenvalues ---    0.08531   0.09472   0.09730   0.10721   0.11598
     Eigenvalues ---    0.12618   0.14265   0.15294   0.16873   0.16987
     Eigenvalues ---    0.18503   0.21056   0.21414   0.22300   0.22697
     Eigenvalues ---    0.23642   0.24233   0.25615   0.27233   0.28938
     Eigenvalues ---    0.29937   0.30346   0.31428   0.31637   0.32317
     Eigenvalues ---    0.32891   0.32997   0.33871   0.34420   0.34526
     Eigenvalues ---    0.34581   0.34646   0.35480   0.35620   0.35747
     Eigenvalues ---    0.36715   0.36981   0.40409   0.41950   0.43384
     Eigenvalues ---    0.46335   0.48265   0.68799   0.79851   1.51809
     Eigenvalues ---    3.21032   5.77754
 Eigenvectors required to have negative eigenvalues:
                          R20       A7        A11       R17       R7
   1                    0.56738  -0.38945  -0.36470  -0.24277   0.20284
                          D8        D17       R12       A6        A20
   1                    0.20278  -0.17406   0.17220  -0.16307  -0.16241
 RFO step:  Lambda0=1.378917125D-08 Lambda=-5.99014644D-05.
 Linear search not attempted -- option 19 set.
 Variable       Old X    -DE/DX   Delta X   Delta X   Delta X     New X
                                 (Linear)    (Quad)   (Total)
    R2        2.06890   0.00030   0.00000   0.00047   0.00047   2.06937
    R3        2.77396  -0.00055   0.00000  -0.00308  -0.00308   2.77088
    R4        2.70887   0.00062   0.00000   0.00485   0.00485   2.71371
    R5        2.07084   0.00014   0.00000   0.00062   0.00062   2.07146
    R6        2.71028   0.00111   0.00000   0.00497   0.00497   2.71526
    R7        2.36087   0.00021   0.00000   0.00026   0.00026   2.36113
    R8        2.83253  -0.00002   0.00000  -0.00165  -0.00165   2.83088
    R9        2.06522   0.00023   0.00000   0.00068   0.00068   2.06590
   R10        2.06903  -0.00002   0.00000  -0.00025  -0.00025   2.06878
   R11        2.80265  -0.00001   0.00000  -0.00039  -0.00039   2.80227
   R12        2.60649   0.00033   0.00000   0.00117   0.00117   2.60766
   R13        2.05685   0.00006   0.00000   0.00023   0.00023   2.05707
   R14        2.06386   0.00009   0.00000   0.00018   0.00018   2.06404
   R15        2.06503  -0.00023   0.00000  -0.00057  -0.00057   2.06446
   R16        2.06517  -0.00010   0.00000  -0.00037  -0.00037   2.06480
   R17        2.66253  -0.00063   0.00000  -0.00207  -0.00207   2.66046
   R18        2.05255  -0.00020   0.00000  -0.00060  -0.00060   2.05196
   R19        2.05273   0.00005   0.00000  -0.00001  -0.00001   2.05271
   R20        2.53217  -0.00025   0.00000   0.00118   0.00118   2.53335
   R21        2.05089  -0.00024   0.00000  -0.00077  -0.00077   2.05012
    A3        1.91814   0.00133   0.00000   0.00898   0.00898   1.92712
    A4        1.87239   0.00024   0.00000  -0.00582  -0.00582   1.86657
    A5        1.88556   0.00014   0.00000  -0.00054  -0.00054   1.88502
    A6        1.96614  -0.00164   0.00000  -0.00359  -0.00359   1.96255
    A7        2.67190   0.00062   0.00000   0.00461   0.00461   2.67651
    A8        1.90996   0.00019   0.00000   0.00192   0.00192   1.91188
    A9        1.82997  -0.00020   0.00000  -0.00138  -0.00138   1.82858
   A10        1.93545   0.00009   0.00000  -0.00157  -0.00157   1.93388
   A11        2.55184   0.00107   0.00000   0.00828   0.00828   2.56012
   A12        2.26243   0.00010   0.00000  -0.00144  -0.00144   2.26099
   A13        1.94412  -0.00003   0.00000   0.00078   0.00078   1.94489
   A14        1.95036  -0.00011   0.00000   0.00072   0.00072   1.95109
   A15        1.93606   0.00001   0.00000  -0.00185  -0.00185   1.93421
   A16        1.93072  -0.00000   0.00000   0.00063   0.00063   1.93135
   A17        2.16683  -0.00003   0.00000  -0.00028  -0.00028   2.16655
   A18        2.01880   0.00013   0.00000   0.00064   0.00064   2.01944
   A19        2.08511   0.00006   0.00000   0.00177   0.00177   2.08688
   A20        1.64681  -0.00059   0.00000  -0.00345  -0.00345   1.64337
   A21        2.05387   0.00013   0.00000   0.00174   0.00174   2.05561
    D4        2.10084  -0.00060   0.00000   0.00171   0.00171   2.10255
    D5       -2.12843  -0.00002   0.00000  -0.00279  -0.00279  -2.13123
    D6       -2.33928  -0.00042   0.00000  -0.01897  -0.01897  -2.35826
    D7        0.06389  -0.00037   0.00000  -0.00671  -0.00671   0.05718
    D8       -0.61801  -0.00046   0.00000   0.00952   0.00952  -0.60849
    D9       -2.07847  -0.00011   0.00000  -0.00199  -0.00199  -2.08046
   D10        2.16931  -0.00014   0.00000  -0.00088  -0.00088   2.16843
   D11       -0.40655  -0.00040   0.00000  -0.00757  -0.00757  -0.41412
   D12        2.55050  -0.00053   0.00000  -0.00095  -0.00095   2.54954
   D13        2.73133  -0.00020   0.00000  -0.00471  -0.00471   2.72663
   D14        0.03599   0.00002   0.00000   0.01482   0.01482   0.05081
   D15       -2.10894  -0.00021   0.00000   0.00045   0.00045  -2.10849
   D16        2.10837   0.00040   0.00000   0.00308   0.00308   2.11145
   D17       -0.71729  -0.00056   0.00000  -0.00415  -0.00415  -0.72144
   D18       -2.72364  -0.00014   0.00000  -0.00109  -0.00109  -2.72473
   D19        0.71401  -0.00024   0.00000  -0.00459  -0.00459   0.70942
   D20       -1.76640  -0.00040   0.00000   0.00405   0.00405  -1.76235
   D21        2.50895   0.00036   0.00000   0.00878   0.00878   2.51772
         Item               Value     Threshold  Converged?
 Maximum Force            0.001644     0.000450     NO 
 RMS     Force            0.000453     0.000300     NO 
 Maximum Displacement     0.018974     0.001800     NO 
 RMS     Displacement     0.004729     0.001200     NO 
 Predicted change in Energy=-2.998207D-05
 GradGradGradGradGradGradGradGradGradGradGradGradGradGradGradGradGradGrad

 ---------------------------------------------------------------------------------------------------
                            Z-MATRIX (ANGSTROMS AND DEGREES)
   CD    Cent   Atom    N1       Length/X        N2       Alpha/Y        N3        Beta/Z          J
 ---------------------------------------------------------------------------------------------------
      1      1  H 
      2      2  C        1   1.095063(     1)
      3      3  C        2   1.466285(     2)      1  110.416(    21)
      4      4  O        2   1.436036(     3)      1  106.947(    22)      3  120.468(    40)      0
      5      5  H        2   1.096167(     4)      1  108.004(    23)      3 -122.110(    41)      0
      6      6  C        4   1.436851(     5)      2  112.446(    24)      1 -135.118(    42)      0
      7      7  C        3   1.249454(     6)      2  153.353(    25)      1    3.276(    43)      0
      8      8  C        6   1.498037(     7)      4  109.543(    26)      2  -34.864(    44)      0
      9      9  H        6   1.093226(     8)      4  104.770(    27)      8 -119.202(    45)      0
     10     10  H        6   1.094752(     9)      4  110.803(    28)      8  124.242(    46)      0
     11     11  C        7   1.482895(    10)      3  146.684(    29)      2  -23.727(    47)      0
     12     12  C        8   1.379915(    11)      6  129.545(    30)      4  146.078(    48)      0
     13     13  H        8   1.088555(    12)      6  111.434(    31)     12  156.224(    49)      0
     14     14  H       11   1.092243(    13)      7  111.789(    32)      3    2.911(    50)      0
     15     15  H       11   1.092467(    14)      7  110.822(    33)     14 -120.808(    51)      0
     16     16  H       11   1.092643(    15)      7  110.658(    34)     14  120.977(    52)      0
     17     17  C       12   1.407856(    16)      8  124.134(    35)      6  -41.335(    53)      0
     18     18  H       12   1.085849(    17)      8  115.705(    36)     17 -156.115(    54)      0
     19     19  H       17   1.086249(    18)     12  119.569(    37)      8   40.647(    55)      0
     20     20  H       17   1.340592(    19)     12   94.158(    38)     19 -100.975(    56)      0
     21     21  H       17   1.084876(    20)     12  117.778(    39)     19  144.255(    57)      0
 ---------------------------------------------------------------------------------------------------
                         Z-Matrix orientation:                         
 ---------------------------------------------------------------------
 Center     Atomic      Atomic             Coordinates (Angstroms)
 Number     Number       Type             X           Y           Z
 ---------------------------------------------------------------------
      1          1           0        0.000000    0.000000    0.000000
      2          6           0        0.000000    0.000000    1.095063
      3          6           0        1.374182    0.000000    1.606546
      4          8           0       -0.696523    1.183997    1.513639
      5          1           0       -0.554138   -0.883022    1.433865
      6          6           0       -0.015846    1.875069    2.573658
      7          6           0        2.615934    0.032022    1.471778
      8          6           0        0.647435    0.879907    3.475781
      9          1           0       -0.802877    2.420224    3.101419
     10          1           0        0.694593    2.603441    2.169639
     11          6           0        3.772702   -0.225335    0.580357
     12          6           0        1.832850    0.981175    4.174853
     13          1           0       -0.072151    0.174024    3.886729
     14          1           0        3.455143   -0.562282   -0.408894
     15          1           0        4.429152   -0.987656    1.006296
     16          1           0        4.375584    0.678032    0.460652
     17          6           0        3.009714    1.553499    3.655724
     18          1           0        1.966478    0.266600    4.981446
     19          1           0        2.946821    2.455787    3.054178
     20          1           0        3.106155    0.677775    2.645282
     21          1           0        3.906029    1.506918    4.265154
 ---------------------------------------------------------------------
                    Distance matrix (angstroms):
                    1          2          3          4          5
     1  H    0.000000
     2  C    1.095063   0.000000
     3  C    2.114088   1.466285   0.000000
     4  O    2.044040   1.436036   2.387112   0.000000
     5  H    1.772784   1.096167   2.127901   2.073452   0.000000
     6  C    3.184313   2.387965   2.526533   1.436851   3.032483
     7  C    3.001711   2.643114   1.249454   3.507303   3.299712
     8  C    3.643414   2.619394   2.190077   2.397644   2.953154
     9  H    4.015084   3.244620   3.582138   2.015096   3.708644
    10  H    3.459436   2.900875   2.748967   2.092931   3.775727
    11  C    3.823725   3.814313   2.618538   4.778202   4.458988
    12  C    4.663844   3.715797   2.787343   3.677081   4.084845
    13  H    3.891292   2.798015   2.705809   2.653572   2.714075
    14  H    3.524396   3.809995   2.951027   4.897138   4.424135
    15  H    4.648170   4.538803   3.266283   5.589815   5.002694
    16  H    4.451703   4.473023   3.283475   5.204907   5.261766
    17  C    4.983579   4.246024   3.047533   4.296656   4.855341
    18  H    5.362174   4.363723   3.436835   4.467536   4.501163
    19  H    4.903330   4.307293   3.255721   4.155077   5.101938
    20  H    4.135831   3.537054   2.130277   3.999655   4.159490
    21  H    5.976571   5.251413   3.968532   5.372020   5.798371
                    6          7          8          9         10
     6  C    0.000000
     7  C    3.396649   0.000000
     8  C    1.498037   2.934268   0.000000
     9  H    1.093226   4.477444   2.148518   0.000000
    10  H    1.094752   3.284929   2.163054   1.773189   0.000000
    11  C    4.768443   1.482895   4.401402   5.855823   4.472421
    12  C    2.603948   2.969971   1.379915   3.189071   2.819266
    13  H    2.149623   3.616346   1.088555   2.489194   3.072192
    14  H    5.184984   2.143455   5.005381   6.272829   4.928618
    15  H    5.514511   2.131708   4.887488   6.586146   5.310017
    16  H    5.018201   2.129805   4.799047   6.068388   4.491940
    17  C    3.229286   2.690646   2.463021   3.948964   2.944591
    18  H    3.509163   3.576952   2.093573   3.980191   3.871018
    19  H    3.057046   2.913437   2.819277   3.750164   2.424199
    20  H    3.344478   1.426333   2.603054   4.304035   3.122509
    21  H    4.286934   3.412127   3.410966   4.935808   3.988342
                   11         12         13         14         15
    11  C    0.000000
    12  C    4.259002   0.000000
    13  H    5.086697   2.088908   0.000000
    14  H    1.092243   5.101454   5.606812   0.000000
    15  H    1.092467   4.544979   5.468833   1.769859   0.000000
    16  H    1.092643   4.511394   5.636876   1.772484   1.753600
    17  C    3.633770   1.407856   3.384407   4.603918   3.935956
    18  H    4.782680   1.085849   2.315812   5.653223   4.841460
    19  H    3.740360   2.161325   3.874762   4.621688   4.271818
    20  H    2.350279   2.013192   3.449143   3.314744   2.685193
    21  H    4.073844   2.140709   4.212569   5.131434   4.137235
                   16         17         18         19         20
    16  H    0.000000
    17  C    3.583368   0.000000
    18  H    5.139128   2.121789   0.000000
    19  H    3.453716   1.086249   3.077008   0.000000
    20  H    2.526669   1.340592   2.631651   1.831369   0.000000
    21  H    3.921959   1.084876   2.411083   1.812980   1.987778
                   21
    21  H    0.000000
 Symmetry turned off by external request.
 Stoichiometry    C8H12O
 Framework group  C1[X(C8H12O)]
 Deg. of freedom    57
 Full point group                 C1      NOp   1
 Rotational constants (GHZ):           1.9830310           1.4996320           0.9626132
 Standard basis: def2TZVP (5D, 7F)
 The following finite field(s) will be applied:
 An electric field of             -0.0020  0.0006 -0.0013
   351 basis functions,   555 primitive gaussians,   396 cartesian basis functions
    34 alpha electrons       34 beta electrons
       nuclear repulsion energy       445.2261442289 Hartrees.
 NAtoms=   21 NActive=   21 NUniq=   21 SFac= 1.00D+00 NAtFMM=   60 NAOKFM=F Big=F
 Integral buffers will be    131072 words long.
 Raffenetti 2 integral format.
 Two-electron integral symmetry is turned off.
 One-electron integrals computed using PRISM.
   1 Symmetry operations used in ECPInt.
 ECPInt:  NShTT=   10878 NPrTT=   32112 LenC2=   10636 LenP2D=   24941.
 LDataN:  DoStor=T MaxTD1= 6 Len=  172
 NBasis=   351 RedAO= T EigKep=  2.18D-05  NBF=   351
 NBsUse=   351 1.00D-06 EigRej= -1.00D+00 NBFU=   351
 The nuclear repulsion energy is now       444.5302887106 hartrees.
 Initial guess from the checkpoint file:  "checkpoint.chk"
 B after Tr=     0.030791    0.002999   -0.000309
         Rot=    0.999977   -0.001231    0.006616    0.001295 Ang=  -0.79 deg.
 Requested convergence on RMS density matrix=1.00D-08 within 128 cycles.
 Requested convergence on MAX density matrix=1.00D-06.
 Requested convergence on             energy=1.00D-06.
 No special actions if energy rises.
 SCF Done:  E(RB3LYP) =  -387.288911133     A.U. after    9 cycles
            NFock=  9  Conv=0.98D-08     -V/T= 2.0053
   1 Symmetry operations used in ECPInt.
 ECPInt:  NShTT=   10878 NPrTT=   32112 LenC2=   10636 LenP2D=   24941.
 LDataN:  DoStor=T MaxTD1= 7 Len=  274
 Calling FoFJK, ICntrl=      2127 FMM=F ISym2X=0 I1Cent= 0 IOpClX= 0 NMat=1 NMatS=1 NMatT=0.
 -------------------------------------------------------------------
 Center     Atomic                   Forces (Hartrees/Bohr)
 Number     Number              X              Y              Z
 -------------------------------------------------------------------
      1        1           0.000492549   -0.000137020   -0.000002221
      2        6          -0.000499952    0.000174786    0.000008101
      3        6           0.000028053   -0.000046521    0.000000121
      4        8          -0.000001520    0.000004837   -0.000013708
      5        1          -0.000000329   -0.000000165   -0.000002655
      6        6           0.000003094    0.000001579    0.000008945
      7        6          -0.000016675    0.000006934   -0.000004106
      8        6          -0.000000114    0.000003759    0.000019826
      9        1           0.000000434    0.000000012    0.000000767
     10        1           0.000000152    0.000000181   -0.000001263
     11        6           0.000004732   -0.000002590    0.000004921
     12        6          -0.000021671   -0.000010053   -0.000005244
     13        1          -0.000000488    0.000001135    0.000001275
     14        1          -0.000000318   -0.000000225   -0.000000587
     15        1           0.000000589   -0.000000339   -0.000001055
     16        1          -0.000000841    0.000000212    0.000000428
     17        6           0.000015842   -0.000011157   -0.000030398
     18        1          -0.000000455   -0.000000136    0.000000505
     19        1          -0.000002174    0.000001919    0.000000412
     20        1          -0.000001355    0.000013646    0.000015259
     21        1           0.000000448   -0.000000792    0.000000677
 -------------------------------------------------------------------
 Cartesian Forces:  Max     0.000499952 RMS     0.000093296
 -----------------------------------------------------------------------------------------------
                       Internal Coordinate Forces (Hartree/Bohr or radian)
  Cent   Atom   N1       Length/X         N2         Alpha/Y        N3         Beta/Z          J
 -----------------------------------------------------------------------------------------------
      1  H 
      2  C        1   0.000002(     1)
      3  C        2   0.000014(     2)      1  -0.000006(    21)
      4  O        2   0.000007(     3)      1  -0.000005(    22)      3  -0.000021(    40)     0
      5  H        2  -0.000001(     4)      1  -0.000005(    23)      3  -0.000000(    41)     0
      6  C        4   0.000005(     5)      2  -0.000029(    24)      1  -0.000006(    42)     0
      7  C        3  -0.000012(     6)      2   0.000009(    25)      1  -0.000000(    43)     0
      8  C        6  -0.000002(     7)      4  -0.000018(    26)      2  -0.000017(    44)     0
      9  H        6   0.000000(     8)      4   0.000002(    27)      8   0.000001(    45)     0
     10  H        6   0.000001(     9)      4  -0.000002(    28)      8   0.000000(    46)     0
     11  C        7   0.000002(    10)      3   0.000011(    29)      2  -0.000004(    47)     0
     12  C        8  -0.000018(    11)      6  -0.000007(    30)      4  -0.000047(    48)     0
     13  H        8   0.000000(    12)      6  -0.000001(    31)     12  -0.000003(    49)     0
     14  H       11   0.000001(    13)      7  -0.000000(    32)      3   0.000000(    50)     0
     15  H       11   0.000000(    14)      7   0.000002(    33)     14   0.000001(    51)     0
     16  H       11  -0.000000(    15)      7  -0.000002(    34)     14  -0.000000(    52)     0
     17  C       12   0.000017(    16)      8  -0.000019(    35)      6  -0.000007(    53)     0
     18  H       12   0.000000(    17)      8  -0.000001(    36)     17  -0.000001(    54)     0
     19  H       17   0.000001(    18)     12  -0.000005(    37)      8   0.000004(    55)     0
     20  H       17  -0.000021(    19)     12   0.000001(    38)     19   0.000001(    56)     0
     21  H       17   0.000001(    20)     12  -0.000001(    39)     19   0.000001(    57)     0
 -----------------------------------------------------------------------------------------------
 Internal  Forces:  Max     0.000047422 RMS     0.000010711

 GradGradGradGradGradGradGradGradGradGradGradGradGradGradGradGradGradGrad
 Berny optimization.
 Search for a saddle point.
 Step number   2 out of a maximum of   67
 All quantities printed in internal units (Hartrees-Bohrs-Radians)
 Swapping is turned off.
 Update second derivatives using D2CorN and points    1    2
 ITU=  0  0
     Eigenvalues ---   -0.32021   0.00423   0.00642   0.01143   0.01402
     Eigenvalues ---    0.03695   0.04508   0.05574   0.05927   0.07194
     Eigenvalues ---    0.08531   0.09472   0.09731   0.10720   0.11598
     Eigenvalues ---    0.12618   0.14265   0.15293   0.16873   0.16985
     Eigenvalues ---    0.18503   0.21056   0.21414   0.22300   0.22697
     Eigenvalues ---    0.23642   0.24234   0.25614   0.27233   0.28939
     Eigenvalues ---    0.29937   0.30347   0.31428   0.31637   0.32317
     Eigenvalues ---    0.32891   0.32997   0.33871   0.34420   0.34526
     Eigenvalues ---    0.34581   0.34646   0.35480   0.35620   0.35747
     Eigenvalues ---    0.36715   0.36981   0.40409   0.41950   0.43385
     Eigenvalues ---    0.46336   0.48264   0.68798   0.79851   1.51810
     Eigenvalues ---    3.21031   5.77753
 Eigenvectors required to have negative eigenvalues:
                          R20       A7        A11       R17       R7
   1                    0.56734  -0.38961  -0.36494  -0.24274   0.20285
                          D8        D17       R12       A6        A20
   1                    0.20241  -0.17393   0.17218  -0.16300  -0.16232
 RFO step:  Lambda0=2.920022973D-09 Lambda= 0.00000000D+00.
 Linear search not attempted -- option 19 set.
 Variable       Old X    -DE/DX   Delta X   Delta X   Delta X     New X
                                 (Linear)    (Quad)   (Total)
    R2        2.06937   0.00000   0.00000   0.00000   0.00000   2.06937
    R3        2.77088   0.00001   0.00000   0.00003   0.00003   2.77090
    R4        2.71371   0.00001   0.00000   0.00002   0.00002   2.71373
    R5        2.07146  -0.00000   0.00000  -0.00000  -0.00000   2.07145
    R6        2.71526   0.00001   0.00000   0.00005   0.00005   2.71531
    R7        2.36113  -0.00001   0.00000   0.00001   0.00001   2.36114
    R8        2.83088  -0.00000   0.00000   0.00000   0.00000   2.83088
    R9        2.06590   0.00000   0.00000  -0.00000  -0.00000   2.06590
   R10        2.06878   0.00000   0.00000  -0.00000  -0.00000   2.06878
   R11        2.80227   0.00000   0.00000   0.00001   0.00001   2.80227
   R12        2.60766  -0.00002   0.00000   0.00001   0.00001   2.60767
   R13        2.05707   0.00000   0.00000  -0.00000  -0.00000   2.05707
   R14        2.06404   0.00000   0.00000   0.00000   0.00000   2.06404
   R15        2.06446   0.00000   0.00000   0.00000   0.00000   2.06446
   R16        2.06480  -0.00000   0.00000  -0.00000  -0.00000   2.06479
   R17        2.66046   0.00002   0.00000   0.00000   0.00000   2.66047
   R18        2.05196   0.00000   0.00000   0.00000   0.00000   2.05196
   R19        2.05271   0.00000   0.00000   0.00000   0.00000   2.05272
   R20        2.53335  -0.00002   0.00000  -0.00001  -0.00001   2.53335
   R21        2.05012   0.00000   0.00000   0.00000   0.00000   2.05012
    A3        1.92712  -0.00001   0.00000   0.00000   0.00000   1.92712
    A4        1.86657  -0.00000   0.00000  -0.00005  -0.00005   1.86652
    A5        1.88502  -0.00001   0.00000   0.00002   0.00002   1.88504
    A6        1.96255  -0.00003   0.00000   0.00000   0.00000   1.96255
    A7        2.67651   0.00001   0.00000  -0.00012  -0.00012   2.67639
    A8        1.91188  -0.00002   0.00000   0.00004   0.00004   1.91192
    A9        1.82858   0.00000   0.00000   0.00002   0.00002   1.82860
   A10        1.93388  -0.00000   0.00000  -0.00004  -0.00004   1.93384
   A11        2.56012   0.00001   0.00000  -0.00001  -0.00001   2.56011
   A12        2.26099  -0.00001   0.00000  -0.00005  -0.00005   2.26094
   A13        1.94489  -0.00000   0.00000   0.00002   0.00002   1.94491
   A14        1.95109  -0.00000   0.00000   0.00001   0.00001   1.95110
   A15        1.93421   0.00000   0.00000  -0.00000  -0.00000   1.93421
   A16        1.93135  -0.00000   0.00000  -0.00001  -0.00001   1.93134
   A17        2.16655  -0.00002   0.00000  -0.00002  -0.00002   2.16653
   A18        2.01944  -0.00000   0.00000   0.00001   0.00001   2.01944
   A19        2.08688  -0.00000   0.00000  -0.00001  -0.00001   2.08687
   A20        1.64337   0.00000   0.00000  -0.00001  -0.00001   1.64336
   A21        2.05561  -0.00000   0.00000   0.00000   0.00000   2.05561
    D4        2.10255  -0.00002   0.00000  -0.00011  -0.00011   2.10245
    D5       -2.13123  -0.00000   0.00000  -0.00007  -0.00007  -2.13130
    D6       -2.35826  -0.00001   0.00000  -0.00020  -0.00020  -2.35846
    D7        0.05718  -0.00000   0.00000   0.00013   0.00013   0.05730
    D8       -0.60849  -0.00002   0.00000   0.00034   0.00034  -0.60815
    D9       -2.08046   0.00000   0.00000  -0.00003  -0.00003  -2.08049
   D10        2.16843   0.00000   0.00000  -0.00002  -0.00002   2.16841
   D11       -0.41412  -0.00000   0.00000  -0.00027  -0.00027  -0.41439
   D12        2.54954  -0.00005   0.00000  -0.00014  -0.00014   2.54940
   D13        2.72663  -0.00000   0.00000  -0.00008  -0.00008   2.72655
   D14        0.05081   0.00000   0.00000   0.00027   0.00027   0.05108
   D15       -2.10849   0.00000   0.00000   0.00000   0.00000  -2.10849
   D16        2.11145  -0.00000   0.00000   0.00000   0.00000   2.11146
   D17       -0.72144  -0.00001   0.00000  -0.00007  -0.00007  -0.72151
   D18       -2.72473  -0.00000   0.00000   0.00000   0.00000  -2.72472
   D19        0.70942   0.00000   0.00000  -0.00001  -0.00001   0.70941
   D20       -1.76235   0.00000   0.00000   0.00003   0.00003  -1.76232
   D21        2.51772   0.00000   0.00000   0.00004   0.00004   2.51776
         Item               Value     Threshold  Converged?
 Maximum Force            0.000047     0.000450     YES
 RMS     Force            0.000011     0.000300     YES
 Maximum Displacement     0.000339     0.001800     YES
 RMS     Displacement     0.000083     0.001200     YES
 Predicted change in Energy=-2.983307D-09
 Optimization completed.
    -- Stationary point found.
                       ----------------------------
                       !   Optimized Parameters   !
                       ! (Angstroms and Degrees)  !
 ----------------------                            ----------------------
 !      Name          Value   Derivative information (Atomic Units)     !
 ------------------------------------------------------------------------
 !       R2          1.0951   -DE/DX =    0.0                           !
 !       R3          1.4663   -DE/DX =    0.0                           !
 !       R4          1.436    -DE/DX =    0.0                           !
 !       R5          1.0962   -DE/DX =    0.0                           !
 !       R6          1.4369   -DE/DX =    0.0                           !
 !       R7          1.2495   -DE/DX =    0.0                           !
 !       R8          1.498    -DE/DX =    0.0                           !
 !       R9          1.0932   -DE/DX =    0.0                           !
 !       R10         1.0948   -DE/DX =    0.0                           !
 !       R11         1.4829   -DE/DX =    0.0                           !
 !       R12         1.3799   -DE/DX =    0.0                           !
 !       R13         1.0886   -DE/DX =    0.0                           !
 !       R14         1.0922   -DE/DX =    0.0                           !
 !       R15         1.0925   -DE/DX =    0.0                           !
 !       R16         1.0926   -DE/DX =    0.0                           !
 !       R17         1.4079   -DE/DX =    0.0                           !
 !       R18         1.0858   -DE/DX =    0.0                           !
 !       R19         1.0862   -DE/DX =    0.0                           !
 !       R20         1.3406   -DE/DX =    0.0                           !
 !       R21         1.0849   -DE/DX =    0.0                           !
 !       A3        110.4157   -DE/DX =    0.0                           !
 !       A4        106.9466   -DE/DX =    0.0                           !
 !       A5        108.0037   -DE/DX =    0.0                           !
 !       A6        112.4459   -DE/DX =    0.0                           !
 !       A7        153.3526   -DE/DX =    0.0                           !
 !       A8        109.5428   -DE/DX =    0.0                           !
 !       A9        104.7702   -DE/DX =    0.0                           !
 !       A10       110.8034   -DE/DX =    0.0                           !
 !       A11       146.6843   -DE/DX =    0.0                           !
 !       A12       129.5451   -DE/DX =    0.0                           !
 !       A13       111.4341   -DE/DX =    0.0                           !
 !       A14       111.7891   -DE/DX =    0.0                           !
 !       A15       110.822    -DE/DX =    0.0                           !
 !       A16       110.6579   -DE/DX =    0.0                           !
 !       A17       124.1341   -DE/DX =    0.0                           !
 !       A18       115.7052   -DE/DX =    0.0                           !
 !       A19       119.5693   -DE/DX =    0.0                           !
 !       A20        94.1581   -DE/DX =    0.0                           !
 !       A21       117.7777   -DE/DX =    0.0                           !
 !       D4        120.4675   -DE/DX =    0.0                           !
 !       D5       -122.1102   -DE/DX =    0.0                           !
 !       D6       -135.1182   -DE/DX =    0.0                           !
 !       D7          3.2759   -DE/DX =    0.0                           !
 !       D8        -34.864    -DE/DX =    0.0                           !
 !       D9       -119.2018   -DE/DX =    0.0                           !
 !       D10       124.242    -DE/DX =    0.0                           !
 !       D11       -23.7274   -DE/DX =    0.0                           !
 !       D12       146.0782   -DE/DX =    0.0                           !
 !       D13       156.2242   -DE/DX =    0.0                           !
 !       D14         2.9111   -DE/DX =    0.0                           !
 !       D15      -120.8077   -DE/DX =    0.0                           !
 !       D16       120.9774   -DE/DX =    0.0                           !
 !       D17       -41.3355   -DE/DX =    0.0                           !
 !       D18      -156.1154   -DE/DX =    0.0                           !
 !       D19        40.6468   -DE/DX =    0.0                           !
 !       D20      -100.9752   -DE/DX =    0.0                           !
 !       D21       144.255    -DE/DX =    0.0                           !
 ------------------------------------------------------------------------
 GradGradGradGradGradGradGradGradGradGradGradGradGradGradGradGradGradGrad

 ---------------------------------------------------------------------------------------------------
                            Z-MATRIX (ANGSTROMS AND DEGREES)
   CD    Cent   Atom    N1       Length/X        N2       Alpha/Y        N3        Beta/Z          J
 ---------------------------------------------------------------------------------------------------
      1      1  H 
      2      2  C        1   1.095063(     1)
      3      3  C        2   1.466285(     2)      1  110.416(    21)
      4      4  O        2   1.436036(     3)      1  106.947(    22)      3  120.468(    40)      0
      5      5  H        2   1.096167(     4)      1  108.004(    23)      3 -122.110(    41)      0
      6      6  C        4   1.436851(     5)      2  112.446(    24)      1 -135.118(    42)      0
      7      7  C        3   1.249454(     6)      2  153.353(    25)      1    3.276(    43)      0
      8      8  C        6   1.498037(     7)      4  109.543(    26)      2  -34.864(    44)      0
      9      9  H        6   1.093226(     8)      4  104.770(    27)      8 -119.202(    45)      0
     10     10  H        6   1.094752(     9)      4  110.803(    28)      8  124.242(    46)      0
     11     11  C        7   1.482895(    10)      3  146.684(    29)      2  -23.727(    47)      0
     12     12  C        8   1.379915(    11)      6  129.545(    30)      4  146.078(    48)      0
     13     13  H        8   1.088555(    12)      6  111.434(    31)     12  156.224(    49)      0
     14     14  H       11   1.092243(    13)      7  111.789(    32)      3    2.911(    50)      0
     15     15  H       11   1.092467(    14)      7  110.822(    33)     14 -120.808(    51)      0
     16     16  H       11   1.092643(    15)      7  110.658(    34)     14  120.977(    52)      0
     17     17  C       12   1.407856(    16)      8  124.134(    35)      6  -41.335(    53)      0
     18     18  H       12   1.085849(    17)      8  115.705(    36)     17 -156.115(    54)      0
     19     19  H       17   1.086249(    18)     12  119.569(    37)      8   40.647(    55)      0
     20     20  H       17   1.340592(    19)     12   94.158(    38)     19 -100.975(    56)      0
     21     21  H       17   1.084876(    20)     12  117.778(    39)     19  144.255(    57)      0
 ---------------------------------------------------------------------------------------------------
                         Z-Matrix orientation:                         
 ---------------------------------------------------------------------
 Center     Atomic      Atomic             Coordinates (Angstroms)
 Number     Number       Type             X           Y           Z
 ---------------------------------------------------------------------
      1          1           0        0.000000    0.000000    0.000000
      2          6           0        0.000000    0.000000    1.095063
      3          6           0        1.374182    0.000000    1.606546
      4          8           0       -0.696523    1.183997    1.513639
      5          1           0       -0.554138   -0.883022    1.433865
      6          6           0       -0.015846    1.875069    2.573658
      7          6           0        2.615934    0.032022    1.471778
      8          6           0        0.647435    0.879907    3.475781
      9          1           0       -0.802877    2.420224    3.101419
     10          1           0        0.694593    2.603441    2.169639
     11          6           0        3.772702   -0.225335    0.580357
     12          6           0        1.832850    0.981175    4.174853
     13          1           0       -0.072151    0.174024    3.886729
     14          1           0        3.455143   -0.562282   -0.408894
     15          1           0        4.429152   -0.987656    1.006296
     16          1           0        4.375584    0.678032    0.460652
     17          6           0        3.009714    1.553499    3.655724
     18          1           0        1.966478    0.266600    4.981446
     19          1           0        2.946821    2.455787    3.054178
     20          1           0        3.106155    0.677775    2.645282
     21          1           0        3.906029    1.506918    4.265154
 ---------------------------------------------------------------------
                    Distance matrix (angstroms):
                    1          2          3          4          5
     1  H    0.000000
     2  C    1.095063   0.000000
     3  C    2.114088   1.466285   0.000000
     4  O    2.044040   1.436036   2.387112   0.000000
     5  H    1.772784   1.096167   2.127901   2.073452   0.000000
     6  C    3.184313   2.387965   2.526533   1.436851   3.032483
     7  C    3.001711   2.643114   1.249454   3.507303   3.299712
     8  C    3.643414   2.619394   2.190077   2.397644   2.953154
     9  H    4.015084   3.244620   3.582138   2.015096   3.708644
    10  H    3.459436   2.900875   2.748967   2.092931   3.775727
    11  C    3.823725   3.814313   2.618538   4.778202   4.458988
    12  C    4.663844   3.715797   2.787343   3.677081   4.084845
    13  H    3.891292   2.798015   2.705809   2.653572   2.714075
    14  H    3.524396   3.809995   2.951027   4.897138   4.424135
    15  H    4.648170   4.538803   3.266283   5.589815   5.002694
    16  H    4.451703   4.473023   3.283475   5.204907   5.261766
    17  C    4.983579   4.246024   3.047533   4.296656   4.855341
    18  H    5.362174   4.363723   3.436835   4.467536   4.501163
    19  H    4.903330   4.307293   3.255721   4.155077   5.101938
    20  H    4.135831   3.537054   2.130277   3.999655   4.159490
    21  H    5.976571   5.251413   3.968532   5.372020   5.798371
                    6          7          8          9         10
     6  C    0.000000
     7  C    3.396649   0.000000
     8  C    1.498037   2.934268   0.000000
     9  H    1.093226   4.477444   2.148518   0.000000
    10  H    1.094752   3.284929   2.163054   1.773189   0.000000
    11  C    4.768443   1.482895   4.401402   5.855823   4.472421
    12  C    2.603948   2.969971   1.379915   3.189071   2.819266
    13  H    2.149623   3.616346   1.088555   2.489194   3.072192
    14  H    5.184984   2.143455   5.005381   6.272829   4.928618
    15  H    5.514511   2.131708   4.887488   6.586146   5.310017
    16  H    5.018201   2.129805   4.799047   6.068388   4.491940
    17  C    3.229286   2.690646   2.463021   3.948964   2.944591
    18  H    3.509163   3.576952   2.093573   3.980191   3.871018
    19  H    3.057046   2.913437   2.819277   3.750164   2.424199
    20  H    3.344478   1.426333   2.603054   4.304035   3.122509
    21  H    4.286934   3.412127   3.410966   4.935808   3.988342
                   11         12         13         14         15
    11  C    0.000000
    12  C    4.259002   0.000000
    13  H    5.086697   2.088908   0.000000
    14  H    1.092243   5.101454   5.606812   0.000000
    15  H    1.092467   4.544979   5.468833   1.769859   0.000000
    16  H    1.092643   4.511394   5.636876   1.772484   1.753600
    17  C    3.633770   1.407856   3.384407   4.603918   3.935956
    18  H    4.782680   1.085849   2.315812   5.653223   4.841460
    19  H    3.740360   2.161325   3.874762   4.621688   4.271818
    20  H    2.350279   2.013192   3.449143   3.314744   2.685193
    21  H    4.073844   2.140709   4.212569   5.131434   4.137235
                   16         17         18         19         20
    16  H    0.000000
    17  C    3.583368   0.000000
    18  H    5.139128   2.121789   0.000000
    19  H    3.453716   1.086249   3.077008   0.000000
    20  H    2.526669   1.340592   2.631651   1.831369   0.000000
    21  H    3.921959   1.084876   2.411083   1.812980   1.987778
                   21
    21  H    0.000000
 Symmetry turned off by external request.
 Stoichiometry    C8H12O
 Framework group  C1[X(C8H12O)]
 Deg. of freedom    57
 Full point group                 C1      NOp   1
 Rotational constants (GHZ):           1.9830310           1.4996320           0.9626132
 1\1\GINC-BHC0034\FTS\RB3LYP\def2TZVP\C8H12O1\DHANAWAY\10-Jun-2022\1\\#
  Opt=(TS, CalcFC, noeigentest, Z-matrix, MaxStep=10) Field=read NoSymm
  B3LYP/Def2TZVP freq=noraman pop=none\\ts_zmat_initalOpt\\0,1\H\C,1,R2
 \C,2,R3,1,A3\O,2,R4,1,A4,3,D4,0\H,2,R5,1,A5,3,D5,0\C,4,R6,2,A6,1,D6,0\
 C,3,R7,2,A7,1,D7,0\C,6,R8,4,A8,2,D8,0\H,6,R9,4,A9,8,D9,0\H,6,R10,4,A10
 ,8,D10,0\C,7,R11,3,A11,2,D11,0\C,8,R12,6,A12,4,D12,0\H,8,R13,6,A13,12,
 D13,0\H,11,R14,7,A14,3,D14,0\H,11,R15,7,A15,14,D15,0\H,11,R16,7,A16,14
 ,D16,0\C,12,R17,8,A17,6,D17,0\H,12,R18,8,A18,17,D18,0\H,17,R19,12,A19,
 8,D19,0\H,17,R20,12,A20,19,D20,0\H,17,R21,12,A21,19,D21,0\\R2=1.095063
 46\R3=1.46628501\R4=1.43603601\R5=1.09616705\R6=1.43685117\R7=1.249453
 83\R8=1.49803722\R9=1.09322616\R10=1.09475198\R11=1.482895\R12=1.37991
 477\R13=1.08855536\R14=1.09224325\R15=1.0924665\R16=1.09264267\R17=1.4
 0785619\R18=1.08584855\R19=1.08624937\R20=1.34059209\R21=1.08487568\A3
 =110.41571493\A4=106.94659283\A5=108.00367246\A6=112.44591224\A7=153.3
 5262849\A8=109.54277805\A9=104.77016267\A10=110.80341189\A11=146.68434
 435\A12=129.54510627\A13=111.43405639\A14=111.78913734\A15=110.8219923
 2\A16=110.65791855\A17=124.1341186\A18=115.70516693\A19=119.56928089\A
 20=94.15805236\A21=117.77772387\D4=120.46750926\D5=-122.11020412\D6=-1
 35.11824919\D7=3.27590004\D8=-34.86398278\D9=-119.2017733\D10=124.2420
 1539\D11=-23.72736407\D12=146.07816701\D13=156.2242272\D14=2.91107388\
 D15=-120.80767023\D16=120.97739481\D17=-41.33547825\D18=-156.11539097\
 D19=40.6468329\D20=-100.9752193\D21=144.25500123\\Version=ES64L-G16Rev
 A.03\HF=-387.2889111\RMSD=9.827e-09\RMSF=9.330e-05\Dipole=0.9370737,-0
 .26293,0.10754\PG=C01 [X(C8H12O1)]\\@


 10 WHATSOEVER THY HAND FINDETH TO DO, DO IT WITH THY  
 MIGHT. FOR THERE IS NO WORK, NOR DEVICE, NOR KNOWLEDGE, NOR  
 WISDOM, IN THE GRAVE, WHITHER THOU GOEST.                    
 11 I RETURNED AND SAW UNDER THE SUN, THAT THE RACE IS NOT TO 
 THE SWIFT, NOR THE BATTLE TO THE STRONG, NEITHER YET BREAD TO
 THE WISE, NOR YET RICHES TO MEN OF UNDERSTANDING, NOR YET    
 FAVOR TO MEN OF SKILL. BUT TIME AND CHANCE HAPPEN TO THEM ALL.
 12 FOR MAN ALSO KNOWETH NOT HIS TIME. AS THE FISHES   
 THAT ARE TAKEN IN AN EVIL NET, AND AS THE BIRDS THAT ARE     
 CAUGHT IN THE SNARE. SO ARE THE SONS OF MEN SNARED IN AN EVIL
 TIME, WHEN IT FALLETH SUDDENLY UPON THEM.
                                         ECCLESIASTES 9
 Job cpu time:       0 days  2 hours 47 minutes  8.1 seconds.
 Elapsed time:       0 days  0 hours 13 minutes 56.9 seconds.
 File lengths (MBytes):  RWF=    205 Int=      0 D2E=      0 Chk=     32 Scr=      1
 Normal termination of Gaussian 16 at Fri Jun 10 23:05:01 2022.
 Link1:  Proceeding to internal job step number  2.
 --------------------------------------------------------------------
 #N Geom=AllCheck Guess=TCheck SCRF=Check GenChk RB3LYP/def2TZVP Freq
 --------------------------------------------------------------------
 1/5=1,8=10,10=4,11=1,29=7,30=1,38=1,40=1/1,3;
 2/12=2,15=1,40=1/2;
 3/5=44,7=101,11=2,14=-4,25=1,30=1,70=2,71=2,74=-5,116=1,140=1/1,2,3;
 4/5=101/1;
 5/5=2,38=6,98=1/2;
 8/6=4,10=90,11=11/1;
 11/6=1,8=1,9=11,15=111,16=1,31=1/1,2,10;
 10/6=1,31=1/2;
 7/8=1,10=1,25=1,30=1/1,2,3,16;
 1/5=1,8=10,10=4,11=1,30=1/3;
 99//99;
 Structure from the checkpoint file:  "checkpoint.chk"
 -----------------
 ts_zmat_initalOpt
 -----------------
 Charge =  0 Multiplicity = 1
 Z-Matrix found in chk file.
 H
 C,1,R2
 C,2,R3,1,A3
 O,2,R4,1,A4,3,D4,0
 H,2,R5,1,A5,3,D5,0
 C,4,R6,2,A6,1,D6,0
 C,3,R7,2,A7,1,D7,0
 C,6,R8,4,A8,2,D8,0
 H,6,R9,4,A9,8,D9,0
 H,6,R10,4,A10,8,D10,0
 C,7,R11,3,A11,2,D11,0
 C,8,R12,6,A12,4,D12,0
 H,8,R13,6,A13,12,D13,0
 H,11,R14,7,A14,3,D14,0
 H,11,R15,7,A15,14,D15,0
 H,11,R16,7,A16,14,D16,0
 C,12,R17,8,A17,6,D17,0
 H,12,R18,8,A18,17,D18,0
 H,17,R19,12,A19,8,D19,0
 H,17,R20,12,A20,19,D20,0
 H,17,R21,12,A21,19,D21,0
      Variables:
 R2=1.09506346
 R3=1.46628501
 R4=1.43603601
 R5=1.09616705
 R6=1.43685117
 R7=1.24945383
 R8=1.49803722
 R9=1.09322616
 R10=1.09475198
 R11=1.482895
 R12=1.37991477
 R13=1.08855536
 R14=1.09224325
 R15=1.0924665
 R16=1.09264267
 R17=1.40785619
 R18=1.08584855
 R19=1.08624937
 R20=1.34059209
 R21=1.08487568
 A3=110.41571493
 A4=106.94659283
 A5=108.00367246
 A6=112.44591224
 A7=153.35262849
 A8=109.54277805
 A9=104.77016267
 A10=110.80341189
 A11=146.68434435
 A12=129.54510627
 A13=111.43405639
 A14=111.78913734
 A15=110.82199232
 A16=110.65791855
 A17=124.1341186
 A18=115.70516693
 A19=119.56928089
 A20=94.15805236
 A21=117.77772387
 D4=120.46750926
 D5=-122.11020412
 D6=-135.11824919
 D7=3.27590004
 D8=-34.86398278
 D9=-119.2017733
 D10=124.24201539
 D11=-23.72736407
 D12=146.07816701
 D13=156.2242272
 D14=2.91107388
 D15=-120.80767023
 D16=120.97739481
 D17=-41.33547825
 D18=-156.11539097
 D19=40.6468329
 D20=-100.9752193
 D21=144.25500123
 Recover connectivity data from disk.

 GradGradGradGradGradGradGradGradGradGradGradGradGradGradGradGradGradGrad
 Berny optimization.
 Initialization pass.
                       ----------------------------
                       !    Initial Parameters    !
                       ! (Angstroms and Degrees)  !
 ----------------------                            ----------------------
 !      Name          Value   Derivative information (Atomic Units)     !
 ------------------------------------------------------------------------
 !       R2          1.0951   calculate D2E/DX2 analytically            !
 !       R3          1.4663   calculate D2E/DX2 analytically            !
 !       R4          1.436    calculate D2E/DX2 analytically            !
 !       R5          1.0962   calculate D2E/DX2 analytically            !
 !       R6          1.4369   calculate D2E/DX2 analytically            !
 !       R7          1.2495   calculate D2E/DX2 analytically            !
 !       R8          1.498    calculate D2E/DX2 analytically            !
 !       R9          1.0932   calculate D2E/DX2 analytically            !
 !       R10         1.0948   calculate D2E/DX2 analytically            !
 !       R11         1.4829   calculate D2E/DX2 analytically            !
 !       R12         1.3799   calculate D2E/DX2 analytically            !
 !       R13         1.0886   calculate D2E/DX2 analytically            !
 !       R14         1.0922   calculate D2E/DX2 analytically            !
 !       R15         1.0925   calculate D2E/DX2 analytically            !
 !       R16         1.0926   calculate D2E/DX2 analytically            !
 !       R17         1.4079   calculate D2E/DX2 analytically            !
 !       R18         1.0858   calculate D2E/DX2 analytically            !
 !       R19         1.0862   calculate D2E/DX2 analytically            !
 !       R20         1.3406   calculate D2E/DX2 analytically            !
 !       R21         1.0849   calculate D2E/DX2 analytically            !
 !       A3        110.4157   calculate D2E/DX2 analytically            !
 !       A4        106.9466   calculate D2E/DX2 analytically            !
 !       A5        108.0037   calculate D2E/DX2 analytically            !
 !       A6        112.4459   calculate D2E/DX2 analytically            !
 !       A7        153.3526   calculate D2E/DX2 analytically            !
 !       A8        109.5428   calculate D2E/DX2 analytically            !
 !       A9        104.7702   calculate D2E/DX2 analytically            !
 !       A10       110.8034   calculate D2E/DX2 analytically            !
 !       A11       146.6843   calculate D2E/DX2 analytically            !
 !       A12       129.5451   calculate D2E/DX2 analytically            !
 !       A13       111.4341   calculate D2E/DX2 analytically            !
 !       A14       111.7891   calculate D2E/DX2 analytically            !
 !       A15       110.822    calculate D2E/DX2 analytically            !
 !       A16       110.6579   calculate D2E/DX2 analytically            !
 !       A17       124.1341   calculate D2E/DX2 analytically            !
 !       A18       115.7052   calculate D2E/DX2 analytically            !
 !       A19       119.5693   calculate D2E/DX2 analytically            !
 !       A20        94.1581   calculate D2E/DX2 analytically            !
 !       A21       117.7777   calculate D2E/DX2 analytically            !
 !       D4        120.4675   calculate D2E/DX2 analytically            !
 !       D5       -122.1102   calculate D2E/DX2 analytically            !
 !       D6       -135.1182   calculate D2E/DX2 analytically            !
 !       D7          3.2759   calculate D2E/DX2 analytically            !
 !       D8        -34.864    calculate D2E/DX2 analytically            !
 !       D9       -119.2018   calculate D2E/DX2 analytically            !
 !       D10       124.242    calculate D2E/DX2 analytically            !
 !       D11       -23.7274   calculate D2E/DX2 analytically            !
 !       D12       146.0782   calculate D2E/DX2 analytically            !
 !       D13       156.2242   calculate D2E/DX2 analytically            !
 !       D14         2.9111   calculate D2E/DX2 analytically            !
 !       D15      -120.8077   calculate D2E/DX2 analytically            !
 !       D16       120.9774   calculate D2E/DX2 analytically            !
 !       D17       -41.3355   calculate D2E/DX2 analytically            !
 !       D18      -156.1154   calculate D2E/DX2 analytically            !
 !       D19        40.6468   calculate D2E/DX2 analytically            !
 !       D20      -100.9752   calculate D2E/DX2 analytically            !
 !       D21       144.255    calculate D2E/DX2 analytically            !
 ------------------------------------------------------------------------
 Trust Radius=1.00D-01 FncErr=1.00D-07 GrdErr=1.00D-07 EigMax=2.50D+02 EigMin=1.00D-04
 Number of steps in this run=      2 maximum allowed number of steps=      2.
 Search for a saddle point of order  1.
 GradGradGradGradGradGradGradGradGradGradGradGradGradGradGradGradGradGrad

                          Input orientation:                          
[...]
 556,0.01541564,0.01321908,-0.00634217,0.00992669,0.01004585,-0.0045756
 3,-0.06549535,-0.06762649,0.09802489,0.00056105,-0.00008434,-0.0007622
 1,0.00245626,0.00021112,0.00214216,-0.02812195,0.00422551,0.02013291,-
 0.00050757,0.00055303,0.00043954,-0.00060607,0.00017851,-0.00025684,-0
 .00064384,0.00078682,-0.00033492,-0.15586314,0.02376576,0.07942428,-0.
 00192220,-0.00414830,-0.00921527,-0.00007337,0.00007469,-0.00007067,0.
 00000348,-0.00004141,0.00011602,0.49838147,-0.00013208,-0.00000050,0.0
 0046417,0.00071380,0.00112281,0.00011742,-0.01047534,0.00544489,-0.001
 25370,-0.00163954,0.00160560,0.00014045,0.00031803,0.00006262,0.000598
 24,-0.00061554,0.00060267,0.00023928,0.03207659,-0.07013658,-0.0121803
 6,-0.00073202,0.00194125,-0.00448022,-0.00044232,0.00007448,-0.0002109
 4,-0.00005879,0.00001107,0.00025892,0.01136053,0.53027576,0.00011636,0
 .00016722,0.00008019,-0.00079382,-0.00106227,0.00177051,-0.01716372,-0
 .00170311,0.00299607,-0.00008484,0.00021942,0.00036911,-0.00078901,0.0
 0016444,-0.00037244,-0.00035213,0.00053027,-0.00004245,0.10024652,-0.0
 1078467,-0.10853192,-0.00345731,-0.00428966,-0.00862504,-0.00012570,0.
 00011477,-0.00001829,0.00005596,-0.00017007,0.00012374,0.03388646,0.00
 028507,0.51922859,0.00222927,-0.00068792,0.00062389,-0.00185357,0.0049
 3683,0.00981255,0.05109482,-0.01494011,-0.04579967,-0.00003774,0.00241
 542,0.00223594,-0.00048505,-0.00001837,0.00005555,-0.00492051,-0.00229
 806,-0.02154949,-0.06651200,-0.02318460,-0.02983350,-0.31111359,-0.020
 95229,-0.08885723,0.00310576,-0.00232643,0.00301734,-0.00009208,-0.000
 26347,-0.00001138,0.00812837,0.00413899,0.01181029,0.64813542,0.000474
 13,0.00035477,0.00006064,0.00121791,-0.00143635,0.00334670,0.01555870,
 -0.00630542,-0.02344439,0.00148184,0.00048555,0.00462214,-0.00054310,0
 .00030568,0.00002667,0.01779344,0.00686342,0.00389925,-0.01507640,-0.0
 0485849,-0.01453849,-0.01591167,-0.07967045,0.03995831,0.00151637,-0.0
 0166837,0.00189225,-0.00081955,0.00024668,-0.00097086,-0.00013411,0.00
 069311,0.00086429,0.09602843,0.37202852,0.00138871,-0.00023357,0.00022
 241,-0.00177122,0.00360443,0.00509198,0.01422950,-0.00843506,-0.025363
 78,-0.00491227,-0.00082269,-0.00540250,-0.00077329,-0.00015280,-0.0000
 7700,-0.00871259,-0.00607008,-0.00886633,-0.00299700,-0.00202725,-0.00
 325965,-0.14716339,0.02126102,-0.14157796,0.00031368,0.00003900,0.0002
 6772,0.00040496,-0.00046790,0.00039964,-0.00211373,-0.00115999,-0.0031
 4291,0.08764793,-0.21582161,0.49431153,0.00019469,0.00023660,-0.000063
 85,-0.00034218,-0.00050452,0.00001910,-0.00088662,-0.00091371,-0.00024
 370,0.00043999,-0.00015367,0.00153613,0.00051872,0.00017000,-0.0002111
 8,0.00889600,0.00981392,-0.00675749,-0.00064500,-0.00006901,0.00037941
 ,-0.16619111,-0.11684315,0.06138875,0.00111227,-0.00049871,0.00053203,
 -0.00044119,0.00163180,-0.00261864,0.00009855,0.00019097,-0.00002483,-
 0.01965972,-0.01767860,0.01169650,0.18030714,0.00005529,-0.00013471,0.
 00015424,0.00036757,-0.00024551,0.00022610,0.00221776,0.00311931,-0.00
 091925,0.00082752,0.00243006,-0.00040641,-0.00021360,0.00034755,-0.000
 14396,-0.01662131,-0.01732375,0.00994032,0.00051249,0.00006828,-0.0004
 1245,-0.11481001,-0.15745342,0.07104206,-0.00033455,0.00063128,-0.0008
 4365,0.00258722,-0.00179302,0.00314709,0.00014364,-0.00043626,0.000183
 19,-0.00290836,-0.00079336,0.00375097,0.12551515,0.16825156,-0.0001302
 0,-0.00039824,0.00019063,0.00074234,0.00009658,-0.00081659,0.00182826,
 0.00374946,0.00014232,0.00009443,-0.00098935,0.00238319,-0.00037792,-0
 .00039360,-0.00054514,0.01282820,0.01454182,-0.00785149,0.00142191,0.0
 0028612,-0.00037538,0.06652957,0.07525989,-0.08670281,-0.00067369,-0.0
 0030155,0.00064261,-0.00241947,0.00274987,-0.00118939,0.00000345,-0.00
 049473,0.00006451,-0.01584448,-0.01076337,0.00955109,-0.06225179,-0.08
 304621,0.08622442,-0.00032050,0.00001778,-0.00042105,0.00053212,0.0001
 5602,0.00013969,0.00489612,-0.00015968,-0.00083924,-0.00007693,-0.0001
 4257,-0.00037143,0.00006697,-0.00003431,-0.00006074,0.00030265,-0.0003
 4571,0.00011475,0.00141570,0.00804564,0.02438757,0.00091610,0.00105933
 ,0.00273247,0.00001258,-0.00002746,-0.00000743,0.00000062,0.00003443,-
 0.00004732,-0.07064632,-0.02504498,-0.07286773,-0.00302636,0.00026751,
 0.00128245,-0.00003970,-0.00001188,0.00002674,0.07775308,0.00008657,0.
 00000083,-0.00007519,0.00003705,-0.00006082,-0.00040419,-0.00135001,-0
 .00010404,0.00141097,0.00022870,-0.00008436,0.00014120,-0.00004226,0.0
 0001481,0.00004859,-0.00004714,0.00009706,-0.00005213,0.00105605,-0.00
 124847,-0.00534171,-0.00024810,-0.00026520,-0.00093262,0.00000445,-0.0
 0000459,0.00001485,-0.00001770,-0.00001088,-0.00000309,-0.02570362,-0.
 07193078,-0.07060761,0.00101456,0.00006842,-0.00014052,0.00004224,-0.0
 0002103,-0.00004725,0.02616338,0.07206474,0.00040278,-0.00007270,-0.00
 010368,0.00057357,-0.00026551,-0.00006201,-0.00482157,0.00086416,0.002
 86609,0.00024394,0.00005388,0.00034376,0.00009556,0.00007801,-0.000042
 86,-0.00028049,0.00033170,-0.00014588,0.00363599,-0.00611974,-0.017152
 69,-0.00086213,-0.00097917,-0.00264836,0.00001174,0.00000640,0.0000167
 1,-0.00000814,-0.00004662,0.00003966,-0.07519611,-0.07066414,-0.255298
 16,0.00277907,-0.00015592,-0.00057401,0.00007415,-0.00003083,-0.000071
 34,0.07669248,0.07986675,0.27894048,0.00003793,0.00004173,-0.00014523,
 -0.00018706,-0.00053072,0.00031645,0.00010756,0.00031899,0.00205050,0.
 00016042,-0.00007678,-0.00003558,-0.00025174,0.00004800,-0.00013739,0.
 00004519,-0.00006035,-0.00000590,-0.02200686,0.01843570,-0.00410909,-0
 .00022539,-0.00085994,-0.00060407,0.00000766,0.00002413,0.00001470,0.0
 0001030,-0.00001710,-0.00000357,-0.13271891,0.10873968,-0.06466255,0.0
 0079193,0.00042770,0.00004578,-0.00005153,0.00010235,0.00008102,-0.006
 08559,0.00662653,-0.00459317,0.14929632,-0.00002045,-0.00001652,-0.000
 05613,0.00012902,0.00019192,-0.00022500,-0.00112562,-0.00007780,0.0006
 3398,0.00011570,-0.00013080,-0.00002161,0.00009305,-0.00007612,0.00002
 095,-0.00001629,0.00004694,0.00011332,0.00386429,-0.00180144,-0.001213
 60,0.00001855,0.00006514,-0.00003814,0.00001516,-0.00000527,-0.0000147
 1,-0.00001090,0.00000856,-0.00000304,0.10835839,-0.17181769,0.07304096
 ,-0.00002609,0.00005908,0.00010270,-0.00000234,-0.00001441,-0.00002074
 ,-0.00717897,0.00808826,-0.00379516,-0.12021278,0.18551395,-0.00001151
 ,0.00001537,0.00000051,0.00003440,0.00068291,-0.00071400,0.00182449,0.
 00048938,-0.00051403,0.00002868,-0.00013513,-0.00004701,0.00042067,-0.
 00009386,0.00013498,0.00000268,0.00006876,0.00019698,0.01362569,-0.017
 79643,0.00727818,0.00021281,0.00054436,0.00040129,0.00001174,-0.000004
 94,-0.00002907,-0.00001231,0.00001884,-0.00002911,-0.06241335,0.072653
 56,-0.08880859,-0.00047812,0.00009172,0.00021639,0.00002546,-0.0000668
 6,-0.00006380,-0.01622114,0.02074942,-0.01125192,0.06461944,-0.0794693
 9,0.09470445,-0.00000656,-0.00002816,-0.00001349,0.00052880,0.00009042
 ,0.00051513,-0.00147539,0.00091799,0.00137291,-0.00047121,0.00058453,0
 .00002554,0.00000409,0.00003298,0.00004336,-0.00028146,-0.00010843,0.0
 0004910,-0.01966248,-0.01933467,0.00700980,-0.00006683,0.00015605,-0.0
 0110016,-0.00010431,0.00006162,-0.00006384,0.00001677,0.00005144,0.000
 07309,-0.11803093,-0.11942942,0.01329087,0.00075206,0.00027981,0.00005
 215,0.00000514,-0.00003119,-0.00005953,-0.00565930,-0.00808276,0.00062
 364,0.01147676,0.01592764,-0.00177944,0.13323525,0.00003634,-0.0000087
 9,0.00001620,-0.00008993,-0.00035019,0.00002501,0.00236409,-0.00022141
 ,-0.00027737,0.00015910,-0.00008355,0.00001054,-0.00003109,-0.00000538
 ,-0.00003289,-0.00000192,0.00005202,0.00004448,0.00262937,0.00863419,-
 0.00089204,0.00004134,0.00002371,0.00013685,-0.00002085,-0.00000426,-0
 .00000288,0.00000229,-0.00003590,0.00000518,-0.11819046,-0.22576881,0.
 02068826,-0.00011995,0.00001850,0.00007088,-0.00001175,0.00000695,0.00
 002208,-0.00359697,-0.00743958,0.00076847,-0.01232572,-0.01987962,0.00
 197034,0.12904861,0.24446488,-0.00001000,0.00001706,0.00005950,-0.0003
 6638,-0.00074069,-0.00038370,0.00200585,0.00043373,0.00009304,0.000492
 15,-0.00039002,-0.00008732,0.00013062,-0.00005608,-0.00004703,0.000099
 10,0.00013149,0.00027950,0.01123246,0.01643789,-0.00497550,0.00002008,
 -0.00016110,0.00034265,0.00004920,-0.00001029,-0.00001358,0.00000284,-
 0.00002264,-0.00003155,0.01456785,0.02052500,-0.04955958,-0.00020621,0
 .00004390,0.00034339,-0.00004393,0.00001745,0.00003566,-0.01544092,-0.
 02449477,0.00447924,0.00714783,0.01131961,-0.00194866,-0.01981192,-0.0
 2312820,0.05121641,-0.00241649,0.00060289,-0.00064819,0.00421611,-0.00
 456834,-0.00736003,-0.03810461,0.00427750,0.02127381,0.00136879,0.0005
 2713,0.00067758,0.00050923,-0.00002435,-0.00004311,-0.00061618,0.00143
 118,0.00614410,0.03254388,0.01527803,0.02682779,-0.04112414,-0.0249584
 4,-0.02592555,-0.00125947,0.00068276,-0.00095560,-0.00042278,-0.000173
 81,0.00008452,-0.00147254,-0.00119300,-0.00431904,-0.23718460,-0.09219
 362,0.07151481,-0.00213666,-0.00024385,-0.00293980,0.00057429,-0.00013
 365,-0.00052078,-0.00038774,0.00000472,-0.00005806,-0.00009072,-0.0000
 3611,-0.00042877,0.60505000,0.00009299,-0.00004293,0.00044854,-0.00138
 798,0.00237296,-0.00012612,0.01902893,-0.00015902,-0.00301038,-0.00036
 162,-0.00037468,-0.00001130,0.00017250,-0.00016668,0.00007151,0.001315
 99,0.00053086,-0.00432356,-0.03316803,-0.02180097,-0.03634221,-0.00289
 145,0.00570156,0.00333593,0.00009106,-0.00087678,0.00082000,-0.0003845
 8,-0.00051569,0.00026892,0.00296170,0.00261099,0.00785312,-0.10556335,
 -0.12707703,0.07056805,-0.00157486,0.00385107,0.00329224,-0.00127890,0
 .00057303,0.00085991,0.00041427,-0.00021906,-0.00037007,0.00055781,0.0
 0013699,-0.00053798,0.10837053,0.43747749,0.00141804,-0.00038295,0.000
 83892,-0.00122177,0.00241522,0.00659242,0.04497414,-0.00901256,-0.0276
 2310,-0.00186526,0.00168765,0.00047219,-0.00037973,-0.00008122,-0.0000
 9454,0.00087453,-0.00441759,-0.00812306,-0.06772350,-0.04155303,-0.065
 31380,0.00428061,0.00204821,0.04666058,0.00155116,-0.00119256,0.001809
 42,0.00017999,0.00026450,-0.00030895,0.00535536,0.00521986,0.01287940,
 0.01741590,0.05520458,-0.10906979,-0.00522150,-0.00003303,0.00042334,-
 0.00216729,0.00085441,0.00157990,0.00102737,-0.00021252,-0.00075833,0.
 00125607,0.00016204,-0.00061560,0.11114202,-0.21876013,0.36911053,0.00
 013879,-0.00010260,-0.00001695,-0.00071624,0.00081826,0.00039549,0.000
 56463,-0.00012568,-0.00019735,-0.00141850,-0.00004604,-0.00237065,-0.0
 0005675,-0.00010361,-0.00003078,-0.00055701,-0.00430144,-0.00278138,-0
 .00058716,-0.00040016,-0.00043594,-0.00563059,0.02047568,-0.02209873,0
 .00004463,-0.00005835,0.00032879,0.00017885,0.00025332,-0.00005211,0.0
 0000971,0.00007596,0.00007490,-0.05843544,0.01908843,-0.02744523,-0.00
 008403,0.00183000,0.00115902,-0.00000427,0.00002871,-0.00002035,-0.000
 00098,0.00001421,0.00000765,0.00006409,0.00001252,-0.00004392,0.003930
 84,-0.02148203,0.01908178,0.06478035,0.00002378,0.00000529,0.00001755,
 0.00026372,-0.00027579,0.00028387,0.00107068,-0.00045470,-0.00099526,0
 .00066089,-0.00022640,0.00109977,0.00007829,0.00001284,-0.00000226,-0.
 00221097,0.00399848,0.00281238,-0.00063455,-0.00012402,-0.00033802,-0.
 00246082,0.00424108,0.00004121,-0.00016590,0.00050774,-0.00056078,-0.0
 0017201,-0.00001450,-0.00019309,0.00013109,-0.00005992,-0.00002914,0.0
 1788788,-0.16589277,0.14468104,0.00156379,-0.00137927,-0.00344719,-0.0
 0003092,-0.00001195,0.00005575,-0.00000398,0.00002263,-0.00000208,0.00
 001297,-0.00004425,-0.00001047,0.00179239,-0.00733204,0.01067089,-0.01
 544313,0.16560630,-0.00003714,-0.00001145,-0.00004236,0.00009784,0.000
 16286,0.00021484,0.00013548,-0.00038212,-0.00025431,-0.00004596,-0.000
 16913,-0.00011866,0.00011274,-0.00006420,-0.00001955,-0.00219881,0.000
 44105,0.00368513,-0.00026691,-0.00002101,-0.00005537,-0.00412130,0.013
 62386,-0.00879488,-0.00030012,0.00063632,-0.00055485,0.00007752,-0.000
 14920,-0.00001830,0.00020060,0.00004350,0.00005086,-0.02746312,0.13589
 510,-0.19581819,0.00133046,-0.00288846,-0.00146423,-0.00007857,-0.0000
 2396,0.00007483,0.00002605,0.00000406,-0.00004442,-0.00001741,-0.00004
 091,0.00000983,-0.00108800,0.01007007,-0.00575988,0.03168298,-0.156651
 85,0.20610475,0.00004501,0.00000073,0.00005062,0.00029961,-0.00014260,
 0.00011011,0.00056907,-0.00029754,-0.00050061,0.00017741,0.00056613,0.
 00018832,-0.00006626,0.00004895,0.00001601,-0.00089108,-0.00026795,-0.
 00033561,-0.00061829,-0.00110785,-0.00092374,0.00060919,0.00140933,0.0
 0076310,-0.00001941,0.00000187,-0.00010605,-0.00087469,0.00031900,-0.0
 0066395,0.00003578,0.00015718,-0.00002648,0.00656428,-0.02374236,0.015
 93896,-0.00017126,0.00070063,0.00036460,0.00000662,-0.00006305,-0.0000
 1114,0.00001048,-0.00003157,-0.00001708,-0.00005785,-0.00000192,0.0001
 0761,-0.05394395,0.01441195,-0.01787949,-0.00364426,-0.00332273,0.0008
 6126,0.05118956,-0.00042491,0.00011729,-0.00011951,0.00032266,-0.00048
 820,-0.00131493,-0.00481826,0.00118798,0.00245506,0.00027877,0.0001933
 7,0.00007380,0.00009274,0.00002112,0.00002532,-0.00038639,-0.00107937,
 0.00096210,0.00553385,0.00314613,0.00426953,-0.00037855,-0.00164099,-0
 .00413688,0.00005571,0.00030703,-0.00035080,0.00047054,0.00089053,-0.0
 0015925,-0.00055956,-0.00070617,-0.00107686,0.00762289,-0.00465329,0.0
 0371672,-0.00014252,0.00018954,-0.00006589,0.00025463,-0.00005240,-0.0
 0016306,-0.00001741,0.00004681,0.00007910,0.00009345,-0.00008985,-0.00
 013760,0.00743910,-0.23103144,0.14182294,-0.00181817,0.00273819,0.0016
 8775,-0.01342020,0.24829780,-0.00041980,0.00011270,-0.00014134,0.00056
 509,0.00005039,-0.00153852,-0.00505094,0.00094191,0.00297958,0.0001963
 4,-0.00022680,0.00013553,0.00007593,-0.00000413,0.00002970,-0.00045398
 ,0.00093094,0.00105059,0.00605100,0.00163887,0.00538815,-0.00103033,-0
 .00402565,-0.00538910,-0.00037918,0.00003616,-0.00019317,-0.00074285,-
 0.00034384,0.00044883,-0.00061345,-0.00058583,-0.00081461,0.00594344,0
 .01382654,-0.00921992,0.00018477,-0.00004046,-0.00006332,0.00023318,0.
 00002920,-0.00018004,-0.00007494,0.00002580,0.00006610,0.00010106,0.00
 003934,-0.00009837,-0.01959619,0.13134317,-0.11767304,0.00217246,0.004
 05897,0.00274637,0.01335192,-0.14392727,0.13380162,-0.00009582,0.00011
 637,-0.00033686,-0.00140125,-0.00132699,-0.00115748,-0.02397723,-0.002
 83637,-0.00307705,0.00066109,-0.00113501,-0.00091373,-0.00000479,-0.00
 004672,0.00006285,-0.00043733,0.00116254,0.00383309,-0.00720693,0.0057
 6495,0.00791439,-0.00722960,-0.00460233,-0.00883137,-0.00056687,0.0005
 5161,-0.00098421,-0.00001749,0.00039872,-0.00003999,0.00108796,0.00202
 696,0.00521820,0.00291587,0.01025306,0.00962018,0.00024634,0.00039834,
 0.00019942,-0.00066655,0.00041826,0.00122846,-0.00003040,0.00007851,0.
 00015480,-0.00018312,0.00011252,0.00044863,-0.03252934,0.01258626,0.01
 872081,0.00046564,-0.00029472,-0.00011821,0.00028275,-0.00011685,-0.00
 073767,0.06630267,-0.00194410,0.00055182,-0.00106550,0.00408905,-0.000
 47494,-0.00640303,-0.05096263,0.00552195,0.01640230,0.00082885,-0.0007
 7314,0.00003565,0.00117399,-0.00009981,-0.00016937,-0.00099136,0.00167
 876,0.00413282,0.04988190,0.00191101,0.04165688,-0.00971700,-0.0105006
 7,-0.02967534,-0.00050358,0.00063295,-0.00082498,0.00033124,-0.0001943
 3,0.00019163,-0.00379359,-0.00360619,-0.01416058,0.04374346,0.01004929
 ,-0.00480446,-0.00020974,0.00035138,-0.00009613,0.00176889,0.00033929,
 -0.00056973,-0.00113636,0.00008194,0.00069453,-0.00089171,0.00058946,0
 .00090395,-0.02221867,-0.01787922,0.03684410,0.00076550,0.00011046,0.0
 0030165,0.00374284,-0.01829447,-0.01777564,-0.01397414,0.03099612,-0.0
 0244190,0.00065724,-0.00106426,0.00434367,-0.00773202,-0.00834068,-0.0
 6758809,0.00290934,0.02239893,0.00213205,0.00001457,0.00070491,0.00032
 942,0.00005606,-0.00009358,-0.00126709,0.00226664,0.00440376,0.0635046
 2,0.03434145,0.02902414,-0.01122709,-0.01137760,-0.04132801,-0.0010002
 5,0.00062865,-0.00083055,-0.00003843,-0.00015481,0.00066231,-0.0052025
 1,-0.00960328,-0.02243663,0.07121068,0.00609734,-0.01919220,-0.0003986
 9,0.00005083,-0.00076374,0.00284242,-0.00102078,-0.00082973,-0.0010153
 2,-0.00004208,0.00133584,-0.00161417,0.00030806,0.00109897,-0.03356518
 ,0.01740599,0.02960710,0.00036648,0.00103799,0.00094413,0.00039835,-0.
 00235253,-0.00345326,-0.02206388,-0.02669916,0.01473040,0.00013957,-0.
 00003590,0.00002136,-0.00047547,0.00046094,0.00030867,0.00154202,0.000
 38447,0.00028714,-0.00005605,-0.00017684,-0.00038406,-0.00000448,0.000
 01250,0.00001516,0.00044102,-0.00031914,0.00025060,-0.00043685,-0.0009
 1246,-0.00119585,-0.00172619,-0.00339286,0.00356921,-0.00001892,-0.000
 03730,0.00002012,0.00006105,0.00003636,-0.00000732,-0.00015578,-0.0000
 3566,-0.00003240,-0.02039714,0.00171207,-0.01824688,-0.00116986,-0.000
 08321,-0.00058206,0.00004868,-0.00001821,-0.00004753,0.00000164,0.0000
 0576,0.00002254,0.00000719,0.00002048,0.00004784,-0.23650393,0.0080888
 2,-0.13081923,0.00095770,0.00125425,0.00121060,0.00049729,-0.00008154,
 0.00022413,0.00238438,0.00001717,0.00229493,0.25486413,-0.00048378,0.0
 0006734,-0.00011442,0.00118303,-0.00102593,-0.00090723,-0.00443573,0.0
 0017122,0.00133947,0.00017812,0.00079651,0.00034317,0.00004067,-0.0000
 2543,-0.00001163,-0.00089748,-0.00081120,0.00046528,0.00227986,0.00112
 860,0.00221813,-0.00350252,0.00135545,-0.00068604,-0.00000535,0.000253
 28,-0.00020522,0.00010140,0.00038865,-0.00027705,-0.00009543,0.0000176
 6,-0.00022706,-0.00449944,0.00118253,-0.00765888,-0.00056188,0.0003477
 7,0.00006618,0.00008475,-0.00001236,-0.00002246,0.00006205,-0.00008651
 ,-0.00011954,0.00009100,0.00000490,-0.00014026,0.00533760,-0.04577941,
 0.01845120,0.00051865,-0.00142739,-0.00246393,0.02103916,0.00090040,0.
 01389562,-0.00953497,-0.00099166,-0.00679191,-0.00689972,0.04354561,-0
 .00032933,0.00003097,-0.00008571,0.00090247,-0.00056582,-0.00044901,-0
 .00241730,-0.00038796,0.00030041,-0.00013028,0.00022014,0.00012529,0.0
 0003514,-0.00006780,-0.00001603,-0.00004792,0.00013020,-0.00013097,0.0
 0065865,0.00004924,0.00096906,0.00086507,0.00317854,-0.00139632,-0.000
 01949,0.00002973,0.00002454,0.00001357,-0.00012943,0.00005376,-0.00008
 955,0.00008770,0.00008765,0.01749061,-0.00013478,0.01116007,0.00066884
 ,0.00031932,0.00024946,0.00007113,0.00002842,0.00002000,0.00005766,-0.
 00014927,-0.00012578,0.00004725,0.00010655,-0.00019732,-0.14021633,0.0
 1714429,-0.13463370,0.00022386,-0.00252930,-0.00088575,-0.01168673,-0.
 00128775,-0.00788178,-0.00914037,0.00108042,-0.00657785,0.14304303,-0.
 01715343,0.13938998\\-0.00049256,0.00013701,0.00000227,0.00050027,-0.0
 0017482,-0.00000802,-0.00002692,0.00004657,-0.00000053,0.00000142,-0.0
 0000474,0.00001374,0.00000028,0.00000016,0.00000265,-0.00000308,-0.000
 00161,-0.00000904,0.00001550,-0.00000700,0.00000432,0.00000006,-0.0000
 0383,-0.00002000,-0.00000048,0.00000002,-0.00000073,-0.00000015,-0.000
 00018,0.00000129,-0.00000484,0.00000264,-0.00000482,0.00002151,0.00001
 021,0.00000539,0.00000048,-0.00000115,-0.00000125,0.00000037,0.0000002
 5,0.00000066,-0.00000060,0.00000037,0.00000101,0.00000083,-0.00000028,
 -0.00000044,-0.00001570,0.00001115,0.00003018,0.00000048,0.00000002,-0
 .00000037,0.00000216,-0.00000189,-0.00000040,0.00000135,-0.00001370,-0
 .00001531,-0.00000037,0.00000079,-0.00000060\\\@


      HUMANKIND PERIODICALLY GOES THROUGH A SPEEDUP OF ITS AFFAIRS, 
      THEREBY EXPERIENCING THE RACE BETWEEN THE RENEWABLE VITALITY
      OF THE LIVING, AND THE BECKONING VITIATION OF DECADENCE.
      IN THIS PERIODIC RACE, ANY PAUSE BECOMES A LUXURY.
      ONLY THEN CAN ONE REFLECT THAT ALL IS PERMITTED;
      ALL IS POSSIBLE.

                              -- THE APOCRYPHA OF MUAD'DIB
                                 CHILDREN OF DUNE, BY FRANK HERBERT
 Job cpu time:       0 days  2 hours 30 minutes  0.7 seconds.
 Elapsed time:       0 days  0 hours 12 minutes 30.7 seconds.
 File lengths (MBytes):  RWF=    205 Int=      0 D2E=      0 Chk=     32 Scr=      1
 Normal termination of Gaussian 16 at Fri Jun 10 23:17:31 2022.
