 Entering Gaussian System, Link 0=g16
 Input=int_initalOptXYZ_aligned_sp.gjf
 Output=int_initalOptXYZ_aligned_sp.out
 Initial command:
 /software/gaussian/g16-a03/l1.exe "/local_scratch/11171795/Gau-14069.inp" -scrdir="/local_scratch/11171795/"
 Entering Link 1 = /software/gaussian/g16-a03/l1.exe PID=     14070.
  
 Copyright (c) 1988,1990,1992,1993,1995,1998,2003,2009,2016,
            Gaussian, Inc.  All Rights Reserved.
  
 This is part of the Gaussian(R) 16 program.  It is based on
 the Gaussian(R) 09 system (copyright 2009, Gaussian, Inc.),
 the Gaussian(R) 03 system (copyright 2003, Gaussian, Inc.),
 the Gaussian(R) 98 system (copyright 1998, Gaussian, Inc.),
 the Gaussian(R) 94 system (copyright 1995, Gaussian, Inc.),
 the Gaussian 92(TM) system (copyright 1992, Gaussian, Inc.),
 the Gaussian 90(TM) system (copyright 1990, Gaussian, Inc.),
 the Gaussian 88(TM) system (copyright 1988, Gaussian, Inc.),
 the Gaussian 86(TM) system (copyright 1986, Carnegie Mellon
 University), and the Gaussian 82(TM) system (copyright 1983,
 Carnegie Mellon University). Gaussian is a federally registered
 trademark of Gaussian, Inc.
  
 This software contains proprietary and confidential information,
 including trade secrets, belonging to Gaussian, Inc.
  
 This software is provided under written license and may be
 used, copied, transmitted, or stored only in accord with that
 written license.
  
 The following legend is applicable only to US Government
 contracts under FAR:
  
                    RESTRICTED RIGHTS LEGEND
  
 Use, reproduction and disclosure by the US Government is
 subject to restrictions as set forth in subparagraphs (a)
 and (c) of the Commercial Computer Software - Restricted
 Rights clause in FAR 52.227-19.
  
 Gaussian, Inc.
 340 Quinnipiac St., Bldg. 40, Wallingford CT 06492
  
  
 ---------------------------------------------------------------
 Warning -- This program may not be used in any manner that
 competes with the business of Gaussian, Inc. or will provide
 assistance to any competitor of Gaussian, Inc.  The licensee
 of this program is prohibited from giving any competitor of
 Gaussian, Inc. access to this program.  By using this program,
 the user acknowledges that Gaussian, Inc. is engaged in the
 business of creating and licensing software in the field of
 computational chemistry and represents and warrants to the
 licensee that it is not a competitor of Gaussian, Inc. and that
 it will not use this program in any manner prohibited above.
 ---------------------------------------------------------------
  

 Cite this work as:
 Gaussian 16, Revision A.03,
 M. J. Frisch, G. W. Trucks, H. B. Schlegel, G. E. Scuseria, 
 M. A. Robb, J. R. Cheeseman, G. Scalmani, V. Barone, 
 G. A. Petersson, H. Nakatsuji, X. Li, M. Caricato, A. V. Marenich, 
 J. Bloino, B. G. Janesko, R. Gomperts, B. Mennucci, H. P. Hratchian, 
 J. V. Ortiz, A. F. Izmaylov, J. L. Sonnenberg, D. Williams-Young, 
 F. Ding, F. Lipparini, F. Egidi, J. Goings, B. Peng, A. Petrone, 
 T. Henderson, D. Ranasinghe, V. G. Zakrzewski, J. Gao, N. Rega, 
 G. Zheng, W. Liang, M. Hada, M. Ehara, K. Toyota, R. Fukuda, 
 J. Hasegawa, M. Ishida, T. Nakajima, Y. Honda, O. Kitao, H. Nakai, 
 T. Vreven, K. Throssell, J. A. Montgomery, Jr., J. E. Peralta, 
 F. Ogliaro, M. J. Bearpark, J. J. Heyd, E. N. Brothers, K. N. Kudin, 
 V. N. Staroverov, T. A. Keith, R. Kobayashi, J. Normand, 
 K. Raghavachari, A. P. Rendell, J. C. Burant, S. S. Iyengar, 
 J. Tomasi, M. Cossi, J. M. Millam, M. Klene, C. Adamo, R. Cammi, 
 J. W. Ochterski, R. L. Martin, K. Morokuma, O. Farkas, 
 J. B. Foresman, and D. J. Fox, Gaussian, Inc., Wallingford CT, 2016.
 
 ******************************************
 Gaussian 16:  ES64L-G16RevA.03 25-Dec-2016
                10-Jun-2022 
 ******************************************
 %nprocshared=12
 Will use up to   12 processors via shared memory.
 %chk=checkpoint.chk
 %mem=12GB
 --------------------------
 # sp B3LYP/Def2TZVP NoSymm
 --------------------------
 1/38=1,172=1/1;
 2/12=2,15=1,17=6,18=5,40=1/2;
 3/5=44,7=101,11=2,25=1,30=1,74=-5/1,2,3;
 4//1;
 5/5=2,38=5/2;
 6/7=2,8=2,9=2,10=2,28=1/1;
 99/5=1,9=1/99;
 ----------------------------------
 int_initalOptXYZ_aligned_AlignedSp
 ----------------------------------
 Symbolic Z-matrix:
 Charge =  0 Multiplicity = 1
 6                    -0.42659  -0.4551   -0.29546 
 6                    -1.73178  -0.53436  -0.52621 
 1                    -2.26603   0.36464  -0.81905 
 6                    -2.56703  -1.77482  -0.41968 
 1                    -1.98872  -2.64252  -0.10213 
 1                    -3.03256  -2.0174   -1.37998 
 1                    -3.38313  -1.63639   0.29593 
 6                     0.48147  -1.58587   0.14709 
 8                     1.79653  -1.03878   0.20884 
 1                     0.50234  -2.42658  -0.5496 
 1                     0.182    -1.96805   1.13318 
 6                     1.6642    0.35748   0.44782 
 6                     0.4581    0.78497  -0.39574 
 1                     2.59911   0.83608   0.15893 
 1                     1.47958   0.54963   1.5135 
 6                    -0.19746   2.08764  -0.04893 
 1                     0.80202   0.85218  -1.438 
 6                     0.24466   2.98877   0.82003 
 1                    -1.11076   2.30431  -0.59551 
 1                     1.15327   2.85205   1.39334 
 1                    -0.29618   3.91101   0.99011 
 
                          Input orientation:                          
 ---------------------------------------------------------------------
 Center     Atomic      Atomic             Coordinates (Angstroms)
 Number     Number       Type             X           Y           Z
 ---------------------------------------------------------------------
      1          6           0       -0.426588   -0.455095   -0.295457
      2          6           0       -1.731775   -0.534364   -0.526211
      3          1           0       -2.266028    0.364641   -0.819053
      4          6           0       -2.567027   -1.774818   -0.419678
      5          1           0       -1.988723   -2.642518   -0.102132
      6          1           0       -3.032563   -2.017401   -1.379976
      7          1           0       -3.383125   -1.636392    0.295928
      8          6           0        0.481471   -1.585870    0.147085
      9          8           0        1.796528   -1.038784    0.208843
     10          1           0        0.502342   -2.426583   -0.549599
     11          1           0        0.181997   -1.968052    1.133184
     12          6           0        1.664202    0.357476    0.447817
     13          6           0        0.458099    0.784974   -0.395741
     14          1           0        2.599109    0.836075    0.158931
     15          1           0        1.479583    0.549629    1.513498
     16          6           0       -0.197464    2.087644   -0.048929
     17          1           0        0.802024    0.852182   -1.437998
     18          6           0        0.244661    2.988767    0.820026
     19          1           0       -1.110757    2.304305   -0.595511
     20          1           0        1.153272    2.852045    1.393344
     21          1           0       -0.296182    3.911007    0.990110
 ---------------------------------------------------------------------
                    Distance matrix (angstroms):
                    1          2          3          4          5
     1  C    0.000000
     2  C    1.327797   0.000000
     3  H    2.080783   1.085998   0.000000
     4  C    2.517653   1.499240   2.197131   0.000000
     5  H    2.694895   2.165682   3.103849   1.090034   0.000000
     6  H    3.226157   2.149503   2.564437   1.094414   1.764443
     7  H    3.238257   2.148799   2.548572   1.094198   1.764964
     8  C    1.516267   2.541151   3.505234   3.106487   2.698235
     9  O    2.353137   3.639185   4.419336   4.469608   4.122717
    10  H    2.194143   2.927852   3.940483   3.140494   2.540130
    11  H    2.168047   2.910597   3.904550   3.163203   2.587071
    12  C    2.363077   3.643730   4.129373   4.816900   4.758810
    13  C    1.526597   2.559926   2.788681   3.962890   4.221474
    14  H    3.320908   4.593918   4.984803   5.817260   5.763416
    15  H    2.813410   3.955790   4.416403   5.051265   4.982892
    16  C    2.564916   3.075197   2.800141   4.546526   5.058248
    17  H    2.126937   3.028862   3.167607   4.391880   4.667519
    18  C    3.681720   4.258064   3.984492   5.668703   6.127785
    19  H    2.858742   2.906632   2.268682   4.334845   5.048297
    20  H    4.035490   4.845199   4.772158   6.207700   6.503753
    21  H    4.553299   4.911362   4.441855   6.282742   6.856120
                    6          7          8          9         10
     6  H    0.000000
     7  H    1.754057   0.000000
     8  C    3.855719   3.867791   0.000000
     9  O    5.177080   5.214741   1.425655   0.000000
    10  H    3.654109   4.054155   1.092063   2.043560   0.000000
    11  H    4.080662   3.677104   1.099154   2.079581   1.773311
    12  C    5.571397   5.429004   2.294752   1.422730   3.177380
    13  C    4.583312   4.593084   2.432305   2.341582   3.215545
    14  H    6.498176   6.474487   3.217196   2.040030   3.942510
    15  H    5.943172   5.468738   2.724641   2.079816   3.750894
    16  C    5.163416   4.912821   3.740866   3.717123   4.595503
    17  H    4.789774   5.168653   2.925635   2.697569   3.410185
    18  C    6.375102   5.901492   4.629928   4.359243   5.591805
    19  H    4.794358   4.635452   4.268501   4.502836   4.998550
    20  H    6.994571   6.475283   4.658279   4.117690   5.662389
    21  H    6.946302   6.386293   5.615255   5.430492   6.570646
                   11         12         13         14         15
    11  H    0.000000
    12  C    2.841609   0.000000
    13  C    3.161170   1.532654   0.000000
    14  H    3.828149   1.089295   2.212283   0.000000
    15  H    2.857811   1.098491   2.178075   1.780517   0.000000
    16  C    4.241468   2.589602   1.498997   3.070904   2.760282
    17  H    3.866411   2.131756   1.099591   2.404154   3.043346
    18  C    4.967097   3.012861   2.525935   3.257999   2.820519
    19  H    4.786714   3.546699   2.193076   4.060540   3.773151
    20  H    4.923860   2.716237   2.820793   2.770985   2.328526
    21  H    5.900208   4.094480   3.501657   4.304506   3.837465
                   16         17         18         19         20
    16  C    0.000000
    17  H    2.110653   0.000000
    18  C    1.327622   3.158215   0.000000
    19  H    1.086185   2.545030   2.075907   0.000000
    20  H    2.118714   3.484153   1.083033   3.062906   0.000000
    21  H    2.100952   4.056868   1.082574   2.399837   1.839814
                   21
    21  H    0.000000
 Symmetry turned off by external request.
 Stoichiometry    C8H12O
 Framework group  C1[X(C8H12O)]
 Deg. of freedom    57
 Full point group                 C1      NOp   1
 Rotational constants (GHZ):           2.1699050           1.3231418           0.8735133
 Standard basis: def2TZVP (5D, 7F)
   351 basis functions,   555 primitive gaussians,   396 cartesian basis functions
    34 alpha electrons       34 beta electrons
       nuclear repulsion energy       444.5741964965 Hartrees.
 NAtoms=   21 NActive=   21 NUniq=   21 SFac= 1.00D+00 NAtFMM=   60 NAOKFM=F Big=F
 Integral buffers will be    131072 words long.
 Raffenetti 2 integral format.
 Two-electron integral symmetry is turned off.
 One-electron integrals computed using PRISM.
   1 Symmetry operations used in ECPInt.
 ECPInt:  NShTT=   10878 NPrTT=   32112 LenC2=   10560 LenP2D=   24705.
 LDataN:  DoStor=T MaxTD1= 6 Len=  172
 NBasis=   351 RedAO= T EigKep=  6.87D-05  NBF=   351
 NBsUse=   351 1.00D-06 EigRej= -1.00D+00 NBFU=   351
 ExpMin= 9.52D-02 ExpMax= 2.70D+04 ExpMxC= 9.22D+02 IAcc=3 IRadAn=         5 AccDes= 0.00D+00
 Harris functional with IExCor=  402 and IRadAn=       5 diagonalized for initial guess.
 HarFok:  IExCor=  402 AccDes= 0.00D+00 IRadAn=         5 IDoV= 1 UseB2=F ITyADJ=14
 ICtDFT=  3500011 ScaDFX=  1.000000  1.000000  1.000000  1.000000
 FoFCou: FMM=F IPFlag=           0 FMFlag=      100000 FMFlg1=           0
         NFxFlg=           0 DoJE=T BraDBF=F KetDBF=T FulRan=T
         wScrn=  0.000000 ICntrl=       500 IOpCl=  0 I1Cent=   200000004 NGrid=           0
         NMat0=    1 NMatS0=      1 NMatT0=    0 NMatD0=    1 NMtDS0=    0 NMtDT0=    0
 Symmetry not used in FoFCou.
 Requested convergence on RMS density matrix=1.00D-08 within 128 cycles.
 Requested convergence on MAX density matrix=1.00D-06.
 Requested convergence on             energy=1.00D-06.
 No special actions if energy rises.
 Integral accuracy reduced to 1.0D-05 until final iterations.
 Initial convergence to 1.0D-05 achieved.  Increase integral accuracy.
 SCF Done:  E(RB3LYP) =  -387.391420244     A.U. after   14 cycles
            NFock= 14  Conv=0.52D-08     -V/T= 2.0053

 **********************************************************************

            Population analysis using the SCF density.

 **********************************************************************

 Alpha  occ. eigenvalues --  -19.12781 -10.21971 -10.21703 -10.18887 -10.18275
 Alpha  occ. eigenvalues --  -10.18083 -10.17157 -10.17130 -10.16874  -1.04183
 Alpha  occ. eigenvalues --   -0.82923  -0.79059  -0.73403  -0.72612  -0.64677
 Alpha  occ. eigenvalues --   -0.62880  -0.56557  -0.53108  -0.50644  -0.48530
 Alpha  occ. eigenvalues --   -0.46631  -0.45152  -0.43154  -0.41954  -0.41340
 Alpha  occ. eigenvalues --   -0.40124  -0.38922  -0.38278  -0.36454  -0.34031
 Alpha  occ. eigenvalues --   -0.31955  -0.27092  -0.26316  -0.24461
 Alpha virt. eigenvalues --   -0.00091   0.00301   0.03545   0.05189   0.05550
 Alpha virt. eigenvalues --    0.06703   0.08174   0.08670   0.10044   0.10933
 Alpha virt. eigenvalues --    0.11157   0.11285   0.13107   0.13538   0.14031
 Alpha virt. eigenvalues --    0.16193   0.17268   0.18228   0.18523   0.20068
 Alpha virt. eigenvalues --    0.20630   0.21153   0.22799   0.23346   0.24044
 Alpha virt. eigenvalues --    0.24608   0.26122   0.27344   0.28122   0.29179
 Alpha virt. eigenvalues --    0.30909   0.32501   0.33192   0.33844   0.35334
 Alpha virt. eigenvalues --    0.36444   0.36887   0.38760   0.39281   0.39629
 Alpha virt. eigenvalues --    0.40325   0.40851   0.41719   0.41842   0.42254
 Alpha virt. eigenvalues --    0.43802   0.44779   0.45126   0.45388   0.46291
 Alpha virt. eigenvalues --    0.47005   0.47756   0.48274   0.48851   0.50443
 Alpha virt. eigenvalues --    0.51058   0.52355   0.54419   0.56461   0.57540
 Alpha virt. eigenvalues --    0.59154   0.59405   0.61296   0.62205   0.63849
 Alpha virt. eigenvalues --    0.65624   0.66649   0.67425   0.70600   0.71826
 Alpha virt. eigenvalues --    0.72596   0.74910   0.77544   0.81086   0.81533
 Alpha virt. eigenvalues --    0.82615   0.84276   0.86575   0.87398   0.90027
 Alpha virt. eigenvalues --    0.90763   0.93417   0.94336   0.95198   0.98479
 Alpha virt. eigenvalues --    0.99125   1.00515   1.02551   1.02901   1.04306
 Alpha virt. eigenvalues --    1.06400   1.06805   1.09165   1.10983   1.11268
 Alpha virt. eigenvalues --    1.13358   1.14810   1.16267   1.18991   1.20476
 Alpha virt. eigenvalues --    1.21766   1.24752   1.25719   1.27340   1.30801
 Alpha virt. eigenvalues --    1.31437   1.35091   1.36350   1.39773   1.43353
 Alpha virt. eigenvalues --    1.45601   1.46480   1.47957   1.49230   1.51111
 Alpha virt. eigenvalues --    1.52570   1.52710   1.54477   1.56272   1.56469
 Alpha virt. eigenvalues --    1.57358   1.58829   1.59763   1.60678   1.61169
 Alpha virt. eigenvalues --    1.62708   1.63538   1.68355   1.69770   1.71158
 Alpha virt. eigenvalues --    1.74339   1.74613   1.76437   1.79522   1.80746
 Alpha virt. eigenvalues --    1.81877   1.83702   1.84382   1.87293   1.89030
 Alpha virt. eigenvalues --    1.89397   1.92432   1.95291   1.97118   1.98897
 Alpha virt. eigenvalues --    1.99866   2.01082   2.04255   2.05589   2.07294
 Alpha virt. eigenvalues --    2.09818   2.10794   2.12943   2.14282   2.16786
 Alpha virt. eigenvalues --    2.20514   2.21670   2.25392   2.27301   2.28453
 Alpha virt. eigenvalues --    2.31906   2.32090   2.35136   2.35644   2.37297
 Alpha virt. eigenvalues --    2.38748   2.40698   2.41794   2.42947   2.45569
 Alpha virt. eigenvalues --    2.45680   2.48319   2.49240   2.51935   2.52059
 Alpha virt. eigenvalues --    2.54028   2.55077   2.56034   2.56695   2.58536
 Alpha virt. eigenvalues --    2.58716   2.60983   2.63021   2.64345   2.67488
 Alpha virt. eigenvalues --    2.69099   2.69357   2.73702   2.74932   2.77228
 Alpha virt. eigenvalues --    2.79319   2.80262   2.81718   2.83282   2.85865
 Alpha virt. eigenvalues --    2.86509   2.89440   2.91178   2.91488   2.93427
 Alpha virt. eigenvalues --    2.94207   2.95860   2.97405   2.98896   2.99710
 Alpha virt. eigenvalues --    3.02720   3.04342   3.05664   3.06809   3.07529
 Alpha virt. eigenvalues --    3.08958   3.10647   3.12066   3.13425   3.14638
 Alpha virt. eigenvalues --    3.16089   3.18388   3.19338   3.20816   3.21974
 Alpha virt. eigenvalues --    3.22075   3.23724   3.25851   3.26735   3.28158
 Alpha virt. eigenvalues --    3.29875   3.31240   3.32832   3.33927   3.35447
 Alpha virt. eigenvalues --    3.35910   3.36879   3.39139   3.39939   3.42541
 Alpha virt. eigenvalues --    3.44847   3.47486   3.50042   3.50723   3.51038
 Alpha virt. eigenvalues --    3.52071   3.55021   3.57211   3.59232   3.59788
 Alpha virt. eigenvalues --    3.61289   3.65074   3.67354   3.69490   3.70187
 Alpha virt. eigenvalues --    3.72232   3.74524   3.79998   3.80276   3.82031
 Alpha virt. eigenvalues --    3.84400   3.87916   3.91389   3.93065   3.94995
 Alpha virt. eigenvalues --    3.96563   3.98787   4.01901   4.04416   4.05070
 Alpha virt. eigenvalues --    4.09843   4.14192   4.16413   4.18341   4.23587
 Alpha virt. eigenvalues --    4.25585   4.32204   4.34300   4.35852   4.38169
 Alpha virt. eigenvalues --    4.43841   4.44075   4.46641   4.52607   4.53888
 Alpha virt. eigenvalues --    4.57232   4.58135   4.60839   4.65383   4.67329
 Alpha virt. eigenvalues --    4.71405   4.81712   4.82455   4.87256   4.96824
 Alpha virt. eigenvalues --    4.98213   4.98989   5.07508   5.17029   5.27549
 Alpha virt. eigenvalues --    5.37430   5.44590   5.47701   5.78599   5.79748
 Alpha virt. eigenvalues --    5.83492   6.16370   6.18276   6.71074   6.80293
 Alpha virt. eigenvalues --    6.86472   7.20477   7.24505  22.11310  22.28769
 Alpha virt. eigenvalues --   22.35570  22.53494  22.59262  22.70555  22.72020
 Alpha virt. eigenvalues --   23.09673  44.11690
          Condensed to atoms (all electrons):
               1          2          3          4          5          6
     1  C    5.419975   0.396697  -0.047885  -0.017381   0.013507  -0.007617
     2  C    0.396697   5.274643   0.400205   0.253296  -0.073142  -0.037161
     3  H   -0.047885   0.400205   0.579501  -0.035891   0.005323  -0.001486
     4  C   -0.017381   0.253296  -0.035891   4.890625   0.425935   0.408535
     5  H    0.013507  -0.073142   0.005323   0.425935   0.565637  -0.024337
     6  H   -0.007617  -0.037161  -0.001486   0.408535  -0.024337   0.581800
     7  H   -0.001674  -0.044155  -0.001914   0.410240  -0.023628  -0.037189
     8  C    0.309401  -0.034308   0.006214  -0.003854   0.003538  -0.000513
     9  O   -0.071539   0.006281  -0.000365  -0.000438  -0.000114   0.000011
    10  H   -0.016060  -0.010950  -0.000235   0.002125  -0.003058   0.000927
    11  H   -0.100625   0.023972  -0.000397  -0.002665  -0.000332  -0.000308
    12  C   -0.070413   0.014648  -0.000811  -0.000529   0.000032  -0.000011
    13  C    0.352585  -0.078964  -0.005020   0.008746   0.000723  -0.000749
    14  H    0.014069  -0.001952  -0.000034   0.000050  -0.000003  -0.000001
    15  H   -0.012218   0.007510   0.000026  -0.000194   0.000016   0.000011
    16  C   -0.032781   0.009739  -0.000508   0.000688   0.000023  -0.000086
    17  H   -0.057157   0.007568   0.001570  -0.000742   0.000006   0.000248
    18  C   -0.000445   0.003071   0.001170  -0.000077   0.000005   0.000004
    19  H   -0.013625   0.002431   0.004010   0.000320   0.000018  -0.000036
    20  H   -0.000643   0.000140  -0.000002   0.000004   0.000000  -0.000000
    21  H   -0.000778  -0.000043   0.000040  -0.000000   0.000000  -0.000000
               7          8          9         10         11         12
     1  C   -0.001674   0.309401  -0.071539  -0.016060  -0.100625  -0.070413
     2  C   -0.044155  -0.034308   0.006281  -0.010950   0.023972   0.014648
     3  H   -0.001914   0.006214  -0.000365  -0.000235  -0.000397  -0.000811
     4  C    0.410240  -0.003854  -0.000438   0.002125  -0.002665  -0.000529
     5  H   -0.023628   0.003538  -0.000114  -0.003058  -0.000332   0.000032
     6  H   -0.037189  -0.000513   0.000011   0.000927  -0.000308  -0.000011
     7  H    0.581613  -0.001115  -0.000004  -0.000339   0.000781   0.000065
     8  C   -0.001115   4.704751   0.326947   0.388889   0.416090  -0.053954
     9  O   -0.000004   0.326947   7.996845  -0.035891  -0.050661   0.306244
    10  H   -0.000339   0.388889  -0.035891   0.628921  -0.065590   0.004349
    11  H    0.000781   0.416090  -0.050661  -0.065590   0.684042   0.012840
    12  C    0.000065  -0.053954   0.306244   0.004349   0.012840   4.764017
    13  C    0.000199  -0.077191  -0.082645   0.000072  -0.013732   0.273791
    14  H   -0.000002   0.007952  -0.032010   0.000602  -0.001827   0.374149
    15  H   -0.000024   0.000233  -0.050276  -0.001675   0.010368   0.444775
    16  C    0.000043   0.011196   0.010381  -0.001218   0.003166   0.018242
    17  H   -0.000082   0.007788   0.008284  -0.000146   0.000301  -0.038768
    18  C    0.000003  -0.000455  -0.000534   0.000107  -0.000494  -0.018096
    19  H    0.000036  -0.000322  -0.000330  -0.000066   0.000112   0.005492
    20  H   -0.000000   0.000044  -0.000153  -0.000005   0.000057   0.002851
    21  H    0.000001   0.000038  -0.000014  -0.000002   0.000003   0.000273
              13         14         15         16         17         18
     1  C    0.352585   0.014069  -0.012218  -0.032781  -0.057157  -0.000445
     2  C   -0.078964  -0.001952   0.007510   0.009739   0.007568   0.003071
     3  H   -0.005020  -0.000034   0.000026  -0.000508   0.001570   0.001170
     4  C    0.008746   0.000050  -0.000194   0.000688  -0.000742  -0.000077
     5  H    0.000723  -0.000003   0.000016   0.000023   0.000006   0.000005
     6  H   -0.000749  -0.000001   0.000011  -0.000086   0.000248   0.000004
     7  H    0.000199  -0.000002  -0.000024   0.000043  -0.000082   0.000003
     8  C   -0.077191   0.007952   0.000233   0.011196   0.007788  -0.000455
     9  O   -0.082645  -0.032010  -0.050276   0.010381   0.008284  -0.000534
    10  H    0.000072   0.000602  -0.001675  -0.001218  -0.000146   0.000107
    11  H   -0.013732  -0.001827   0.010368   0.003166   0.000301  -0.000494
    12  C    0.273791   0.374149   0.444775   0.018242  -0.038768  -0.018096
    13  C    5.150425  -0.003073  -0.121123   0.186175   0.377710  -0.009696
    14  H   -0.003073   0.611587  -0.055542  -0.005332  -0.013925   0.003441
    15  H   -0.121123  -0.055542   0.671127   0.023854   0.013455  -0.008336
    16  C    0.186175  -0.005332   0.023854   5.089629  -0.053135   0.568611
    17  H    0.377710  -0.013925   0.013455  -0.053135   0.675642  -0.001896
    18  C   -0.009696   0.003441  -0.008336   0.568611  -0.001896   4.930650
    19  H   -0.037722  -0.000580   0.000217   0.398807  -0.004031  -0.032996
    20  H   -0.009957  -0.002040   0.002237  -0.046700   0.000238   0.417331
    21  H    0.007994  -0.000071   0.000081  -0.038367  -0.000396   0.409941
              19         20         21
     1  C   -0.013625  -0.000643  -0.000778
     2  C    0.002431   0.000140  -0.000043
     3  H    0.004010  -0.000002   0.000040
     4  C    0.000320   0.000004  -0.000000
     5  H    0.000018   0.000000   0.000000
     6  H   -0.000036  -0.000000  -0.000000
     7  H    0.000036  -0.000000   0.000001
     8  C   -0.000322   0.000044   0.000038
     9  O   -0.000330  -0.000153  -0.000014
    10  H   -0.000066  -0.000005  -0.000002
    11  H    0.000112   0.000057   0.000003
    12  C    0.005492   0.002851   0.000273
    13  C   -0.037722  -0.009957   0.007994
    14  H   -0.000580  -0.002040  -0.000071
    15  H    0.000217   0.002237   0.000081
    16  C    0.398807  -0.046700  -0.038367
    17  H   -0.004031   0.000238  -0.000396
    18  C   -0.032996   0.417331   0.409941
    19  H    0.578795   0.006788  -0.008988
    20  H    0.006788   0.552538  -0.032632
    21  H   -0.008988  -0.032632   0.551007
 Mulliken charges:
               1
     1  C   -0.055393
     2  C   -0.119525
     3  H    0.096490
     4  C   -0.338793
     5  H    0.109851
     6  H    0.117959
     7  H    0.117145
     8  C   -0.011367
     9  O   -0.330017
    10  H    0.109244
    11  H    0.084898
    12  C   -0.039184
    13  C    0.081452
    14  H    0.104541
    15  H    0.075477
    16  C   -0.142428
    17  H    0.077469
    18  C   -0.261309
    19  H    0.101672
    20  H    0.109905
    21  H    0.111913
 Sum of Mulliken charges =  -0.00000
 Mulliken charges with hydrogens summed into heavy atoms:
               1
     1  C   -0.055393
     2  C   -0.023035
     4  C    0.006162
     8  C    0.182775
     9  O   -0.330017
    12  C    0.140834
    13  C    0.158922
    16  C   -0.040756
    18  C   -0.039491
 Electronic spatial extent (au):  <R**2>=           1382.8282
 Charge=             -0.0000 electrons
 Dipole moment (field-independent basis, Debye):
    X=             -1.3708    Y=              0.4488    Z=             -0.1839  Tot=              1.4540
 Quadrupole moment (field-independent basis, Debye-Ang):
   XX=            -57.0692   YY=            -54.6019   ZZ=            -56.2377
   XY=              3.3363   XZ=              1.2283   YZ=              0.5701
 Traceless Quadrupole moment (field-independent basis, Debye-Ang):
   XX=             -1.0996   YY=              1.3677   ZZ=             -0.2681
   XY=              3.3363   XZ=              1.2283   YZ=              0.5701
 Octapole moment (field-independent basis, Debye-Ang**2):
  XXX=              5.0500  YYY=            -18.5138  ZZZ=             -1.1470  XYY=             -1.8559
  XXY=              3.7615  XXZ=             -2.6347  XZZ=              7.2891  YZZ=             -5.4204
  YYZ=              2.7992  XYZ=              3.4124
 Hexadecapole moment (field-independent basis, Debye-Ang**3):
 XXXX=           -759.6789 YYYY=           -956.1102 ZZZZ=           -169.2093 XXXY=            -83.2557
 XXXZ=            -69.6017 YYYX=           -125.2008 YYYZ=            -40.5575 ZZZX=            -70.2425
 ZZZY=            -66.0695 XXYY=           -296.9821 XXZZ=           -153.0042 YYZZ=           -189.2849
 XXYZ=            -18.1400 YYXZ=            -19.2010 ZZXY=            -31.5546
 N-N= 4.445741964965D+02 E-N=-1.789841634723D+03  KE= 3.853669813815D+02
 1\1\GINC-BHC0011\SP\RB3LYP\def2TZVP\C8H12O1\DHANAWAY\10-Jun-2022\0\\# 
 sp B3LYP/Def2TZVP NoSymm\\int_initalOptXYZ_aligned_AlignedSp\\0,1\C,0,
 -0.426588,-0.455095,-0.295457\C,0,-1.731775,-0.534364,-0.526211\H,0,-2
 .266028,0.364641,-0.819053\C,0,-2.567027,-1.774818,-0.419678\H,0,-1.98
 8723,-2.642518,-0.102132\H,0,-3.032563,-2.017401,-1.379976\H,0,-3.3831
 25,-1.636392,0.295928\C,0,0.481471,-1.58587,0.147085\O,0,1.796528,-1.0
 38784,0.208843\H,0,0.502342,-2.426583,-0.549599\H,0,0.181997,-1.968052
 ,1.133184\C,0,1.664202,0.357476,0.447817\C,0,0.458099,0.784974,-0.3957
 41\H,0,2.599109,0.836075,0.158931\H,0,1.479583,0.549629,1.513498\C,0,-
 0.197464,2.087644,-0.048929\H,0,0.802024,0.852182,-1.437998\C,0,0.2446
 61,2.988767,0.820026\H,0,-1.110757,2.304305,-0.595511\H,0,1.153272,2.8
 52045,1.393344\H,0,-0.296182,3.911007,0.99011\\Version=ES64L-G16RevA.0
 3\HF=-387.3914202\RMSD=5.250e-09\Dipole=-0.539295,0.1765797,-0.0723423
 \Quadrupole=-0.8175309,1.0168852,-0.1993542,2.4804554,0.9132225,0.4238
 829\PG=C01 [X(C8H12O1)]\\@


 K N O W I N G  IS A BARRIER WHICH PREVENTS LEARNING

                     -- TEACHING OF THE BENE GESSERIT
 Job cpu time:       0 days  0 hours 16 minutes 17.9 seconds.
 Elapsed time:       0 days  0 hours  1 minutes 21.8 seconds.
 File lengths (MBytes):  RWF=     71 Int=      0 D2E=      0 Chk=     32 Scr=      1
 Normal termination of Gaussian 16 at Fri Jun 10 11:17:26 2022.
