 Entering Gaussian System, Link 0=g16
 Input=int_initalOptXYZ_aligned_sp.gjf
 Output=int_initalOptXYZ_aligned_sp.out
 Initial command:
 /software/gaussian/g16-a03/l1.exe "/local_scratch/11171768/Gau-28469.inp" -scrdir="/local_scratch/11171768/"
 Entering Link 1 = /software/gaussian/g16-a03/l1.exe PID=     28470.
  
 Copyright (c) 1988,1990,1992,1993,1995,1998,2003,2009,2016,
            Gaussian, Inc.  All Rights Reserved.
  
 This is part of the Gaussian(R) 16 program.  It is based on
 the Gaussian(R) 09 system (copyright 2009, Gaussian, Inc.),
 the Gaussian(R) 03 system (copyright 2003, Gaussian, Inc.),
 the Gaussian(R) 98 system (copyright 1998, Gaussian, Inc.),
 the Gaussian(R) 94 system (copyright 1995, Gaussian, Inc.),
 the Gaussian 92(TM) system (copyright 1992, Gaussian, Inc.),
 the Gaussian 90(TM) system (copyright 1990, Gaussian, Inc.),
 the Gaussian 88(TM) system (copyright 1988, Gaussian, Inc.),
 the Gaussian 86(TM) system (copyright 1986, Carnegie Mellon
 University), and the Gaussian 82(TM) system (copyright 1983,
 Carnegie Mellon University). Gaussian is a federally registered
 trademark of Gaussian, Inc.
  
 This software contains proprietary and confidential information,
 including trade secrets, belonging to Gaussian, Inc.
  
 This software is provided under written license and may be
 used, copied, transmitted, or stored only in accord with that
 written license.
  
 The following legend is applicable only to US Government
 contracts under FAR:
  
                    RESTRICTED RIGHTS LEGEND
  
 Use, reproduction and disclosure by the US Government is
 subject to restrictions as set forth in subparagraphs (a)
 and (c) of the Commercial Computer Software - Restricted
 Rights clause in FAR 52.227-19.
  
 Gaussian, Inc.
 340 Quinnipiac St., Bldg. 40, Wallingford CT 06492
  
  
 ---------------------------------------------------------------
 Warning -- This program may not be used in any manner that
 competes with the business of Gaussian, Inc. or will provide
 assistance to any competitor of Gaussian, Inc.  The licensee
 of this program is prohibited from giving any competitor of
 Gaussian, Inc. access to this program.  By using this program,
 the user acknowledges that Gaussian, Inc. is engaged in the
 business of creating and licensing software in the field of
 computational chemistry and represents and warrants to the
 licensee that it is not a competitor of Gaussian, Inc. and that
 it will not use this program in any manner prohibited above.
 ---------------------------------------------------------------
  

 Cite this work as:
 Gaussian 16, Revision A.03,
 M. J. Frisch, G. W. Trucks, H. B. Schlegel, G. E. Scuseria, 
 M. A. Robb, J. R. Cheeseman, G. Scalmani, V. Barone, 
 G. A. Petersson, H. Nakatsuji, X. Li, M. Caricato, A. V. Marenich, 
 J. Bloino, B. G. Janesko, R. Gomperts, B. Mennucci, H. P. Hratchian, 
 J. V. Ortiz, A. F. Izmaylov, J. L. Sonnenberg, D. Williams-Young, 
 F. Ding, F. Lipparini, F. Egidi, J. Goings, B. Peng, A. Petrone, 
 T. Henderson, D. Ranasinghe, V. G. Zakrzewski, J. Gao, N. Rega, 
 G. Zheng, W. Liang, M. Hada, M. Ehara, K. Toyota, R. Fukuda, 
 J. Hasegawa, M. Ishida, T. Nakajima, Y. Honda, O. Kitao, H. Nakai, 
 T. Vreven, K. Throssell, J. A. Montgomery, Jr., J. E. Peralta, 
 F. Ogliaro, M. J. Bearpark, J. J. Heyd, E. N. Brothers, K. N. Kudin, 
 V. N. Staroverov, T. A. Keith, R. Kobayashi, J. Normand, 
 K. Raghavachari, A. P. Rendell, J. C. Burant, S. S. Iyengar, 
 J. Tomasi, M. Cossi, J. M. Millam, M. Klene, C. Adamo, R. Cammi, 
 J. W. Ochterski, R. L. Martin, K. Morokuma, O. Farkas, 
 J. B. Foresman, and D. J. Fox, Gaussian, Inc., Wallingford CT, 2016.
 
 ******************************************
 Gaussian 16:  ES64L-G16RevA.03 25-Dec-2016
                10-Jun-2022 
 ******************************************
 %nprocshared=12
 Will use up to   12 processors via shared memory.
 %chk=checkpoint.chk
 %mem=12GB
 --------------------------
 # sp B3LYP/Def2TZVP NoSymm
 --------------------------
 1/38=1,172=1/1;
 2/12=2,15=1,17=6,18=5,40=1/2;
 3/5=44,7=101,11=2,25=1,30=1,74=-5/1,2,3;
 4//1;
 5/5=2,38=5/2;
 6/7=2,8=2,9=2,10=2,28=1/1;
 99/5=1,9=1/99;
 ----------------------------------
 int_initalOptXYZ_aligned_AlignedSp
 ----------------------------------
 Symbolic Z-matrix:
 Charge =  0 Multiplicity = 1
 6                    -0.73223  -0.22599   0.25739 
 6                    -1.10963   1.08296  -0.00872 
 16                    0.9601   -0.54776   0.81727 
 6                     4.05567  -0.9207   -1.12962 
 6                     3.01209  -1.61692  -0.69488 
 1                     5.06792  -1.28073  -0.9991 
 1                     3.93384   0.03409  -1.62706 
 6                     1.59829  -1.17019  -0.82288 
 1                     3.17409  -2.5636   -0.18771 
 1                     0.92981  -1.98261  -1.11474 
 1                     1.48408  -0.332    -1.51122 
 8                     1.61023   0.77002   1.04543 
 1                    -0.37854   1.87348   0.1035 
 6                    -2.41904   1.34611  -0.39753 
 1                    -2.72214   2.36414  -0.60764 
 6                    -3.33786   0.30838  -0.51062 
 1                    -4.35714   0.51784  -0.80927 
 6                    -2.95293  -0.99896  -0.22629 
 1                    -3.67116  -1.8056   -0.30129 
 6                    -1.64813  -1.26959   0.16683 
 1                    -1.35208  -2.28347   0.41119 
 
                          Input orientation:                          
 ---------------------------------------------------------------------
 Center     Atomic      Atomic             Coordinates (Angstroms)
 Number     Number       Type             X           Y           Z
 ---------------------------------------------------------------------
      1          6           0       -0.732228   -0.225993    0.257387
      2          6           0       -1.109631    1.082958   -0.008719
      3         16           0        0.960104   -0.547759    0.817269
      4          6           0        4.055670   -0.920696   -1.129622
      5          6           0        3.012092   -1.616915   -0.694880
      6          1           0        5.067918   -1.280732   -0.999104
      7          1           0        3.933841    0.034087   -1.627060
      8          6           0        1.598285   -1.170192   -0.822877
      9          1           0        3.174090   -2.563597   -0.187705
     10          1           0        0.929811   -1.982609   -1.114738
     11          1           0        1.484083   -0.331996   -1.511221
     12          8           0        1.610227    0.770019    1.045426
     13          1           0       -0.378541    1.873483    0.103501
     14          6           0       -2.419035    1.346108   -0.397525
     15          1           0       -2.722143    2.364143   -0.607641
     16          6           0       -3.337856    0.308381   -0.510621
     17          1           0       -4.357140    0.517836   -0.809271
     18          6           0       -2.952929   -0.998956   -0.226290
     19          1           0       -3.671164   -1.805602   -0.301289
     20          6           0       -1.648128   -1.269592    0.166828
     21          1           0       -1.352077   -2.283472    0.411194
 ---------------------------------------------------------------------
                    Distance matrix (angstroms):
                    1          2          3          4          5
     1  C    0.000000
     2  C    1.388020   0.000000
     3  S    1.811350   2.761394   0.000000
     4  C    5.032929   5.652556   3.675867   0.000000
     5  C    4.106265   4.974810   2.764117   1.327696   0.000000
     6  H    6.027681   6.688049   4.550890   1.082269   2.105230
     7  H    5.038947   5.399608   3.893122   1.083465   2.108172
     8  C    2.736745   3.615570   1.866756   2.488992   1.488219
     9  H    4.574038   5.628469   3.158371   2.088903   1.086129
    10  H    2.780432   3.844516   2.406733   3.301344   2.155437
    11  H    2.837472   3.314658   2.396450   2.665567   2.156905
    12  O    2.664609   2.933731   1.487029   3.683686   3.269762
    13  H    2.134614   1.082597   2.857245   5.384260   4.931195
    14  C    2.397025   1.391027   4.059684   6.898998   6.193954
    15  H    3.378881   2.144840   4.905964   7.549926   6.981252
    16  C    2.768517   2.411817   4.579162   7.520507   6.637963
    17  H    3.851107   3.392132   5.661644   8.540923   7.673059
    18  C    2.400610   2.789167   4.074852   7.067007   6.015224
    19  H    3.382991   3.871799   4.927675   7.821327   6.697494
    20  C    1.391464   2.419770   2.783342   5.859678   4.751928
    21  H    2.154319   3.401170   2.919551   5.785758   4.551227
                    6          7          8          9         10
     6  H    0.000000
     7  H    1.846404   0.000000
     8  C    3.475864   2.748058   0.000000
     9  H    2.427075   3.065441   2.197313   0.000000
    10  H    4.198801   3.654276   1.091816   2.496743   0.000000
    11  H    3.742491   2.479667   1.090611   3.096427   1.785760
    12  O    4.510134   3.617037   2.693533   3.883204   3.564581
    13  H    6.389736   4.997485   3.745661   5.691543   4.250334
    14  C    7.957176   6.602438   4.759364   6.827361   4.775931
    15  H    8.609495   7.125342   5.586049   7.695748   5.699839
    16  C    8.568602   7.362014   5.162283   7.124463   4.881247
    17  H    9.597010   8.345248   6.190049   8.160944   5.856397
    18  C    8.062917   7.103305   4.593342   6.323761   4.102753
    19  H    8.782596   7.935882   5.333188   6.888030   4.675682
    20  C    6.816509   6.006329   3.395378   5.005390   2.965902
    21  H    6.649118   6.120988   3.386290   4.574204   2.761521
                   11         12         13         14         15
    11  H    0.000000
    12  O    2.786897   0.000000
    13  H    3.307693   2.461718   0.000000
    14  C    4.392116   4.318442   2.166280   0.000000
    15  H    5.077200   4.903396   2.497787   1.082783   0.000000
    16  C    4.966123   5.207487   3.403562   1.390647   2.148179
    17  H    5.944311   6.254036   4.301184   2.147515   2.474413
    18  C    4.667222   5.056573   3.871323   2.411159   3.392510
    19  H    5.496546   6.028313   4.953876   3.392693   4.287338
    20  C    3.675008   3.943200   3.390396   2.784722   3.867472
    21  H    3.943062   4.301314   4.280505   3.868627   4.951306
                   16         17         18         19         20
    16  C    0.000000
    17  H    1.082591   0.000000
    18  C    1.392172   2.147634   0.000000
    19  H    2.150311   2.475272   1.082665   0.000000
    20  C    2.409173   3.389161   1.389349   2.144555   0.000000
    21  H    3.392752   4.285705   2.149208   2.472682   1.084119
                   21
    21  H    0.000000
 Symmetry turned off by external request.
 Stoichiometry    C9H10OS
 Framework group  C1[X(C9H10OS)]
 Deg. of freedom    57
 Full point group                 C1      NOp   1
 Rotational constants (GHZ):           2.3336997           0.5236720           0.4879734
 Standard basis: def2TZVP (5D, 7F)
   407 basis functions,   659 primitive gaussians,   462 cartesian basis functions
    44 alpha electrons       44 beta electrons
       nuclear repulsion energy       664.5411605192 Hartrees.
 NAtoms=   21 NActive=   21 NUniq=   21 SFac= 1.00D+00 NAtFMM=   60 NAOKFM=F Big=F
 Integral buffers will be    131072 words long.
 Raffenetti 2 integral format.
 Two-electron integral symmetry is turned off.
 One-electron integrals computed using PRISM.
   1 Symmetry operations used in ECPInt.
 ECPInt:  NShTT=   13366 NPrTT=   41614 LenC2=   12471 LenP2D=   29244.
 LDataN:  DoStor=T MaxTD1= 6 Len=  172
 NBasis=   407 RedAO= T EigKep=  8.65D-06  NBF=   407
 NBsUse=   407 1.00D-06 EigRej= -1.00D+00 NBFU=   407
 ExpMin= 9.52D-02 ExpMax= 6.07D+04 ExpMxC= 2.07D+03 IAcc=3 IRadAn=         5 AccDes= 0.00D+00
 Harris functional with IExCor=  402 and IRadAn=       5 diagonalized for initial guess.
 HarFok:  IExCor=  402 AccDes= 0.00D+00 IRadAn=         5 IDoV= 1 UseB2=F ITyADJ=14
 ICtDFT=  3500011 ScaDFX=  1.000000  1.000000  1.000000  1.000000
 FoFCou: FMM=F IPFlag=           0 FMFlag=      100000 FMFlg1=           0
         NFxFlg=           0 DoJE=T BraDBF=F KetDBF=T FulRan=T
         wScrn=  0.000000 ICntrl=       500 IOpCl=  0 I1Cent=   200000004 NGrid=           0
         NMat0=    1 NMatS0=      1 NMatT0=    0 NMatD0=    1 NMtDS0=    0 NMtDT0=    0
 Symmetry not used in FoFCou.
 Requested convergence on RMS density matrix=1.00D-08 within 128 cycles.
 Requested convergence on MAX density matrix=1.00D-06.
 Requested convergence on             energy=1.00D-06.
 No special actions if energy rises.
 Integral accuracy reduced to 1.0D-05 until final iterations.
 Problem detected with inexpensive integrals.
 Switching to full accuracy and repeating last cycle.
 SCF Done:  E(RB3LYP) =  -822.532464588     A.U. after   17 cycles
            NFock= 17  Conv=0.47D-08     -V/T= 2.0035

 **********************************************************************

            Population analysis using the SCF density.

 **********************************************************************

 Alpha  occ. eigenvalues --  -88.95480 -19.09026 -10.20812 -10.20798 -10.19748
 Alpha  occ. eigenvalues --  -10.19298 -10.19115 -10.19062 -10.18982 -10.18896
 Alpha  occ. eigenvalues --  -10.17660  -8.01870  -5.98086  -5.98052  -5.97519
 Alpha  occ. eigenvalues --   -1.01956  -0.87836  -0.81831  -0.78098  -0.76632
 Alpha  occ. eigenvalues --   -0.72752  -0.65816  -0.62607  -0.59531  -0.57046
 Alpha  occ. eigenvalues --   -0.53459  -0.49183  -0.47732  -0.47307  -0.45538
 Alpha  occ. eigenvalues --   -0.45299  -0.44145  -0.42551  -0.40825  -0.39363
 Alpha  occ. eigenvalues --   -0.37521  -0.37266  -0.36365  -0.35926  -0.29535
 Alpha  occ. eigenvalues --   -0.28027  -0.27448  -0.27277  -0.23423
 Alpha virt. eigenvalues --   -0.04323  -0.02998  -0.01336   0.02373   0.03052
 Alpha virt. eigenvalues --    0.03964   0.05443   0.06638   0.07132   0.08058
 Alpha virt. eigenvalues --    0.08873   0.10254   0.10883   0.11217   0.11937
 Alpha virt. eigenvalues --    0.13187   0.13963   0.14951   0.17237   0.17844
 Alpha virt. eigenvalues --    0.18959   0.19524   0.19801   0.21003   0.22156
 Alpha virt. eigenvalues --    0.22591   0.23113   0.23747   0.23917   0.24274
 Alpha virt. eigenvalues --    0.25803   0.26787   0.26853   0.28357   0.29747
 Alpha virt. eigenvalues --    0.30832   0.31634   0.32806   0.33316   0.34010
 Alpha virt. eigenvalues --    0.34910   0.35456   0.36346   0.36672   0.37370
 Alpha virt. eigenvalues --    0.37823   0.39670   0.40132   0.40510   0.40659
 Alpha virt. eigenvalues --    0.41926   0.42267   0.43311   0.44016   0.44472
 Alpha virt. eigenvalues --    0.44999   0.45694   0.46748   0.48069   0.48488
 Alpha virt. eigenvalues --    0.48608   0.48907   0.50566   0.52749   0.53553
 Alpha virt. eigenvalues --    0.54181   0.56220   0.57325   0.59648   0.61415
 Alpha virt. eigenvalues --    0.61707   0.62953   0.64107   0.64835   0.66003
 Alpha virt. eigenvalues --    0.66441   0.67011   0.68054   0.69178   0.70339
 Alpha virt. eigenvalues --    0.72261   0.72869   0.74199   0.75526   0.76361
 Alpha virt. eigenvalues --    0.77593   0.79929   0.81367   0.81874   0.82803
 Alpha virt. eigenvalues --    0.83380   0.87357   0.87534   0.88070   0.88812
 Alpha virt. eigenvalues --    0.90232   0.91410   0.95875   0.97519   0.99082
 Alpha virt. eigenvalues --    0.99650   1.01689   1.02635   1.03272   1.05929
 Alpha virt. eigenvalues --    1.07650   1.08199   1.08488   1.12066   1.15011
 Alpha virt. eigenvalues --    1.16376   1.18758   1.19169   1.19732   1.20337
 Alpha virt. eigenvalues --    1.21206   1.22335   1.24201   1.24658   1.25761
 Alpha virt. eigenvalues --    1.26798   1.28497   1.30824   1.32171   1.35967
 Alpha virt. eigenvalues --    1.37735   1.39697   1.39983   1.41204   1.43582
 Alpha virt. eigenvalues --    1.44379   1.47144   1.47999   1.48726   1.50052
 Alpha virt. eigenvalues --    1.51335   1.52156   1.52919   1.54518   1.55297
 Alpha virt. eigenvalues --    1.56531   1.57674   1.58313   1.59496   1.59907
 Alpha virt. eigenvalues --    1.61647   1.63824   1.64091   1.64885   1.65901
 Alpha virt. eigenvalues --    1.67135   1.67403   1.68734   1.69572   1.70345
 Alpha virt. eigenvalues --    1.71934   1.75547   1.76239   1.77132   1.77899
 Alpha virt. eigenvalues --    1.79098   1.80778   1.81913   1.82945   1.83809
 Alpha virt. eigenvalues --    1.86872   1.87855   1.90801   1.91872   1.93897
 Alpha virt. eigenvalues --    1.94177   1.97625   2.02735   2.04392   2.05365
 Alpha virt. eigenvalues --    2.07184   2.07879   2.08291   2.10560   2.12301
 Alpha virt. eigenvalues --    2.14289   2.17043   2.17166   2.17926   2.21812
 Alpha virt. eigenvalues --    2.22558   2.23392   2.24871   2.26456   2.31140
 Alpha virt. eigenvalues --    2.31774   2.34258   2.35159   2.36368   2.37620
 Alpha virt. eigenvalues --    2.40526   2.43266   2.44861   2.47561   2.49398
 Alpha virt. eigenvalues --    2.50452   2.52471   2.53184   2.54430   2.56922
 Alpha virt. eigenvalues --    2.58872   2.59089   2.60445   2.62422   2.63347
 Alpha virt. eigenvalues --    2.64082   2.65172   2.65900   2.66531   2.66888
 Alpha virt. eigenvalues --    2.68381   2.68559   2.69859   2.70780   2.73963
 Alpha virt. eigenvalues --    2.74209   2.75207   2.76803   2.78086   2.79724
 Alpha virt. eigenvalues --    2.81594   2.82234   2.83548   2.84723   2.86698
 Alpha virt. eigenvalues --    2.87283   2.88504   2.89199   2.90433   2.90985
 Alpha virt. eigenvalues --    2.92292   2.97328   2.98193   2.99851   3.00863
 Alpha virt. eigenvalues --    3.02009   3.05023   3.07588   3.08286   3.09063
 Alpha virt. eigenvalues --    3.10029   3.10258   3.11945   3.12467   3.13597
 Alpha virt. eigenvalues --    3.14042   3.14498   3.15524   3.17865   3.19733
 Alpha virt. eigenvalues --    3.20681   3.21611   3.22859   3.23749   3.24037
 Alpha virt. eigenvalues --    3.25275   3.27749   3.28893   3.29231   3.33237
 Alpha virt. eigenvalues --    3.34611   3.35442   3.35843   3.36801   3.38196
 Alpha virt. eigenvalues --    3.39867   3.40989   3.42429   3.43191   3.45006
 Alpha virt. eigenvalues --    3.45457   3.47288   3.50362   3.51001   3.53329
 Alpha virt. eigenvalues --    3.54603   3.55002   3.56310   3.57410   3.64706
 Alpha virt. eigenvalues --    3.65777   3.68452   3.70367   3.73216   3.75188
 Alpha virt. eigenvalues --    3.76103   3.79276   3.81420   3.86349   3.89211
 Alpha virt. eigenvalues --    3.92864   3.95003   3.98553   4.01372   4.04140
 Alpha virt. eigenvalues --    4.05306   4.08291   4.10828   4.11077   4.14500
 Alpha virt. eigenvalues --    4.18840   4.19207   4.19339   4.21293   4.21742
 Alpha virt. eigenvalues --    4.23847   4.26403   4.27380   4.31372   4.33872
 Alpha virt. eigenvalues --    4.35623   4.43025   4.48367   4.55462   4.61448
 Alpha virt. eigenvalues --    4.62435   4.63450   4.64680   4.66683   4.68019
 Alpha virt. eigenvalues --    4.71000   4.83517   4.86392   4.89277   4.91434
 Alpha virt. eigenvalues --    5.06398   5.14197   5.15627   5.17906   5.19329
 Alpha virt. eigenvalues --    5.25117   5.27064   5.27358   5.34705   5.37384
 Alpha virt. eigenvalues --    5.44184   5.47579   5.54246   5.57995   6.33174
 Alpha virt. eigenvalues --    6.40167   6.70470   6.74412   6.90045   9.14162
 Alpha virt. eigenvalues --    9.41279   9.52948  20.68192  21.90983  22.07210
 Alpha virt. eigenvalues --   22.31683  22.54969  22.57273  22.66482  22.68474
 Alpha virt. eigenvalues --   22.73190  23.08279  43.58845
          Condensed to atoms (all electrons):
               1          2          3          4          5          6
     1  C    6.168681  -0.031011   0.294148   0.000050   0.006115   0.000022
     2  C   -0.031011   5.288291  -0.059136   0.000354  -0.000978  -0.000003
     3  S    0.294148  -0.059136  14.739183  -0.002257  -0.028567  -0.000254
     4  C    0.000050   0.000354  -0.002257   4.880717   0.588603   0.411690
     5  C    0.006115  -0.000978  -0.028567   0.588603   4.999337  -0.040495
     6  H    0.000022  -0.000003  -0.000254   0.411690  -0.040495   0.547491
     7  H   -0.000135   0.000038  -0.000565   0.409855  -0.041644  -0.032756
     8  C   -0.030454  -0.007336   0.247059  -0.042734   0.291165   0.007933
     9  H   -0.000373   0.000012   0.001481  -0.030536   0.401906  -0.009979
    10  H   -0.016690   0.004506  -0.017036   0.004427  -0.026190  -0.000412
    11  H   -0.009755   0.004171  -0.032543   0.004847  -0.042177  -0.000105
    12  O   -0.091961   0.020712   0.391114   0.011507  -0.005649   0.000001
    13  H   -0.103301   0.444862  -0.033003   0.000179  -0.000593  -0.000002
    14  C    0.157109   0.340995   0.013493  -0.000012   0.000031   0.000000
    15  H    0.009577  -0.050772  -0.000277  -0.000000  -0.000000  -0.000000
    16  C   -0.234377   0.088397  -0.002672   0.000007  -0.000002  -0.000000
    17  H   -0.003302   0.008774   0.000032   0.000000  -0.000000   0.000000
    18  C    0.287247  -0.178367   0.002861  -0.000021  -0.000059   0.000000
    19  H    0.015940  -0.004600  -0.000246  -0.000000  -0.000003  -0.000000
    20  C   -0.337583   0.265998  -0.013406   0.000296   0.000099  -0.000003
    21  H   -0.150609   0.032952   0.015876   0.000101   0.000059  -0.000001
               7          8          9         10         11         12
     1  C   -0.000135  -0.030454  -0.000373  -0.016690  -0.009755  -0.091961
     2  C    0.000038  -0.007336   0.000012   0.004506   0.004171   0.020712
     3  S   -0.000565   0.247059   0.001481  -0.017036  -0.032543   0.391114
     4  C    0.409855  -0.042734  -0.030536   0.004427   0.004847   0.011507
     5  C   -0.041644   0.291165   0.401906  -0.026190  -0.042177  -0.005649
     6  H   -0.032756   0.007933  -0.009979  -0.000412  -0.000105   0.000001
     7  H    0.547203  -0.008641   0.006902   0.000581   0.005018   0.000270
     8  C   -0.008641   5.143796  -0.048628   0.338739   0.409694  -0.047725
     9  H    0.006902  -0.048628   0.564728  -0.004387   0.005209  -0.000506
    10  H    0.000581   0.338739  -0.004387   0.597901  -0.018074   0.006754
    11  H    0.005018   0.409694   0.005209  -0.018074   0.528352   0.002740
    12  O    0.000270  -0.047725  -0.000506   0.006754   0.002740   8.204242
    13  H    0.000046   0.001092   0.000008   0.000412   0.002550   0.042407
    14  C   -0.000002   0.000436  -0.000005  -0.000114  -0.001382  -0.001005
    15  H    0.000000   0.000007   0.000000   0.000006  -0.000000  -0.000036
    16  C    0.000001  -0.000899   0.000002   0.000250   0.000582   0.000823
    17  H    0.000000  -0.000002  -0.000000   0.000000   0.000000   0.000001
    18  C   -0.000003   0.004400  -0.000013  -0.001228  -0.001381  -0.001700
    19  H   -0.000000   0.000118   0.000000  -0.000063  -0.000008   0.000003
    20  C    0.000051  -0.023920   0.000258   0.005508   0.010617   0.012556
    21  H    0.000005  -0.007485   0.000109   0.004011   0.000954   0.000232
              13         14         15         16         17         18
     1  C   -0.103301   0.157109   0.009577  -0.234377  -0.003302   0.287247
     2  C    0.444862   0.340995  -0.050772   0.088397   0.008774  -0.178367
     3  S   -0.033003   0.013493  -0.000277  -0.002672   0.000032   0.002861
     4  C    0.000179  -0.000012  -0.000000   0.000007   0.000000  -0.000021
     5  C   -0.000593   0.000031  -0.000000  -0.000002  -0.000000  -0.000059
     6  H   -0.000002   0.000000  -0.000000  -0.000000   0.000000   0.000000
     7  H    0.000046  -0.000002   0.000000   0.000001   0.000000  -0.000003
     8  C    0.001092   0.000436   0.000007  -0.000899  -0.000002   0.004400
     9  H    0.000008  -0.000005   0.000000   0.000002  -0.000000  -0.000013
    10  H    0.000412  -0.000114   0.000006   0.000250   0.000000  -0.001228
    11  H    0.002550  -0.001382  -0.000000   0.000582   0.000000  -0.001381
    12  O    0.042407  -0.001005  -0.000036   0.000823   0.000001  -0.001700
    13  H    0.524433  -0.073163  -0.005102   0.019744  -0.000048  -0.013291
    14  C   -0.073163   5.007223   0.427111   0.385411  -0.047604   0.065161
    15  H   -0.005102   0.427111   0.548939  -0.048355  -0.006623   0.008804
    16  C    0.019744   0.385411  -0.048355   4.998265   0.424929   0.361636
    17  H   -0.000048  -0.047604  -0.006623   0.424929   0.552090  -0.048542
    18  C   -0.013291   0.065161   0.008804   0.361636  -0.048542   5.082198
    19  H   -0.000015   0.011278  -0.000221  -0.050721  -0.006476   0.430698
    20  C    0.045906  -0.186804  -0.001479   0.142152   0.010603   0.183935
    21  H    0.001077  -0.008317   0.000071   0.018436  -0.000165  -0.076990
              19         20         21
     1  C    0.015940  -0.337583  -0.150609
     2  C   -0.004600   0.265998   0.032952
     3  S   -0.000246  -0.013406   0.015876
     4  C   -0.000000   0.000296   0.000101
     5  C   -0.000003   0.000099   0.000059
     6  H   -0.000000  -0.000003  -0.000001
     7  H   -0.000000   0.000051   0.000005
     8  C    0.000118  -0.023920  -0.007485
     9  H    0.000000   0.000258   0.000109
    10  H   -0.000063   0.005508   0.004011
    11  H   -0.000008   0.010617   0.000954
    12  O    0.000003   0.012556   0.000232
    13  H   -0.000015   0.045906   0.001077
    14  C    0.011278  -0.186804  -0.008317
    15  H   -0.000221  -0.001479   0.000071
    16  C   -0.050721   0.142152   0.018436
    17  H   -0.006476   0.010603  -0.000165
    18  C    0.430698   0.183935  -0.076990
    19  H    0.553964  -0.057751  -0.008017
    20  C   -0.057751   5.636529   0.487081
    21  H   -0.008017   0.487081   0.582117
 Mulliken charges:
               1
     1  C    0.070661
     2  C   -0.167857
     3  S    0.484715
     4  C   -0.237074
     5  C   -0.100959
     6  H    0.116873
     7  H    0.113776
     8  C   -0.226617
     9  H    0.113812
    10  H    0.121098
    11  H    0.130691
    12  O   -0.544782
    13  H    0.145802
    14  C   -0.089842
    15  H    0.118351
    16  C   -0.103612
    17  H    0.116332
    18  C   -0.105345
    19  H    0.116120
    20  C   -0.180643
    21  H    0.108501
 Sum of Mulliken charges =  -0.00000
 Mulliken charges with hydrogens summed into heavy atoms:
               1
     1  C    0.070661
     2  C   -0.022055
     3  S    0.484715
     4  C   -0.006425
     5  C    0.012853
     8  C    0.025172
    12  O   -0.544782
    14  C    0.028509
    16  C    0.012720
    18  C    0.010775
    20  C   -0.072142
 Electronic spatial extent (au):  <R**2>=           2407.8652
 Charge=             -0.0000 electrons
 Dipole moment (field-independent basis, Debye):
    X=             -2.0923    Y=             -2.1313    Z=             -2.1068  Tot=              3.6550
 Quadrupole moment (field-independent basis, Debye-Ang):
   XX=            -66.5419   YY=            -67.4615   ZZ=            -77.3149
   XY=             -4.0310   XZ=             -2.4583   YZ=             -3.2354
 Traceless Quadrupole moment (field-independent basis, Debye-Ang):
   XX=              3.8976   YY=              2.9779   ZZ=             -6.8755
   XY=             -4.0310   XZ=             -2.4583   YZ=             -3.2354
 Octapole moment (field-independent basis, Debye-Ang**2):
  XXX=            -23.1153  YYY=             69.7043  ZZZ=             21.6845  XYY=            -12.9746
  XXY=             14.2666  XXZ=            -10.8622  XZZ=             -5.3473  YZZ=             27.3238
  YYZ=              5.2922  XYZ=             -4.7534
 Hexadecapole moment (field-independent basis, Debye-Ang**3):
 XXXX=          -2234.6787 YYYY=           -543.1366 ZZZZ=           -318.6223 XXXY=            169.4956
 XXXZ=             52.8041 YYYX=            192.9494 YYYZ=            -49.4259 ZZZX=             46.6238
 ZZZY=            -48.2966 XXYY=           -477.4970 XXZZ=           -496.2764 YYZZ=           -161.6551
 XXYZ=            -38.8151 YYXZ=             24.5330 ZZXY=             77.4155
 N-N= 6.645411605192D+02 E-N=-3.262322813483D+03  KE= 8.196792917572D+02
 1\1\GINC-BHC0029\SP\RB3LYP\def2TZVP\C9H10O1S1\DHANAWAY\10-Jun-2022\0\\
 # sp B3LYP/Def2TZVP NoSymm\\int_initalOptXYZ_aligned_AlignedSp\\0,1\C,
 0,-0.732228,-0.225993,0.257387\C,0,-1.109631,1.082958,-0.008719\S,0,0.
 960104,-0.547759,0.817269\C,0,4.05567,-0.920696,-1.129622\C,0,3.012092
 ,-1.616915,-0.69488\H,0,5.067918,-1.280732,-0.999104\H,0,3.933841,0.03
 4087,-1.62706\C,0,1.598285,-1.170192,-0.822877\H,0,3.17409,-2.563597,-
 0.187705\H,0,0.929811,-1.982609,-1.114738\H,0,1.484083,-0.331996,-1.51
 1221\O,0,1.610227,0.770019,1.045426\H,0,-0.378541,1.873483,0.103501\C,
 0,-2.419035,1.346108,-0.397525\H,0,-2.722143,2.364143,-0.607641\C,0,-3
 .337856,0.308381,-0.510621\H,0,-4.35714,0.517836,-0.809271\C,0,-2.9529
 29,-0.998956,-0.22629\H,0,-3.671164,-1.805602,-0.301289\C,0,-1.648128,
 -1.269592,0.166828\H,0,-1.352077,-2.283472,0.411194\\Version=ES64L-G16
 RevA.03\HF=-822.5324646\RMSD=4.661e-09\Dipole=-0.8231796,-0.8385264,-0
 .8288686\Quadrupole=2.897733,2.2140109,-5.1117438,-2.9969508,-1.827661
 6,-2.4054411\PG=C01 [X(C9H10O1S1)]\\@


 ORIGINALITY CONSISTS NOT IN SAYING WHAT NO ONE HAS EVER SAID BEFORE, 
 BUT IN SAYING WHAT YOU THINK YOUR SELF.

                                    -- JAMES F. STEPHEN
 Job cpu time:       0 days  0 hours 23 minutes 34.2 seconds.
 Elapsed time:       0 days  0 hours  1 minutes 58.1 seconds.
 File lengths (MBytes):  RWF=     93 Int=      0 D2E=      0 Chk=     32 Scr=      1
 Normal termination of Gaussian 16 at Fri Jun 10 11:13:02 2022.
