 Entering Gaussian System, Link 0=g16
 Input=int_initalOpt_zmat_sp.gjf
 Output=int_initalOpt_zmat_sp.out
 Initial command:
 /software/gaussian/g16-a03/l1.exe "/local_scratch/11171277/Gau-12971.inp" -scrdir="/local_scratch/11171277/"
 Entering Link 1 = /software/gaussian/g16-a03/l1.exe PID=     12972.
  
 Copyright (c) 1988,1990,1992,1993,1995,1998,2003,2009,2016,
            Gaussian, Inc.  All Rights Reserved.
  
 This is part of the Gaussian(R) 16 program.  It is based on
 the Gaussian(R) 09 system (copyright 2009, Gaussian, Inc.),
 the Gaussian(R) 03 system (copyright 2003, Gaussian, Inc.),
 the Gaussian(R) 98 system (copyright 1998, Gaussian, Inc.),
 the Gaussian(R) 94 system (copyright 1995, Gaussian, Inc.),
 the Gaussian 92(TM) system (copyright 1992, Gaussian, Inc.),
 the Gaussian 90(TM) system (copyright 1990, Gaussian, Inc.),
 the Gaussian 88(TM) system (copyright 1988, Gaussian, Inc.),
 the Gaussian 86(TM) system (copyright 1986, Carnegie Mellon
 University), and the Gaussian 82(TM) system (copyright 1983,
 Carnegie Mellon University). Gaussian is a federally registered
 trademark of Gaussian, Inc.
  
 This software contains proprietary and confidential information,
 including trade secrets, belonging to Gaussian, Inc.
  
 This software is provided under written license and may be
 used, copied, transmitted, or stored only in accord with that
 written license.
  
 The following legend is applicable only to US Government
 contracts under FAR:
  
                    RESTRICTED RIGHTS LEGEND
  
 Use, reproduction and disclosure by the US Government is
 subject to restrictions as set forth in subparagraphs (a)
 and (c) of the Commercial Computer Software - Restricted
 Rights clause in FAR 52.227-19.
  
 Gaussian, Inc.
 340 Quinnipiac St., Bldg. 40, Wallingford CT 06492
  
  
 ---------------------------------------------------------------
 Warning -- This program may not be used in any manner that
 competes with the business of Gaussian, Inc. or will provide
 assistance to any competitor of Gaussian, Inc.  The licensee
 of this program is prohibited from giving any competitor of
 Gaussian, Inc. access to this program.  By using this program,
 the user acknowledges that Gaussian, Inc. is engaged in the
 business of creating and licensing software in the field of
 computational chemistry and represents and warrants to the
 licensee that it is not a competitor of Gaussian, Inc. and that
 it will not use this program in any manner prohibited above.
 ---------------------------------------------------------------
  

 Cite this work as:
 Gaussian 16, Revision A.03,
 M. J. Frisch, G. W. Trucks, H. B. Schlegel, G. E. Scuseria, 
 M. A. Robb, J. R. Cheeseman, G. Scalmani, V. Barone, 
 G. A. Petersson, H. Nakatsuji, X. Li, M. Caricato, A. V. Marenich, 
 J. Bloino, B. G. Janesko, R. Gomperts, B. Mennucci, H. P. Hratchian, 
 J. V. Ortiz, A. F. Izmaylov, J. L. Sonnenberg, D. Williams-Young, 
 F. Ding, F. Lipparini, F. Egidi, J. Goings, B. Peng, A. Petrone, 
 T. Henderson, D. Ranasinghe, V. G. Zakrzewski, J. Gao, N. Rega, 
 G. Zheng, W. Liang, M. Hada, M. Ehara, K. Toyota, R. Fukuda, 
 J. Hasegawa, M. Ishida, T. Nakajima, Y. Honda, O. Kitao, H. Nakai, 
 T. Vreven, K. Throssell, J. A. Montgomery, Jr., J. E. Peralta, 
 F. Ogliaro, M. J. Bearpark, J. J. Heyd, E. N. Brothers, K. N. Kudin, 
 V. N. Staroverov, T. A. Keith, R. Kobayashi, J. Normand, 
 K. Raghavachari, A. P. Rendell, J. C. Burant, S. S. Iyengar, 
 J. Tomasi, M. Cossi, J. M. Millam, M. Klene, C. Adamo, R. Cammi, 
 J. W. Ochterski, R. L. Martin, K. Morokuma, O. Farkas, 
 J. B. Foresman, and D. J. Fox, Gaussian, Inc., Wallingford CT, 2016.
 
 ******************************************
 Gaussian 16:  ES64L-G16RevA.03 25-Dec-2016
                10-Jun-2022 
 ******************************************
 %nprocshared=12
 Will use up to   12 processors via shared memory.
 %chk=checkpoint.chk
 %mem=12GB
 --------------------------
 # sp B3LYP/Def2TZVP NoSymm
 --------------------------
 1/38=1,172=1/1;
 2/12=2,15=1,17=6,18=5,40=1/2;
 3/5=44,7=101,11=2,25=1,30=1,74=-5/1,2,3;
 4//1;
 5/5=2,38=5/2;
 6/7=2,8=2,9=2,10=2,28=1/1;
 99/5=1,9=1/99;
 ----------------------------
 int_initalOpt_zmat_AlignedSp
 ----------------------------
 Symbolic Z-matrix:
 Charge =  0 Multiplicity = 1
 H
 C                    1    R2
 C                    2    R3       1    A3
 C                    2    R4       1    A4       3    D4       0
 H                    3    R5       2    A5       1    D5       0
 C                    3    R6       2    A6       5    D6       0
 O                    4    R7       2    A7       1    D7       0
 H                    4    R8       2    A8       7    D8       0
 H                    4    R9       2    A9       7    D9       0
 H                    6    R10      3    A10      2    D10      0
 C                    6    R11      3    A11      10   D11      0
 H                    11   R12      6    A12      3    D12      0
       Variables:
  R2                    1.08216                  
  R3                    1.3366                   
  R4                    1.50115                  
  R5                    1.08305                  
  R6                    1.45366                  
  R7                    1.44442                  
  R8                    1.08877                  
  R9                    1.10151                  
  R10                   1.07979                  
  R11                   1.3416                   
  R12                   1.08238                  
  A3                  122.73966                  
  A4                  119.21509                  
  A5                  121.32135                  
  A6                  119.24238                  
  A7                  111.85482                  
  A8                  112.50063                  
  A9                  111.10271                  
  A10                 121.67044                  
  A11                 118.04731                  
  A12                 124.43545                  
  D4                 -178.60003                  
  D5                   -0.30819                  
  D6                  175.86869                  
  D7                 -147.10272                  
  D8                  118.33048                  
  D9                 -120.23684                  
  D10                 172.24226                  
  D11                 172.50161                  
  D12                -169.05383                  
 
                          Input orientation:                          
 ---------------------------------------------------------------------
 Center     Atomic      Atomic             Coordinates (Angstroms)
 Number     Number       Type             X           Y           Z
 ---------------------------------------------------------------------
      1          1           0        0.000000    0.000000    0.000000
      2          6           0        0.000000    0.000000    1.082165
      3          6           0        1.124260    0.000000    1.805026
      4          6           0       -1.309801   -0.032010    1.814859
      5          1           0        2.098198   -0.004977    1.331295
      6          6           0        1.037643    0.098183    3.252778
      7          8           0       -1.247498    0.697860    3.059748
      8          1           0       -2.115407    0.432611    1.248685
      9          1           0       -1.607483   -1.066123    2.050062
     10          1           0        1.906833   -0.021636    3.882146
     11          6           0       -0.126184    0.494612    3.789659
     12          1           0       -0.259904    0.765927    4.828915
 ---------------------------------------------------------------------
                    Distance matrix (angstroms):
                    1          2          3          4          5
     1  H    0.000000
     2  C    1.082165   0.000000
     3  C    2.126518   1.336596   0.000000
     4  C    2.238374   1.501148   2.434291   0.000000
     5  H    2.484916   2.112943   1.083052   3.442241   0.000000
     6  C    3.415686   2.407885   1.453661   2.755913   2.197161
     7  O    3.377177   2.440102   2.772467   1.444417   3.830824
     8  H    2.494255   2.165601   3.315435   1.088773   4.237071
     9  H    2.814849   2.158111   2.942631   1.101510   3.921062
    10  H    4.325222   3.387681   2.219756   3.823679   2.558073
    11  C    3.823883   2.755193   2.397294   2.361803   3.352762
    12  H    4.896183   3.833058   3.412691   3.289912   4.288156
                    6          7          8          9         10
     6  C    0.000000
     7  O    2.370390   0.000000
     8  H    3.750994   2.025728   0.000000
     9  H    3.130308   2.064144   1.773808   0.000000
    10  H    1.079792   3.338236   4.829066   4.098525   0.000000
    11  C    1.341600   1.353302   3.227600   2.767009   2.099577
    12  H    2.147957   2.027295   4.046237   3.590877   2.492263
                   11         12
    11  C    0.000000
    12  H    1.082380   0.000000
 Symmetry turned off by external request.
 Stoichiometry    C5H6O
 Framework group  C1[X(C5H6O)]
 Deg. of freedom    30
 Full point group                 C1      NOp   1
 Rotational constants (GHZ):           5.5881709           5.3767945           2.8631586
 Standard basis: def2TZVP (5D, 7F)
   222 basis functions,   354 primitive gaussians,   252 cartesian basis functions
    22 alpha electrons       22 beta electrons
       nuclear repulsion energy       223.6886954350 Hartrees.
 NAtoms=   12 NActive=   12 NUniq=   12 SFac= 1.00D+00 NAtFMM=   60 NAOKFM=F Big=F
 Integral buffers will be    131072 words long.
 Raffenetti 2 integral format.
 Two-electron integral symmetry is turned off.
 One-electron integrals computed using PRISM.
   1 Symmetry operations used in ECPInt.
 ECPInt:  NShTT=    4095 NPrTT=   12396 LenC2=    4075 LenP2D=   10423.
 LDataN:  DoStor=T MaxTD1= 6 Len=  172
 NBasis=   222 RedAO= T EigKep=  9.59D-05  NBF=   222
 NBsUse=   222 1.00D-06 EigRej= -1.00D+00 NBFU=   222
 ExpMin= 9.52D-02 ExpMax= 2.70D+04 ExpMxC= 9.22D+02 IAcc=3 IRadAn=         5 AccDes= 0.00D+00
 Harris functional with IExCor=  402 and IRadAn=       5 diagonalized for initial guess.
 HarFok:  IExCor=  402 AccDes= 0.00D+00 IRadAn=         5 IDoV= 1 UseB2=F ITyADJ=14
 ICtDFT=  3500011 ScaDFX=  1.000000  1.000000  1.000000  1.000000
 FoFCou: FMM=F IPFlag=           0 FMFlag=      100000 FMFlg1=           0
         NFxFlg=           0 DoJE=T BraDBF=F KetDBF=T FulRan=T
         wScrn=  0.000000 ICntrl=       500 IOpCl=  0 I1Cent=   200000004 NGrid=           0
         NMat0=    1 NMatS0=      1 NMatT0=    0 NMatD0=    1 NMtDS0=    0 NMtDT0=    0
 Symmetry not used in FoFCou.
 Keep R1 ints in memory in canonical form, NReq=319363885.
 Requested convergence on RMS density matrix=1.00D-08 within 128 cycles.
 Requested convergence on MAX density matrix=1.00D-06.
 Requested convergence on             energy=1.00D-06.
 No special actions if energy rises.
 Integral accuracy reduced to 1.0D-05 until final iterations.
 Initial convergence to 1.0D-05 achieved.  Increase integral accuracy.
 SCF Done:  E(RB3LYP) =  -269.422510679     A.U. after   13 cycles
            NFock= 13  Conv=0.97D-08     -V/T= 2.0050

 **********************************************************************

            Population analysis using the SCF density.

 **********************************************************************

 Alpha  occ. eigenvalues --  -19.16116 -10.23274 -10.23078 -10.17926 -10.17312
 Alpha  occ. eigenvalues --  -10.16645  -1.07060  -0.81408  -0.77439  -0.66565
 Alpha  occ. eigenvalues --   -0.62635  -0.53389  -0.51176  -0.48548  -0.46309
 Alpha  occ. eigenvalues --   -0.43838  -0.40954  -0.37855  -0.36089  -0.33068
 Alpha  occ. eigenvalues --   -0.30118  -0.21129
 Alpha virt. eigenvalues --   -0.03376   0.04616   0.05587   0.07510   0.07893
 Alpha virt. eigenvalues --    0.09293   0.10034   0.10888   0.12582   0.16187
 Alpha virt. eigenvalues --    0.17805   0.19367   0.21561   0.22452   0.22634
 Alpha virt. eigenvalues --    0.24210   0.24995   0.27132   0.28593   0.30459
 Alpha virt. eigenvalues --    0.31096   0.33167   0.34717   0.36066   0.36844
 Alpha virt. eigenvalues --    0.37881   0.38654   0.41274   0.42109   0.42704
 Alpha virt. eigenvalues --    0.43475   0.44817   0.46271   0.49477   0.51103
 Alpha virt. eigenvalues --    0.53002   0.55484   0.57852   0.60143   0.62888
 Alpha virt. eigenvalues --    0.65478   0.66335   0.68609   0.72746   0.74001
 Alpha virt. eigenvalues --    0.78453   0.81336   0.84467   0.86169   0.89470
 Alpha virt. eigenvalues --    0.90780   0.92646   0.95667   0.97657   0.99584
 Alpha virt. eigenvalues --    1.05265   1.07298   1.09018   1.11004   1.11572
 Alpha virt. eigenvalues --    1.15258   1.18128   1.19969   1.23532   1.26425
 Alpha virt. eigenvalues --    1.29867   1.33687   1.36335   1.40362   1.43247
 Alpha virt. eigenvalues --    1.44494   1.45194   1.48299   1.51246   1.52267
 Alpha virt. eigenvalues --    1.56270   1.59933   1.62944   1.65206   1.67301
 Alpha virt. eigenvalues --    1.70312   1.72029   1.74465   1.77984   1.80358
 Alpha virt. eigenvalues --    1.85487   1.87329   1.90516   1.91627   1.96587
 Alpha virt. eigenvalues --    1.99987   2.00839   2.06054   2.10808   2.12982
 Alpha virt. eigenvalues --    2.14362   2.17373   2.20505   2.23013   2.27092
 Alpha virt. eigenvalues --    2.27513   2.37247   2.38710   2.45407   2.46014
 Alpha virt. eigenvalues --    2.50758   2.52137   2.53409   2.57191   2.60264
 Alpha virt. eigenvalues --    2.62118   2.62638   2.65608   2.67775   2.70532
 Alpha virt. eigenvalues --    2.71079   2.73713   2.76824   2.78821   2.80561
 Alpha virt. eigenvalues --    2.83199   2.83943   2.87613   2.88985   2.91545
 Alpha virt. eigenvalues --    2.93754   2.97411   3.02283   3.02809   3.07252
 Alpha virt. eigenvalues --    3.08001   3.11025   3.13479   3.15967   3.16227
 Alpha virt. eigenvalues --    3.18974   3.19868   3.22515   3.24312   3.25349
 Alpha virt. eigenvalues --    3.29222   3.30310   3.33059   3.36531   3.37725
 Alpha virt. eigenvalues --    3.39758   3.42357   3.44842   3.45672   3.49164
 Alpha virt. eigenvalues --    3.54712   3.58840   3.63223   3.67919   3.69424
 Alpha virt. eigenvalues --    3.78314   3.84384   3.86171   3.91153   3.93861
 Alpha virt. eigenvalues --    3.97881   4.03135   4.04072   4.12782   4.17259
 Alpha virt. eigenvalues --    4.19708   4.24915   4.29012   4.36661   4.39752
 Alpha virt. eigenvalues --    4.44999   4.52606   4.57489   4.63941   4.66743
 Alpha virt. eigenvalues --    4.68073   4.79010   4.84201   4.91273   4.95042
 Alpha virt. eigenvalues --    5.12319   5.18032   5.37267   5.45576   5.75615
 Alpha virt. eigenvalues --    5.85383   5.90455   6.23403   6.32207   6.65979
 Alpha virt. eigenvalues --    6.76533   6.86668   7.15211   7.24861  22.06634
 Alpha virt. eigenvalues --   22.31967  22.42788  22.74337  22.92176  44.05308
          Condensed to atoms (all electrons):
               1          2          3          4          5          6
     1  H    0.561523   0.402054  -0.041384  -0.038137  -0.008847   0.005330
     2  C    0.402054   5.041168   0.659535   0.350157  -0.039869  -0.068531
     3  C   -0.041384   0.659535   4.844234  -0.043239   0.418576   0.369368
     4  C   -0.038137   0.350157  -0.043239   4.670774   0.008291  -0.032595
     5  H   -0.008847  -0.039869   0.418576   0.008291   0.562424  -0.049763
     6  C    0.005330  -0.068531   0.369368  -0.032595  -0.049763   5.090995
     7  O    0.004156  -0.021909  -0.021913   0.274842  -0.001082  -0.072229
     8  H   -0.005770  -0.037402   0.004407   0.409618  -0.000315   0.004569
     9  H    0.007043  -0.079061  -0.009262   0.401592  -0.000189  -0.005097
    10  H   -0.000209   0.005806  -0.047690  -0.000545  -0.004813   0.407510
    11  C    0.001768  -0.033703  -0.049407  -0.041604   0.003912   0.588274
    12  H    0.000168  -0.000360   0.005392   0.004843  -0.000359  -0.069853
               7          8          9         10         11         12
     1  H    0.004156  -0.005770   0.007043  -0.000209   0.001768   0.000168
     2  C   -0.021909  -0.037402  -0.079061   0.005806  -0.033703  -0.000360
     3  C   -0.021913   0.004407  -0.009262  -0.047690  -0.049407   0.005392
     4  C    0.274842   0.409618   0.401592  -0.000545  -0.041604   0.004843
     5  H   -0.001082  -0.000315  -0.000189  -0.004813   0.003912  -0.000359
     6  C   -0.072229   0.004569  -0.005097   0.407510   0.588274  -0.069853
     7  O    7.903660  -0.030840  -0.065973   0.005248   0.335146  -0.039012
     8  H   -0.030840   0.603383  -0.054809   0.000142  -0.000749  -0.000576
     9  H   -0.065973  -0.054809   0.696675  -0.000344   0.031098   0.002017
    10  H    0.005248   0.000142  -0.000344   0.554041  -0.027616  -0.003913
    11  C    0.335146  -0.000749   0.031098  -0.027616   4.736585   0.430208
    12  H   -0.039012  -0.000576   0.002017  -0.003913   0.430208   0.550334
 Mulliken charges:
               1
     1  H    0.112305
     2  C   -0.177885
     3  C   -0.088615
     4  C    0.036004
     5  H    0.112034
     6  C   -0.167981
     7  O   -0.270096
     8  H    0.108342
     9  H    0.076308
    10  H    0.112381
    11  C    0.026088
    12  H    0.121112
 Sum of Mulliken charges =  -0.00000
 Mulliken charges with hydrogens summed into heavy atoms:
               1
     2  C   -0.065580
     3  C    0.023419
     4  C    0.220655
     6  C   -0.055599
     7  O   -0.270096
    11  C    0.147200
 Electronic spatial extent (au):  <R**2>=           1423.3565
 Charge=             -0.0000 electrons
 Dipole moment (field-independent basis, Debye):
    X=              0.3177    Y=             -0.4626    Z=             -0.4499  Tot=              0.7192
 Quadrupole moment (field-independent basis, Debye-Ang):
   XX=            -34.3310   YY=            -38.8588   ZZ=            -34.3224
   XY=              0.8313   XZ=              2.7647   YZ=             -0.6937
 Traceless Quadrupole moment (field-independent basis, Debye-Ang):
   XX=              1.5064   YY=             -3.0214   ZZ=              1.5150
   XY=              0.8313   XZ=              2.7647   YZ=             -0.6937
 Octapole moment (field-independent basis, Debye-Ang**2):
  XXX=             13.2571  YYY=            -21.4390  ZZZ=           -240.5444  XYY=              1.0752
  XXY=             -8.8379  XXZ=            -88.0845  XZZ=             13.9499  YZZ=             -4.3250
  YYZ=            -94.2769  XYZ=              2.7759
 Hexadecapole moment (field-independent basis, Debye-Ang**3):
 XXXX=           -267.9820 YYYY=            -76.7204 ZZZZ=          -1400.4797 XXXY=             11.1493
 XXXZ=             33.8212 YYYX=             12.1146 YYYZ=            -75.0683 ZZZX=             51.6747
 ZZZY=            -41.0570 XXYY=            -62.9536 XXZZ=           -314.6635 YYZZ=           -291.2216
 XXYZ=            -32.7748 YYXZ=              1.2398 ZZXY=             10.5180
 N-N= 2.236886954350D+02 E-N=-1.075162988752D+03  KE= 2.680830703092D+02
 1\1\GINC-BHC0026\SP\RB3LYP\def2TZVP\C5H6O1\DHANAWAY\10-Jun-2022\0\\# s
 p B3LYP/Def2TZVP NoSymm\\int_initalOpt_zmat_AlignedSp\\0,1\H\C,1,1.082
 16452\C,2,1.33659615,1,122.73965562\C,2,1.50114754,1,119.21509305,3,-1
 78.60003168,0\H,3,1.08305164,2,121.32134865,1,-0.30818719,0\C,3,1.4536
 6072,2,119.24238206,5,175.86869317,0\O,4,1.44441743,2,111.8548236,1,-1
 47.10272174,0\H,4,1.08877293,2,112.50062942,7,118.33048211,0\H,4,1.101
 50995,2,111.10270891,7,-120.23684365,0\H,6,1.07979245,3,121.67044399,2
 ,172.24225973,0\C,6,1.34159979,3,118.04731067,10,172.50160839,0\H,11,1
 .0823795,6,124.43544722,3,-169.05383179,0\\Version=ES64L-G16RevA.03\HF
 =-269.4225107\RMSD=9.693e-09\Dipole=0.1250093,-0.1819826,-0.176987\Qua
 drupole=1.119965,-2.2463161,1.1263511,0.6180824,2.055487,-0.5157465\PG
 =C01 [X(C5H6O1)]\\@


 YOU KNOW YOU'RE A TEACHER WHEN YOU SAY 2, WRITE 3, AND MEAN 4.
 -- RONALD ANSTROM, HIGH SCHOOL TEACHER, UNDERWOOD, N.D. 1974
 Job cpu time:       0 days  0 hours  2 minutes 27.4 seconds.
 Elapsed time:       0 days  0 hours  0 minutes 19.0 seconds.
 File lengths (MBytes):  RWF=     25 Int=      0 D2E=      0 Chk=     32 Scr=      1
 Normal termination of Gaussian 16 at Fri Jun 10 02:20:37 2022.
