 Entering Gaussian System, Link 0=g16
 Input=int_zmat_field_N25.gjf
 Output=int_zmat_field_N25.out
 Initial command:
 /software/gaussian/g16-a03/l1.exe "/local_scratch/11171301/Gau-28291.inp" -scrdir="/local_scratch/11171301/"
 Entering Link 1 = /software/gaussian/g16-a03/l1.exe PID=     28292.
  
 Copyright (c) 1988,1990,1992,1993,1995,1998,2003,2009,2016,
            Gaussian, Inc.  All Rights Reserved.
  
 This is part of the Gaussian(R) 16 program.  It is based on
 the Gaussian(R) 09 system (copyright 2009, Gaussian, Inc.),
 the Gaussian(R) 03 system (copyright 2003, Gaussian, Inc.),
 the Gaussian(R) 98 system (copyright 1998, Gaussian, Inc.),
 the Gaussian(R) 94 system (copyright 1995, Gaussian, Inc.),
 the Gaussian 92(TM) system (copyright 1992, Gaussian, Inc.),
 the Gaussian 90(TM) system (copyright 1990, Gaussian, Inc.),
 the Gaussian 88(TM) system (copyright 1988, Gaussian, Inc.),
 the Gaussian 86(TM) system (copyright 1986, Carnegie Mellon
 University), and the Gaussian 82(TM) system (copyright 1983,
 Carnegie Mellon University). Gaussian is a federally registered
 trademark of Gaussian, Inc.
  
 This software contains proprietary and confidential information,
 including trade secrets, belonging to Gaussian, Inc.
  
 This software is provided under written license and may be
 used, copied, transmitted, or stored only in accord with that
 written license.
  
 The following legend is applicable only to US Government
 contracts under FAR:
  
                    RESTRICTED RIGHTS LEGEND
  
 Use, reproduction and disclosure by the US Government is
 subject to restrictions as set forth in subparagraphs (a)
 and (c) of the Commercial Computer Software - Restricted
 Rights clause in FAR 52.227-19.
  
 Gaussian, Inc.
 340 Quinnipiac St., Bldg. 40, Wallingford CT 06492
  
  
 ---------------------------------------------------------------
 Warning -- This program may not be used in any manner that
 competes with the business of Gaussian, Inc. or will provide
 assistance to any competitor of Gaussian, Inc.  The licensee
 of this program is prohibited from giving any competitor of
 Gaussian, Inc. access to this program.  By using this program,
 the user acknowledges that Gaussian, Inc. is engaged in the
 business of creating and licensing software in the field of
 computational chemistry and represents and warrants to the
 licensee that it is not a competitor of Gaussian, Inc. and that
 it will not use this program in any manner prohibited above.
 ---------------------------------------------------------------
  

 Cite this work as:
 Gaussian 16, Revision A.03,
 M. J. Frisch, G. W. Trucks, H. B. Schlegel, G. E. Scuseria, 
 M. A. Robb, J. R. Cheeseman, G. Scalmani, V. Barone, 
 G. A. Petersson, H. Nakatsuji, X. Li, M. Caricato, A. V. Marenich, 
 J. Bloino, B. G. Janesko, R. Gomperts, B. Mennucci, H. P. Hratchian, 
 J. V. Ortiz, A. F. Izmaylov, J. L. Sonnenberg, D. Williams-Young, 
 F. Ding, F. Lipparini, F. Egidi, J. Goings, B. Peng, A. Petrone, 
 T. Henderson, D. Ranasinghe, V. G. Zakrzewski, J. Gao, N. Rega, 
 G. Zheng, W. Liang, M. Hada, M. Ehara, K. Toyota, R. Fukuda, 
 J. Hasegawa, M. Ishida, T. Nakajima, Y. Honda, O. Kitao, H. Nakai, 
 T. Vreven, K. Throssell, J. A. Montgomery, Jr., J. E. Peralta, 
 F. Ogliaro, M. J. Bearpark, J. J. Heyd, E. N. Brothers, K. N. Kudin, 
 V. N. Staroverov, T. A. Keith, R. Kobayashi, J. Normand, 
 K. Raghavachari, A. P. Rendell, J. C. Burant, S. S. Iyengar, 
 J. Tomasi, M. Cossi, J. M. Millam, M. Klene, C. Adamo, R. Cammi, 
 J. W. Ochterski, R. L. Martin, K. Morokuma, O. Farkas, 
 J. B. Foresman, and D. J. Fox, Gaussian, Inc., Wallingford CT, 2016.
 
 ******************************************
 Gaussian 16:  ES64L-G16RevA.03 25-Dec-2016
                10-Jun-2022 
 ******************************************
 %nprocshared=12
 Will use up to   12 processors via shared memory.
 %chk=checkpoint.chk
 %mem=12GB
 ----------------------------------------------------------------------
 # Opt=(Z-matrix, MaxStep=10) B3LYP/Def2TZVP Field=read NoSymm freq=nor
 aman pop=none
 ----------------------------------------------------------------------
 1/8=10,10=7,18=40,26=3,38=1/1,3;
 2/12=2,15=1,17=6,18=5,29=3,40=1/2;
 3/5=44,7=101,11=2,14=-6,25=1,30=1,71=1,74=-5/1,2,3;
 4//1;
 5/5=2,38=5/2;
 7/29=1,30=1/1,2,3,16;
 1/8=10,10=7,18=40,26=3/3(2);
 2/15=1,29=3/2;
 99//99;
 2/15=1,29=3/2;
 3/5=44,7=101,11=2,14=-2,25=1,30=1,71=1,74=-5/1,2,3;
 4/5=5,16=3,69=1/1;
 5/5=2,38=5/2;
 7/30=1/1,2,3,16;
 1/8=10,18=40,26=3/3(-5);
 2/15=1,29=3/2;
 99/9=1/99;
 ------------------
 int_zmat_initalOpt
 ------------------
 Symbolic Z-matrix:
 Charge =  0 Multiplicity = 1
 C
 C                    1    R2
 C                    1    R3       2    A3
 C                    1    R4       2    A4       3    D4       0
 H                    2    R5       1    A5       3    D5       0
 C                    2    R6       1    A6       5    D6       0
 C                    3    R7       1    A7       2    D7       0
 C                    3    R8       1    A8       7    D8       0
 H                    4    R9       1    A9       2    D9       0
 H                    4    R10      1    A10      9    D10      0
 C                    6    R11      2    A11      1    D11      0
 H                    6    R12      2    A12      11   D12      0
 H                    7    R13      3    A13      1    D13      0
 H                    8    R14      3    A14      1    D14      0
 H                    8    R15      3    A15      14   D15      0
 H                    11   R16      6    A16      2    D16      0
       Variables:
  R2                    1.38261                  
  R3                    1.39                     
  R4                    1.51936                  
  R5                    1.08337                  
  R6                    1.39879                  
  R7                    1.38261                  
  R8                    1.51936                  
  R9                    1.09147                  
  R10                   1.09147                  
  R11                   1.39701                  
  R12                   1.0832                   
  R13                   1.08337                  
  R14                   1.09147                  
  R15                   1.09147                  
  R16                   1.08319                  
  A3                  122.27232                  
  A4                  144.17062                  
  A5                  123.1251                   
  A6                  116.04148                  
  A7                  122.27242                  
  A8                   93.55718                  
  A9                  115.67765                  
  A10                 115.67785                  
  A11                 121.6862                   
  A12                 119.43895                  
  A13                 123.1252                   
  A14                 115.67771                  
  A15                 115.67782                  
  A16                 118.87479                  
  D4                 -179.99977                  
  D5                  180.                       
  D6                 -179.99994                  
  D7                   -0.00011                  
  D8                  179.99993                  
  D9                  -64.32795                  
  D10                 128.65591                  
  D11                   0.                       
  D12                 179.99988                  
  D13                 179.99986                  
  D14                 115.6722                   
  D15                 128.65598                  
  D16                -179.99992                  
 

 GradGradGradGradGradGradGradGradGradGradGradGradGradGradGradGradGradGrad
 Berny optimization.
 Initialization pass.
                       ----------------------------
                       !    Initial Parameters    !
                       ! (Angstroms and Degrees)  !
 ----------------------                            ----------------------
 !      Name          Value   Derivative information (Atomic Units)     !
 ------------------------------------------------------------------------
 !       R2          1.3826   estimate D2E/DX2                          !
 !       R3          1.39     estimate D2E/DX2                          !
 !       R4          1.5194   estimate D2E/DX2                          !
 !       R5          1.0834   estimate D2E/DX2                          !
 !       R6          1.3988   estimate D2E/DX2                          !
 !       R7          1.3826   estimate D2E/DX2                          !
 !       R8          1.5194   estimate D2E/DX2                          !
 !       R9          1.0915   estimate D2E/DX2                          !
 !       R10         1.0915   estimate D2E/DX2                          !
 !       R11         1.397    estimate D2E/DX2                          !
 !       R12         1.0832   estimate D2E/DX2                          !
 !       R13         1.0834   estimate D2E/DX2                          !
 !       R14         1.0915   estimate D2E/DX2                          !
 !       R15         1.0915   estimate D2E/DX2                          !
 !       R16         1.0832   estimate D2E/DX2                          !
 !       A3        122.2723   estimate D2E/DX2                          !
 !       A4        144.1706   estimate D2E/DX2                          !
 !       A5        123.1251   estimate D2E/DX2                          !
 !       A6        116.0415   estimate D2E/DX2                          !
 !       A7        122.2724   estimate D2E/DX2                          !
 !       A8         93.5572   estimate D2E/DX2                          !
 !       A9        115.6777   estimate D2E/DX2                          !
 !       A10       115.6779   estimate D2E/DX2                          !
 !       A11       121.6862   estimate D2E/DX2                          !
 !       A12       119.4389   estimate D2E/DX2                          !
 !       A13       123.1252   estimate D2E/DX2                          !
 !       A14       115.6777   estimate D2E/DX2                          !
 !       A15       115.6778   estimate D2E/DX2                          !
 !       A16       118.8748   estimate D2E/DX2                          !
 !       D4       -179.9998   estimate D2E/DX2                          !
 !       D5        180.0      estimate D2E/DX2                          !
 !       D6       -179.9999   estimate D2E/DX2                          !
 !       D7         -0.0001   estimate D2E/DX2                          !
 !       D8        179.9999   estimate D2E/DX2                          !
 !       D9        -64.3279   estimate D2E/DX2                          !
 !       D10       128.6559   estimate D2E/DX2                          !
 !       D11         0.0      estimate D2E/DX2                          !
 !       D12       179.9999   estimate D2E/DX2                          !
 !       D13       179.9999   estimate D2E/DX2                          !
 !       D14       115.6722   estimate D2E/DX2                          !
 !       D15       128.656    estimate D2E/DX2                          !
 !       D16      -179.9999   estimate D2E/DX2                          !
 ------------------------------------------------------------------------
 Trust Radius=1.00D-01 FncErr=1.00D-07 GrdErr=1.00D-06 EigMax=2.50D+02 EigMin=1.00D-04
 Number of steps in this run=     52 maximum allowed number of steps=    100.
 GradGradGradGradGradGradGradGradGradGradGradGradGradGradGradGradGradGrad

 ---------------------------------------------------------------------------------------------------
                            Z-MATRIX (ANGSTROMS AND DEGREES)
   CD    Cent   Atom    N1       Length/X        N2       Alpha/Y        N3        Beta/Z          J
 ---------------------------------------------------------------------------------------------------
      1      1  C 
      2      2  C        1   1.382613(     1)
      3      3  C        1   1.390004(     2)      2  122.272(    16)
      4      4  C        1   1.519362(     3)      2  144.171(    17)      3 -180.000(    30)      0
      5      5  H        2   1.083366(     4)      1  123.125(    18)      3  180.000(    31)      0
      6      6  C        2   1.398790(     5)      1  116.041(    19)      5 -180.000(    32)      0
      7      7  C        3   1.382615(     6)      1  122.272(    20)      2   -0.000(    33)      0
      8      8  C        3   1.519361(     7)      1   93.557(    21)      7  180.000(    34)      0
      9      9  H        4   1.091470(     8)      1  115.678(    22)      2  -64.328(    35)      0
     10     10  H        4   1.091468(     9)      1  115.678(    23)      9  128.656(    36)      0
     11     11  C        6   1.397009(    10)      2  121.686(    24)      1    0.000(    37)      0
     12     12  H        6   1.083196(    11)      2  119.439(    25)     11  180.000(    38)      0
     13     13  H        7   1.083366(    12)      3  123.125(    26)      1  180.000(    39)      0
     14     14  H        8   1.091470(    13)      3  115.678(    27)      1  115.672(    40)      0
     15     15  H        8   1.091469(    14)      3  115.678(    28)     14  128.656(    41)      0
     16     16  H       11   1.083194(    15)      6  118.875(    29)      2 -180.000(    42)      0
 ---------------------------------------------------------------------------------------------------
                         Z-Matrix orientation:                         
 ---------------------------------------------------------------------
 Center     Atomic      Atomic             Coordinates (Angstroms)
 Number     Number       Type             X           Y           Z
 ---------------------------------------------------------------------
      1          6           0        0.000000    0.000000    0.000000
      2          6           0        0.000000    0.000000    1.382613
      3          6           0        1.175276    0.000000   -0.742184
      4          6           0       -0.889394    0.000004   -1.231844
      5          1           0       -0.907297    0.000000    1.974639
      6          6           0        1.256780    0.000001    1.996712
      7          6           0        2.423668    0.000002   -0.147928
      8          6           0        0.445291   -0.000005   -2.074693
      9          1           0       -1.511753   -0.886576   -1.365831
     10          1           0       -1.511746    0.886585   -1.365834
     11          6           0        2.437979    0.000002    1.250788
     12          1           0        1.320972    0.000003    3.078004
     13          1           0        3.348183    0.000000   -0.712687
     14          1           0        0.591805    0.886574   -2.694223
     15          1           0        0.591802   -0.886588   -2.694216
     16          1           0        3.386706    0.000002    1.773497
 ---------------------------------------------------------------------
                    Distance matrix (angstroms):
                    1          2          3          4          5
     1  C    0.000000
     2  C    1.382613   0.000000
     3  C    1.390004   2.428176   0.000000
     4  C    1.519362   2.761595   2.121940   0.000000
     5  H    2.173105   1.083366   3.423191   3.206533   0.000000
     6  C    2.359313   1.398790   2.740109   3.876808   2.164189
     7  C    2.428178   2.866483   1.382615   3.485865   3.949761
     8  C    2.121941   3.485864   1.519361   1.578537   4.269260
     9  H    2.221916   3.259656   2.897426   1.091470   3.508578
    10  H    2.221916   3.259658   2.897423   1.091468   3.508583
    11  C    2.740111   2.441540   2.359313   4.151490   3.422693
    12  H    3.349489   2.149260   3.822966   4.843605   2.486483
    13  H    3.423194   3.949761   2.173108   4.269261   5.032974
    14  H    2.897428   4.213887   2.221916   2.262413   4.983131
    15  H    2.897425   4.213883   2.221916   2.262415   4.983126
    16  H    3.822966   3.409189   3.349489   5.226577   4.298711
                    6          7          8          9         10
     6  C    0.000000
     7  C    2.441538   0.000000
     8  C    4.151489   2.761594   0.000000
     9  H    4.444940   4.213888   2.262414   0.000000
    10  H    4.444939   4.213883   2.262414   1.773162   0.000000
    11  C    1.397009   1.398789   3.876807   4.820072   4.820069
    12  H    1.083196   3.409190   5.226577   5.343971   5.343970
    13  H    3.422691   1.083366   3.206532   4.983131   4.983126
    14  H    4.820071   3.259655   1.091470   3.055102   2.487880
    15  H    4.820067   3.259657   1.091469   2.487881   3.055104
    16  H    2.141591   2.149259   4.843603   5.885262   5.885258
                   11         12         13         14         15
    11  C    0.000000
    12  H    2.141594   0.000000
    13  H    2.164187   4.298712   0.000000
    14  H    4.444939   5.885261   3.508578   0.000000
    15  H    4.444938   5.885258   3.508580   1.773163   0.000000
    16  H    1.083194   2.443153   2.486482   5.343969   5.343968
                   16
    16  H    0.000000
 Symmetry turned off by external request.
 Stoichiometry    C8H8
 Framework group  C1[X(C8H8)]
 Deg. of freedom    42
 Full point group                 C1      NOp   1
 Rotational constants (GHZ):           4.4829913           2.0911714           1.4519556
 Standard basis: def2TZVP (5D, 7F)
 The following finite field(s) will be applied:
 An electric field of             -0.0013 -0.0000 -0.0021
   296 basis functions,   472 primitive gaussians,   336 cartesian basis functions
    28 alpha electrons       28 beta electrons
       nuclear repulsion energy       333.0947372821 Hartrees.
 NAtoms=   16 NActive=   16 NUniq=   16 SFac= 1.00D+00 NAtFMM=   60 NAOKFM=F Big=F
 Integral buffers will be    131072 words long.
 Raffenetti 2 integral format.
 Two-electron integral symmetry is turned off.
 One-electron integrals computed using PRISM.
   1 Symmetry operations used in ECPInt.
 ECPInt:  NShTT=    7260 NPrTT=   21936 LenC2=    7147 LenP2D=   17612.
 LDataN:  DoStor=T MaxTD1= 6 Len=  172
 NBasis=   296 RedAO= T EigKep=  8.47D-06  NBF=   296
 NBsUse=   296 1.00D-06 EigRej= -1.00D+00 NBFU=   296
 The nuclear repulsion energy is now       332.9752876161 hartrees.
 ExpMin= 9.52D-02 ExpMax= 1.36D+04 ExpMxC= 4.63D+02 IAcc=3 IRadAn=         5 AccDes= 0.00D+00
 Harris functional with IExCor=  402 and IRadAn=       5 diagonalized for initial guess.
 HarFok:  IExCor=  402 AccDes= 0.00D+00 IRadAn=         5 IDoV= 1 UseB2=F ITyADJ=14
 ICtDFT=  3500011 ScaDFX=  1.000000  1.000000  1.000000  1.000000
 FoFCou: FMM=F IPFlag=           0 FMFlag=      100000 FMFlg1=           0
         NFxFlg=           0 DoJE=T BraDBF=F KetDBF=T FulRan=T
         wScrn=  0.000000 ICntrl=       500 IOpCl=  0 I1Cent=   200000004 NGrid=           0
         NMat0=    1 NMatS0=      1 NMatT0=    0 NMatD0=    1 NMtDS0=    0 NMtDT0=    0
 Symmetry not used in FoFCou.
 Requested convergence on RMS density matrix=1.00D-08 within 128 cycles.
 Requested convergence on MAX density matrix=1.00D-06.
 Requested convergence on             energy=1.00D-06.
 No special actions if energy rises.
 Integral accuracy reduced to 1.0D-05 until final iterations.
 Initial convergence to 1.0D-05 achieved.  Increase integral accuracy.
 SCF Done:  E(RB3LYP) =  -309.742686735     A.U. after   13 cycles
            NFock= 13  Conv=0.72D-08     -V/T= 2.0054
   1 Symmetry operations used in ECPInt.
 ECPInt:  NShTT=    7260 NPrTT=   21936 LenC2=    7147 LenP2D=   17612.
 LDataN:  DoStor=T MaxTD1= 7 Len=  274
 Calling FoFJK, ICntrl=      2127 FMM=F ISym2X=0 I1Cent= 0 IOpClX= 0 NMat=1 NMatS=1 NMatT=0.
 -------------------------------------------------------------------
 Center     Atomic                   Forces (Hartrees/Bohr)
 Number     Number              X              Y              Z
 -------------------------------------------------------------------
      1        6           0.000667190    0.000000521    0.000012445
      2        6          -0.000272475    0.000000139   -0.000246138
      3        6          -0.000273848   -0.000000331    0.000607506
      4        6           0.000013053   -0.000002003    0.000213186
      5        1           0.000134311    0.000000003    0.000149834
      6        6          -0.000030082    0.000000092    0.000135691
      7        6          -0.000107766   -0.000000386   -0.000355333
      8        6           0.000190536    0.000001488    0.000106533
      9        1          -0.000156568   -0.000287404   -0.000082200
     10        1          -0.000156942    0.000288469   -0.000082231
     11        6           0.000134035   -0.000000014    0.000029200
     12        1           0.000018252   -0.000000108   -0.000236962
     13        1           0.000077038    0.000000114    0.000185262
     14        1          -0.000008225    0.000286754   -0.000175941
     15        1          -0.000008275   -0.000287416   -0.000176083
     16        1          -0.000220232    0.000000080   -0.000084770
 -------------------------------------------------------------------
 Cartesian Forces:  Max     0.000667190 RMS     0.000201132
 -----------------------------------------------------------------------------------------------
                       Internal Coordinate Forces (Hartree/Bohr or radian)
  Cent   Atom   N1       Length/X         N2         Alpha/Y        N3         Beta/Z          J
 -----------------------------------------------------------------------------------------------
      1  C 
      2  C        1  -0.000253(     1)
      3  C        1  -0.000213(     2)      2  -0.000942(    16)
      4  C        1   0.000136(     3)      2  -0.000667(    17)      3  -0.000001(    30)     0
      5  H        2  -0.000031(     4)      1   0.000407(    18)      3   0.000000(    31)     0
      6  C        2  -0.000157(     5)      1  -0.000505(    19)      5   0.000000(    32)     0
      7  C        3  -0.000101(     6)      1  -0.000039(    20)      2   0.000003(    33)     0
      8  C        3   0.000132(     7)      1   0.000660(    21)      7   0.000002(    34)     0
      9  H        4   0.000333(     8)      1   0.000032(    22)      2   0.000000(    35)     0
     10  H        4   0.000334(     9)      1   0.000032(    23)      9   0.000100(    36)     0
     11  C        6  -0.000043(    10)      2  -0.000180(    24)      1   0.000000(    37)     0
     12  H        6  -0.000235(    11)      2   0.000066(    25)     11   0.000000(    38)     0
     13  H        7  -0.000031(    12)      3   0.000406(    26)      1   0.000000(    39)     0
     14  H        8   0.000332(    13)      3   0.000033(    27)      1   0.000000(    40)     0
     15  H        8   0.000332(    14)      3   0.000033(    28)     14   0.000102(    41)     0
     16  H       11  -0.000234(    15)      6  -0.000066(    29)      2  -0.000000(    42)     0
 -----------------------------------------------------------------------------------------------
 Internal  Forces:  Max     0.000942492 RMS     0.000274232

 GradGradGradGradGradGradGradGradGradGradGradGradGradGradGradGradGradGrad
 Berny optimization.
 Search for a local minimum.
 Step number   1 out of a maximum of   52
 All quantities printed in internal units (Hartrees-Bohrs-Radians)
 Second derivative matrix not updated -- first step.
 ITU=  0
     Eigenvalues ---    0.02675   0.03820   0.05295   0.05942   0.07245
     Eigenvalues ---    0.09434   0.12669   0.14554   0.15770   0.16779
     Eigenvalues ---    0.17370   0.20751   0.20959   0.25141   0.27401
     Eigenvalues ---    0.30442   0.31916   0.33194   0.34298   0.34643
     Eigenvalues ---    0.34643   0.34643   0.34644   0.35404   0.35590
     Eigenvalues ---    0.35591   0.35611   0.35611   0.36050   0.46178
     Eigenvalues ---    0.46441   0.48208   0.48675   0.50084   0.52011
     Eigenvalues ---    0.61784   0.90402   1.37225   2.84648   2.97580
     Eigenvalues ---    6.65270  27.38638
 RFO step:  Lambda=-3.95547462D-06 EMin= 2.67514499D-02
 Linear search not attempted -- first point.
 Variable       Old X    -DE/DX   Delta X   Delta X   Delta X     New X
                                 (Linear)    (Quad)   (Total)
    R2        2.61276  -0.00025   0.00000  -0.00031  -0.00031   2.61245
    R3        2.62673  -0.00021   0.00000  -0.00069  -0.00069   2.62604
    R4        2.87118   0.00014   0.00000   0.00041   0.00041   2.87158
    R5        2.04726  -0.00003   0.00000  -0.00008  -0.00008   2.04718
    R6        2.64333  -0.00016   0.00000  -0.00023  -0.00023   2.64310
    R7        2.61276  -0.00010   0.00000  -0.00031  -0.00031   2.61245
    R8        2.87118   0.00013   0.00000   0.00041   0.00041   2.87158
    R9        2.06258   0.00033   0.00000   0.00096   0.00096   2.06354
   R10        2.06258   0.00033   0.00000   0.00096   0.00096   2.06354
   R11        2.63996  -0.00004   0.00000  -0.00020  -0.00020   2.63976
   R12        2.04694  -0.00024   0.00000  -0.00066  -0.00066   2.04628
   R13        2.04726  -0.00003   0.00000  -0.00009  -0.00009   2.04718
   R14        2.06258   0.00033   0.00000   0.00096   0.00096   2.06354
   R15        2.06258   0.00033   0.00000   0.00096   0.00096   2.06354
   R16        2.04694  -0.00023   0.00000  -0.00066  -0.00066   2.04628
    A3        2.13405  -0.00094   0.00000   0.00034   0.00034   2.13440
    A4        2.51625  -0.00067   0.00000  -0.00057  -0.00057   2.51568
    A5        2.14894   0.00041   0.00000   0.00153   0.00153   2.15047
    A6        2.02531  -0.00050   0.00000  -0.00055  -0.00055   2.02476
    A7        2.13406  -0.00004   0.00000   0.00034   0.00034   2.13439
    A8        1.63288   0.00066   0.00000   0.00022   0.00022   1.63310
    A9        2.01896   0.00003   0.00000   0.00030   0.00030   2.01926
   A10        2.01896   0.00003   0.00000   0.00030   0.00030   2.01926
   A11        2.12382  -0.00018   0.00000   0.00020   0.00020   2.12403
   A12        2.08460   0.00007   0.00000   0.00009   0.00009   2.08469
   A13        2.14894   0.00041   0.00000   0.00153   0.00153   2.15047
   A14        2.01896   0.00003   0.00000   0.00031   0.00031   2.01927
   A15        2.01896   0.00003   0.00000   0.00031   0.00031   2.01927
   A16        2.07476  -0.00007   0.00000  -0.00031  -0.00031   2.07445
    D4       -3.14159  -0.00000   0.00000  -0.00001  -0.00001  -3.14159
    D5        3.14159   0.00000   0.00000  -0.00000  -0.00000   3.14159
    D6       -3.14159   0.00000   0.00000  -0.00000  -0.00000  -3.14159
    D7       -0.00000   0.00000   0.00000   0.00000   0.00000   0.00000
    D8        3.14159   0.00000   0.00000   0.00000   0.00000   3.14159
    D9       -1.12273   0.00000   0.00000  -0.00052  -0.00052  -1.12326
   D10        2.24547   0.00010   0.00000   0.00104   0.00104   2.24651
   D11        0.00000   0.00000   0.00000   0.00000   0.00000   0.00000
   D12        3.14159   0.00000   0.00000   0.00000   0.00000   3.14159
   D13        3.14159   0.00000   0.00000   0.00000   0.00000   3.14159
   D14        2.01886   0.00000   0.00000  -0.00054  -0.00054   2.01832
   D15        2.24547   0.00010   0.00000   0.00107   0.00107   2.24654
   D16       -3.14159  -0.00000   0.00000  -0.00000  -0.00000  -3.14159
         Item               Value     Threshold  Converged?
 Maximum Force            0.000942     0.000450     NO 
 RMS     Force            0.000274     0.000300     YES
 Maximum Displacement     0.001533     0.001800     YES
 RMS     Displacement     0.000589     0.001200     YES
 Predicted change in Energy=-1.977737D-06
 GradGradGradGradGradGradGradGradGradGradGradGradGradGradGradGradGradGrad

 ---------------------------------------------------------------------------------------------------
                            Z-MATRIX (ANGSTROMS AND DEGREES)
   CD    Cent   Atom    N1       Length/X        N2       Alpha/Y        N3        Beta/Z          J
 ---------------------------------------------------------------------------------------------------
      1      1  C 
      2      2  C        1   1.382451(     1)
      3      3  C        1   1.389638(     2)      2  122.292(    16)
      4      4  C        1   1.519577(     3)      2  144.138(    17)      3 -180.000(    30)      0
      5      5  H        2   1.083321(     4)      1  123.213(    18)      3  180.000(    31)      0
      6      6  C        2   1.398667(     5)      1  116.010(    19)      5 -180.000(    32)      0
      7      7  C        3   1.382452(     6)      1  122.292(    20)      2    0.000(    33)      0
      8      8  C        3   1.519576(     7)      1   93.570(    21)      7  180.000(    34)      0
      9      9  H        4   1.091978(     8)      1  115.695(    22)      2  -64.358(    35)      0
     10     10  H        4   1.091978(     9)      1  115.695(    23)      9  128.716(    36)      0
     11     11  C        6   1.396901(    10)      2  121.698(    24)      1    0.000(    37)      0
     12     12  H        6   1.082846(    11)      2  119.444(    25)     11  180.000(    38)      0
     13     13  H        7   1.083320(    12)      3  123.213(    26)      1  180.000(    39)      0
     14     14  H        8   1.091977(    13)      3  115.696(    27)      1  115.641(    40)      0
     15     15  H        8   1.091976(    14)      3  115.696(    28)     14  128.717(    41)      0
     16     16  H       11   1.082846(    15)      6  118.857(    29)      2 -180.000(    42)      0
 ---------------------------------------------------------------------------------------------------
                         Z-Matrix orientation:                         
 ---------------------------------------------------------------------
 Center     Atomic      Atomic             Coordinates (Angstroms)
 Number     Number       Type             X           Y           Z
 ---------------------------------------------------------------------
      1          6           0        0.000000    0.000000    0.000000
      2          6           0        0.000000    0.000000    1.382451
      3          6           0        1.174713    0.000000   -0.742391
      4          6           0       -0.890224   -0.000001   -1.231510
      5          1           0       -0.906352    0.000000    1.975840
      6          6           0        1.257004   -0.000002    1.995811
      7          6           0        2.423361   -0.000002   -0.149052
      8          6           0        0.444463    0.000006   -2.074999
      9          1           0       -1.512692   -0.887091   -1.365756
     10          1           0       -1.512698    0.887084   -1.365752
     11          6           0        2.437858   -0.000003    1.249541
     12          1           0        1.321859   -0.000002    3.076713
     13          1           0        3.348319   -0.000004   -0.712998
     14          1           0        0.590346    0.887097   -2.694839
     15          1           0        0.590349   -0.887078   -2.694848
     16          1           0        3.386298   -0.000005    1.772052
 ---------------------------------------------------------------------
                    Distance matrix (angstroms):
                    1          2          3          4          5
     1  C    0.000000
     2  C    1.382451   0.000000
     3  C    1.389638   2.427942   0.000000
     4  C    1.519577   2.761393   2.122075   0.000000
     5  H    2.173803   1.083321   3.423392   3.207391   0.000000
     6  C    2.358669   1.398667   2.739438   3.876363   2.163448
     7  C    2.427940   2.866737   1.382452   3.485909   3.949956
     8  C    2.122067   3.485902   1.519576   1.578880   4.270129
     9  H    2.222714   3.260032   2.897872   1.091978   3.510105
    10  H    2.222713   3.260030   2.897875   1.091978   3.510101
    11  C    2.739435   2.441478   2.358671   4.151113   3.422170
    12  H    3.348652   2.148915   3.821937   4.842943   2.485326
    13  H    3.423391   3.949956   2.173805   4.270141   5.033098
    14  H    2.897862   4.214231   2.222718   2.262822   4.984204
    15  H    2.897865   4.214236   2.222718   2.262821   4.984210
    16  H    3.821934   3.408636   3.348661   5.225899   4.297484
                    6          7          8          9         10
     6  C    0.000000
     7  C    2.441480   0.000000
     8  C    4.151110   2.761396   0.000000
     9  H    4.445028   4.214238   2.262835   0.000000
    10  H    4.445028   4.214243   2.262835   1.774176   0.000000
    11  C    1.396901   1.398669   3.876363   4.820119   4.820122
    12  H    1.082846   3.408646   5.225893   5.343887   5.343887
    13  H    3.422170   1.083320   3.207402   4.984220   4.984226
    14  H    4.820121   3.260049   1.091977   3.055646   2.487824
    15  H    4.820125   3.260047   1.091976   2.487824   3.055643
    16  H    2.141018   2.148927   4.842953   5.884969   5.884973
                   11         12         13         14         15
    11  C    0.000000
    12  H    2.141030   0.000000
    13  H    2.163447   4.297494   0.000000
    14  H    4.445040   5.884969   3.510136   0.000000
    15  H    4.445041   5.884974   3.510132   1.774175   0.000000
    16  H    1.082846   2.442140   2.485340   5.343913   5.343914
                   16
    16  H    0.000000
 Symmetry turned off by external request.
 Stoichiometry    C8H8
 Framework group  C1[X(C8H8)]
 Deg. of freedom    42
 Full point group                 C1      NOp   1
 Rotational constants (GHZ):           4.4826404           2.0915433           1.4521283
 Standard basis: def2TZVP (5D, 7F)
 The following finite field(s) will be applied:
 An electric field of             -0.0013 -0.0000 -0.0021
   296 basis functions,   472 primitive gaussians,   336 cartesian basis functions
    28 alpha electrons       28 beta electrons
       nuclear repulsion energy       333.1036249222 Hartrees.
 NAtoms=   16 NActive=   16 NUniq=   16 SFac= 1.00D+00 NAtFMM=   60 NAOKFM=F Big=F
 Integral buffers will be    131072 words long.
 Raffenetti 2 integral format.
 Two-electron integral symmetry is turned off.
 One-electron integrals computed using PRISM.
   1 Symmetry operations used in ECPInt.
 ECPInt:  NShTT=    7260 NPrTT=   21936 LenC2=    7147 LenP2D=   17612.
 LDataN:  DoStor=T MaxTD1= 6 Len=  172
 NBasis=   296 RedAO= T EigKep=  8.46D-06  NBF=   296
 NBsUse=   296 1.00D-06 EigRej= -1.00D+00 NBFU=   296
 The nuclear repulsion energy is now       332.9843184869 hartrees.
 Initial guess from the checkpoint file:  "checkpoint.chk"
 B after Tr=    -0.000607   -0.000002   -0.000295
         Rot=    1.000000   -0.000001   -0.000171   -0.000000 Ang=  -0.02 deg.
 Requested convergence on RMS density matrix=1.00D-08 within 128 cycles.
 Requested convergence on MAX density matrix=1.00D-06.
 Requested convergence on             energy=1.00D-06.
 No special actions if energy rises.
 SCF Done:  E(RB3LYP) =  -309.742688939     A.U. after    7 cycles
            NFock=  7  Conv=0.46D-08     -V/T= 2.0054
   1 Symmetry operations used in ECPInt.
 ECPInt:  NShTT=    7260 NPrTT=   21936 LenC2=    7147 LenP2D=   17612.
 LDataN:  DoStor=T MaxTD1= 7 Len=  274
 Calling FoFJK, ICntrl=      2127 FMM=F ISym2X=0 I1Cent= 0 IOpClX= 0 NMat=1 NMatS=1 NMatT=0.
 -------------------------------------------------------------------
 Center     Atomic                   Forces (Hartrees/Bohr)
 Number     Number              X              Y              Z
 -------------------------------------------------------------------
      1        6           0.000131548   -0.000000258   -0.000080167
      2        6          -0.000134458   -0.000000167   -0.000065028
      3        6          -0.000130279    0.000000305    0.000085067
      4        6          -0.000103519    0.000000397    0.000081264
      5        1           0.000040052    0.000000018    0.000036155
      6        6           0.000004763    0.000000093    0.000045693
      7        6          -0.000002408    0.000000068   -0.000150577
      8        6           0.000117313   -0.000000449   -0.000057682
      9        1           0.000006828   -0.000002004   -0.000001136
     10        1           0.000006555    0.000002144   -0.000001226
     11        6           0.000038678   -0.000000051    0.000023721
     12        1           0.000015416   -0.000000009    0.000006996
     13        1           0.000015443    0.000000034    0.000050889
     14        1          -0.000003494    0.000002235    0.000005663
     15        1          -0.000003459   -0.000002342    0.000005397
     16        1           0.000001022   -0.000000013    0.000014971
 -------------------------------------------------------------------
 Cartesian Forces:  Max     0.000150577 RMS     0.000053610
 -----------------------------------------------------------------------------------------------
                       Internal Coordinate Forces (Hartree/Bohr or radian)
  Cent   Atom   N1       Length/X         N2         Alpha/Y        N3         Beta/Z          J
 -----------------------------------------------------------------------------------------------
      1  C 
      2  C        1   0.000063(     1)
      3  C        1   0.000027(     2)      2  -0.000047(    16)
      4  C        1  -0.000011(     3)      2  -0.000336(    17)      3   0.000001(    30)     0
      5  H        2  -0.000014(     4)      1   0.000107(    18)      3  -0.000000(    31)     0
      6  C        2   0.000094(     5)      1   0.000285(    19)      5  -0.000000(    32)     0
      7  C        3  -0.000031(     6)      1   0.000144(    20)      2  -0.000002(    33)     0
      8  C        3  -0.000012(     7)      1   0.000337(    21)      7  -0.000001(    34)     0
      9  H        4  -0.000002(     8)      1  -0.000005(    22)      2  -0.000000(    35)     0
     10  H        4  -0.000002(     9)      1  -0.000005(    23)      9   0.000012(    36)     0
     11  C        6   0.000013(    10)      2   0.000168(    24)      1  -0.000000(    37)     0
     12  H        6   0.000008(    11)      2   0.000031(    25)     11   0.000000(    38)     0
     13  H        7  -0.000013(    12)      3   0.000105(    26)      1   0.000000(    39)     0
     14  H        8  -0.000002(    13)      3  -0.000006(    27)      1  -0.000000(    40)     0
     15  H        8  -0.000002(    14)      3  -0.000005(    28)     14   0.000011(    41)     0
     16  H       11   0.000008(    15)      6  -0.000026(    29)      2   0.000000(    42)     0
 -----------------------------------------------------------------------------------------------
 Internal  Forces:  Max     0.000337159 RMS     0.000097509

 GradGradGradGradGradGradGradGradGradGradGradGradGradGradGradGradGradGrad
 Berny optimization.
 Search for a local minimum.
 Step number   2 out of a maximum of   52
 All quantities printed in internal units (Hartrees-Bohrs-Radians)
 Update second derivatives using D2CorN and points    1    2
 DE= -2.20D-06 DEPred=-1.98D-06 R= 1.11D+00
 TightC=F SS=  1.41D+00  RLast= 3.82D-03 DXNew= 1.6818D-01 1.1456D-02
 Trust test= 1.11D+00 RLast= 3.82D-03 DXMaxT set to 1.00D-01
 ITU=  1  0
     Eigenvalues ---    0.02670   0.03820   0.05204   0.05924   0.07245
     Eigenvalues ---    0.09409   0.12456   0.14553   0.15768   0.16775
     Eigenvalues ---    0.17366   0.20116   0.20751   0.24130   0.27263
     Eigenvalues ---    0.30517   0.31469   0.33191   0.34299   0.34643
     Eigenvalues ---    0.34643   0.34644   0.34726   0.35410   0.35564
     Eigenvalues ---    0.35591   0.35611   0.35727   0.36046   0.46283
     Eigenvalues ---    0.46420   0.48230   0.48722   0.50078   0.51675
     Eigenvalues ---    0.61774   0.90383   1.37224   2.84656   2.97580
     Eigenvalues ---    6.64860  27.38697
 RFO step:  Lambda=-1.52446155D-07 EMin= 2.67020487D-02
 Quartic linear search produced a step of  0.12986.
 Variable       Old X    -DE/DX   Delta X   Delta X   Delta X     New X
                                 (Linear)    (Quad)   (Total)
    R2        2.61245   0.00006  -0.00004   0.00006   0.00002   2.61247
    R3        2.62604   0.00003  -0.00009  -0.00011  -0.00020   2.62584
    R4        2.87158  -0.00001   0.00005  -0.00011  -0.00006   2.87153
    R5        2.04718  -0.00001  -0.00001  -0.00003  -0.00004   2.04714
    R6        2.64310   0.00009  -0.00003   0.00017   0.00014   2.64324
    R7        2.61245  -0.00003  -0.00004   0.00005   0.00001   2.61247
    R8        2.87158  -0.00001   0.00005  -0.00011  -0.00006   2.87152
    R9        2.06354  -0.00000   0.00012  -0.00012   0.00001   2.06355
   R10        2.06354  -0.00000   0.00013  -0.00012   0.00001   2.06355
   R11        2.63976   0.00001  -0.00003   0.00010   0.00007   2.63983
   R12        2.04628   0.00001  -0.00009   0.00010   0.00002   2.04630
   R13        2.04718  -0.00001  -0.00001  -0.00003  -0.00004   2.04714
   R14        2.06354  -0.00000   0.00012  -0.00012   0.00001   2.06354
   R15        2.06354  -0.00000   0.00012  -0.00012   0.00001   2.06354
   R16        2.04628   0.00001  -0.00009   0.00010   0.00002   2.04630
    A3        2.13440  -0.00005   0.00004   0.00006   0.00011   2.13451
    A4        2.51568  -0.00034  -0.00007  -0.00014  -0.00021   2.51547
    A5        2.15047   0.00011   0.00020   0.00026   0.00046   2.15093
    A6        2.02476   0.00029  -0.00007  -0.00004  -0.00012   2.02465
    A7        2.13439   0.00014   0.00004   0.00005   0.00009   2.13448
    A8        1.63310   0.00034   0.00003   0.00008   0.00011   1.63321
    A9        2.01926  -0.00000   0.00004  -0.00001   0.00003   2.01929
   A10        2.01926  -0.00000   0.00004  -0.00001   0.00003   2.01929
   A11        2.12403   0.00017   0.00003  -0.00002   0.00001   2.12404
   A12        2.08469   0.00003   0.00001   0.00009   0.00010   2.08479
   A13        2.15047   0.00011   0.00020   0.00025   0.00045   2.15092
   A14        2.01927  -0.00001   0.00004  -0.00001   0.00003   2.01930
   A15        2.01927  -0.00001   0.00004  -0.00001   0.00003   2.01930
   A16        2.07445  -0.00003  -0.00004  -0.00006  -0.00010   2.07435
    D4       -3.14159   0.00000  -0.00000   0.00002   0.00002  -3.14158
    D5        3.14159  -0.00000  -0.00000  -0.00001  -0.00001   3.14158
    D6       -3.14159  -0.00000  -0.00000  -0.00000  -0.00000  -3.14160
    D7        0.00000  -0.00000   0.00000   0.00002   0.00002   0.00002
    D8        3.14159  -0.00000   0.00000   0.00001   0.00001   3.14160
    D9       -1.12326  -0.00000  -0.00007  -0.00008  -0.00015  -1.12340
   D10        2.24651   0.00001   0.00014   0.00008   0.00021   2.24672
   D11        0.00000  -0.00000   0.00000   0.00000   0.00000   0.00000
   D12        3.14159   0.00000   0.00000  -0.00000   0.00000   3.14159
   D13        3.14159   0.00000   0.00000  -0.00000  -0.00000   3.14159
   D14        2.01832  -0.00000  -0.00007  -0.00006  -0.00013   2.01819
   D15        2.24654   0.00001   0.00014   0.00007   0.00021   2.24675
   D16       -3.14159   0.00000  -0.00000   0.00000   0.00000  -3.14159
         Item               Value     Threshold  Converged?
 Maximum Force            0.000337     0.000450     YES
 RMS     Force            0.000098     0.000300     YES
 Maximum Displacement     0.000460     0.001800     YES
 RMS     Displacement     0.000132     0.001200     YES
 Predicted change in Energy=-9.734428D-08
 Optimization completed.
    -- Stationary point found.
                       ----------------------------
                       !   Optimized Parameters   !
                       ! (Angstroms and Degrees)  !
 ----------------------                            ----------------------
 !      Name          Value   Derivative information (Atomic Units)     !
 ------------------------------------------------------------------------
 !       R2          1.3825   -DE/DX =    0.0001                        !
 !       R3          1.3896   -DE/DX =    0.0                           !
 !       R4          1.5196   -DE/DX =    0.0                           !
 !       R5          1.0833   -DE/DX =    0.0                           !
 !       R6          1.3987   -DE/DX =    0.0001                        !
 !       R7          1.3825   -DE/DX =    0.0                           !
 !       R8          1.5196   -DE/DX =    0.0                           !
 !       R9          1.092    -DE/DX =    0.0                           !
 !       R10         1.092    -DE/DX =    0.0                           !
 !       R11         1.3969   -DE/DX =    0.0                           !
 !       R12         1.0828   -DE/DX =    0.0                           !
 !       R13         1.0833   -DE/DX =    0.0                           !
 !       R14         1.092    -DE/DX =    0.0                           !
 !       R15         1.092    -DE/DX =    0.0                           !
 !       R16         1.0828   -DE/DX =    0.0                           !
 !       A3        122.2919   -DE/DX =    0.0                           !
 !       A4        144.1379   -DE/DX =   -0.0003                        !
 !       A5        123.2128   -DE/DX =    0.0001                        !
 !       A6        116.0102   -DE/DX =    0.0003                        !
 !       A7        122.2917   -DE/DX =    0.0001                        !
 !       A8         93.5698   -DE/DX =    0.0003                        !
 !       A9        115.6951   -DE/DX =    0.0                           !
 !       A10       115.695    -DE/DX =    0.0                           !
 !       A11       121.6979   -DE/DX =    0.0002                        !
 !       A12       119.4439   -DE/DX =    0.0                           !
 !       A13       123.213    -DE/DX =    0.0001                        !
 !       A14       115.6957   -DE/DX =    0.0                           !
 !       A15       115.6957   -DE/DX =    0.0                           !
 !       A16       118.8571   -DE/DX =    0.0                           !
 !       D4       -180.0001   -DE/DX =    0.0                           !
 !       D5        180.0      -DE/DX =    0.0                           !
 !       D6       -180.0001   -DE/DX =    0.0                           !
 !       D7          0.0001   -DE/DX =    0.0                           !
 !       D8        180.0001   -DE/DX =    0.0                           !
 !       D9        -64.358    -DE/DX =    0.0                           !
 !       D10       128.7157   -DE/DX =    0.0                           !
 !       D11         0.0      -DE/DX =    0.0                           !
 !       D12       180.0      -DE/DX =    0.0                           !
 !       D13       179.9999   -DE/DX =    0.0                           !
 !       D14       115.6411   -DE/DX =    0.0                           !
 !       D15       128.7173   -DE/DX =    0.0                           !
 !       D16      -180.0      -DE/DX =    0.0                           !
 ------------------------------------------------------------------------
 GradGradGradGradGradGradGradGradGradGradGradGradGradGradGradGradGradGrad

 ---------------------------------------------------------------------------------------------------
                            Z-MATRIX (ANGSTROMS AND DEGREES)
   CD    Cent   Atom    N1       Length/X        N2       Alpha/Y        N3        Beta/Z          J
 ---------------------------------------------------------------------------------------------------
      1      1  C 
      2      2  C        1   1.382451(     1)
      3      3  C        1   1.389638(     2)      2  122.292(    16)
      4      4  C        1   1.519577(     3)      2  144.138(    17)      3 -180.000(    30)      0
      5      5  H        2   1.083321(     4)      1  123.213(    18)      3  180.000(    31)      0
      6      6  C        2   1.398667(     5)      1  116.010(    19)      5 -180.000(    32)      0
      7      7  C        3   1.382452(     6)      1  122.292(    20)      2    0.000(    33)      0
      8      8  C        3   1.519576(     7)      1   93.570(    21)      7  180.000(    34)      0
      9      9  H        4   1.091978(     8)      1  115.695(    22)      2  -64.358(    35)      0
     10     10  H        4   1.091978(     9)      1  115.695(    23)      9  128.716(    36)      0
     11     11  C        6   1.396901(    10)      2  121.698(    24)      1    0.000(    37)      0
     12     12  H        6   1.082846(    11)      2  119.444(    25)     11  180.000(    38)      0
     13     13  H        7   1.083320(    12)      3  123.213(    26)      1  180.000(    39)      0
     14     14  H        8   1.091977(    13)      3  115.696(    27)      1  115.641(    40)      0
     15     15  H        8   1.091976(    14)      3  115.696(    28)     14  128.717(    41)      0
     16     16  H       11   1.082846(    15)      6  118.857(    29)      2 -180.000(    42)      0
 ---------------------------------------------------------------------------------------------------
                         Z-Matrix orientation:                         
 ---------------------------------------------------------------------
 Center     Atomic      Atomic             Coordinates (Angstroms)
 Number     Number       Type             X           Y           Z
 ---------------------------------------------------------------------
      1          6           0        0.000000    0.000000    0.000000
      2          6           0        0.000000    0.000000    1.382451
      3          6           0        1.174713    0.000000   -0.742391
      4          6           0       -0.890224   -0.000001   -1.231510
      5          1           0       -0.906352    0.000000    1.975840
      6          6           0        1.257004   -0.000002    1.995811
      7          6           0        2.423361   -0.000002   -0.149052
      8          6           0        0.444463    0.000006   -2.074999
      9          1           0       -1.512692   -0.887091   -1.365756
     10          1           0       -1.512698    0.887084   -1.365752
     11          6           0        2.437858   -0.000003    1.249541
     12          1           0        1.321859   -0.000002    3.076713
     13          1           0        3.348319   -0.000004   -0.712998
     14          1           0        0.590346    0.887097   -2.694839
     15          1           0        0.590349   -0.887078   -2.694848
     16          1           0        3.386298   -0.000005    1.772052
 ---------------------------------------------------------------------
                    Distance matrix (angstroms):
                    1          2          3          4          5
     1  C    0.000000
     2  C    1.382451   0.000000
     3  C    1.389638   2.427942   0.000000
     4  C    1.519577   2.761393   2.122075   0.000000
     5  H    2.173803   1.083321   3.423392   3.207391   0.000000
     6  C    2.358669   1.398667   2.739438   3.876363   2.163448
     7  C    2.427940   2.866737   1.382452   3.485909   3.949956
     8  C    2.122067   3.485902   1.519576   1.578880   4.270129
     9  H    2.222714   3.260032   2.897872   1.091978   3.510105
    10  H    2.222713   3.260030   2.897875   1.091978   3.510101
    11  C    2.739435   2.441478   2.358671   4.151113   3.422170
    12  H    3.348652   2.148915   3.821937   4.842943   2.485326
    13  H    3.423391   3.949956   2.173805   4.270141   5.033098
    14  H    2.897862   4.214231   2.222718   2.262822   4.984204
    15  H    2.897865   4.214236   2.222718   2.262821   4.984210
    16  H    3.821934   3.408636   3.348661   5.225899   4.297484
                    6          7          8          9         10
     6  C    0.000000
     7  C    2.441480   0.000000
     8  C    4.151110   2.761396   0.000000
     9  H    4.445028   4.214238   2.262835   0.000000
    10  H    4.445028   4.214243   2.262835   1.774176   0.000000
    11  C    1.396901   1.398669   3.876363   4.820119   4.820122
    12  H    1.082846   3.408646   5.225893   5.343887   5.343887
    13  H    3.422170   1.083320   3.207402   4.984220   4.984226
    14  H    4.820121   3.260049   1.091977   3.055646   2.487824
    15  H    4.820125   3.260047   1.091976   2.487824   3.055643
    16  H    2.141018   2.148927   4.842953   5.884969   5.884973
                   11         12         13         14         15
    11  C    0.000000
    12  H    2.141030   0.000000
    13  H    2.163447   4.297494   0.000000
    14  H    4.445040   5.884969   3.510136   0.000000
    15  H    4.445041   5.884974   3.510132   1.774175   0.000000
    16  H    1.082846   2.442140   2.485340   5.343913   5.343914
                   16
    16  H    0.000000
 Symmetry turned off by external request.
 Stoichiometry    C8H8
 Framework group  C1[X(C8H8)]
 Deg. of freedom    42
 Full point group                 C1      NOp   1
 Rotational constants (GHZ):           4.4826404           2.0915433           1.4521283
 1\1\GINC-BHC0108\FOpt\RB3LYP\def2TZVP\C8H8\DHANAWAY\10-Jun-2022\1\\# O
 pt=(Z-matrix, MaxStep=10) B3LYP/Def2TZVP Field=read NoSymm freq=norama
 n pop=none\\int_zmat_initalOpt\\0,1\C\C,1,R2\C,1,R3,2,A3\C,1,R4,2,A4,3
 ,D4,0\H,2,R5,1,A5,3,D5,0\C,2,R6,1,A6,5,D6,0\C,3,R7,1,A7,2,D7,0\C,3,R8,
 1,A8,7,D8,0\H,4,R9,1,A9,2,D9,0\H,4,R10,1,A10,9,D10,0\C,6,R11,2,A11,1,D
 11,0\H,6,R12,2,A12,11,D12,0\H,7,R13,3,A13,1,D13,0\H,8,R14,3,A14,1,D14,
 0\H,8,R15,3,A15,14,D15,0\H,11,R16,6,A16,2,D16,0\\R2=1.38245095\R3=1.38
 96385\R4=1.51957733\R5=1.083321\R6=1.39866699\R7=1.38245161\R8=1.51957
 564\R9=1.09197844\R10=1.0919781\R11=1.39690133\R12=1.08284589\R13=1.08
 332044\R14=1.09197661\R15=1.09197635\R16=1.08284633\A3=122.29192262\A4
 =144.13789303\A5=123.2127924\A6=116.01023525\A7=122.29170808\A8=93.569
 82055\A9=115.69507507\A10=115.69504233\A11=121.69791821\A12=119.443906
 68\A13=123.21301947\A14=115.69573521\A15=115.69571148\A16=118.85708925
 \D4=-180.00009102\D5=179.99999402\D6=-180.00008035\D7=0.00011966\D8=18
 0.00009567\D9=-64.35801528\D10=128.71569601\D11=0.00002159\D12=179.999
 9772\D13=179.99993428\D14=115.6411038\D15=128.71730452\D16=-179.999992
 6\\Version=ES64L-G16RevA.03\HF=-309.7426889\RMSD=4.623e-09\RMSF=5.361e
 -05\Dipole=0.0481285,0.0000001,0.076279\PG=C01 [X(C8H8)]\\@


 SILVERMAN'S PARADOX - IF MURPHY'S LAW CAN GO WRONG, IT WILL.
 Job cpu time:       0 days  0 hours 23 minutes  7.2 seconds.
 Elapsed time:       0 days  0 hours  1 minutes 56.3 seconds.
 File lengths (MBytes):  RWF=     52 Int=      0 D2E=      0 Chk=     32 Scr=      1
 Normal termination of Gaussian 16 at Fri Jun 10 02:47:19 2022.
 Link1:  Proceeding to internal job step number  2.
 --------------------------------------------------------------------
 #N Geom=AllCheck Guess=TCheck SCRF=Check GenChk RB3LYP/def2TZVP Freq
 --------------------------------------------------------------------
 1/8=10,10=4,29=7,30=1,38=1,40=1/1,3;
 2/12=2,15=1,40=1/2;
 3/5=44,7=101,11=2,14=-4,25=1,30=1,70=2,71=2,74=-5,116=1,140=1/1,2,3;
 4/5=101/1;
 5/5=2,38=6,98=1/2;
 8/6=4,10=90,11=11/1;
 11/6=1,8=1,9=11,15=111,16=1,31=1/1,2,10;
 10/6=1,31=1/2;
 7/8=1,10=1,25=1,30=1/1,2,3,16;
 1/8=10,10=4,30=1/3;
 99//99;
 Structure from the checkpoint file:  "checkpoint.chk"
 ------------------
 int_zmat_initalOpt
 ------------------
 Charge =  0 Multiplicity = 1
 Z-Matrix found in chk file.
 C
 C,1,R2
 C,1,R3,2,A3
 C,1,R4,2,A4,3,D4,0
 H,2,R5,1,A5,3,D5,0
 C,2,R6,1,A6,5,D6,0
 C,3,R7,1,A7,2,D7,0
 C,3,R8,1,A8,7,D8,0
 H,4,R9,1,A9,2,D9,0
 H,4,R10,1,A10,9,D10,0
 C,6,R11,2,A11,1,D11,0
 H,6,R12,2,A12,11,D12,0
 H,7,R13,3,A13,1,D13,0
 H,8,R14,3,A14,1,D14,0
 H,8,R15,3,A15,14,D15,0
 H,11,R16,6,A16,2,D16,0
      Variables:
 R2=1.38245095
 R3=1.3896385
 R4=1.51957733
 R5=1.083321
 R6=1.39866699
 R7=1.38245161
 R8=1.51957564
 R9=1.09197844
 R10=1.0919781
 R11=1.39690133
 R12=1.08284589
 R13=1.08332044
 R14=1.09197661
 R15=1.09197635
 R16=1.08284633
 A3=122.29192262
 A4=144.13789303
 A5=123.2127924
 A6=116.01023525
 A7=122.29170808
 A8=93.56982055
 A9=115.69507507
 A10=115.69504233
 A11=121.69791821
 A12=119.44390668
 A13=123.21301947
 A14=115.69573521
 A15=115.69571148
 A16=118.85708925
 D4=-180.00009102
 D5=179.99999402
 D6=-180.00008035
 D7=0.00011966
 D8=180.00009567
 D9=-64.35801528
 D10=128.71569601
 D11=0.00002159
 D12=179.9999772
 D13=179.99993428
 D14=115.6411038
 D15=128.71730452
 D16=-179.9999926
 Recover connectivity data from disk.

 GradGradGradGradGradGradGradGradGradGradGradGradGradGradGradGradGradGrad
 Berny optimization.
 Initialization pass.
                       ----------------------------
                       !    Initial Parameters    !
                       ! (Angstroms and Degrees)  !
 ----------------------                            ----------------------
 !      Name          Value   Derivative information (Atomic Units)     !
 ------------------------------------------------------------------------
 !       R2          1.3825   calculate D2E/DX2 analytically            !
 !       R3          1.3896   calculate D2E/DX2 analytically            !
 !       R4          1.5196   calculate D2E/DX2 analytically            !
 !       R5          1.0833   calculate D2E/DX2 analytically            !
 !       R6          1.3987   calculate D2E/DX2 analytically            !
 !       R7          1.3825   calculate D2E/DX2 analytically            !
 !       R8          1.5196   calculate D2E/DX2 analytically            !
 !       R9          1.092    calculate D2E/DX2 analytically            !
 !       R10         1.092    calculate D2E/DX2 analytically            !
 !       R11         1.3969   calculate D2E/DX2 analytically            !
 !       R12         1.0828   calculate D2E/DX2 analytically            !
 !       R13         1.0833   calculate D2E/DX2 analytically            !
 !       R14         1.092    calculate D2E/DX2 analytically            !
 !       R15         1.092    calculate D2E/DX2 analytically            !
 !       R16         1.0828   calculate D2E/DX2 analytically            !
 !       A3        122.2919   calculate D2E/DX2 analytically            !
 !       A4        144.1379   calculate D2E/DX2 analytically            !
 !       A5        123.2128   calculate D2E/DX2 analytically            !
 !       A6        116.0102   calculate D2E/DX2 analytically            !
 !       A7        122.2917   calculate D2E/DX2 analytically            !
 !       A8         93.5698   calculate D2E/DX2 analytically            !
 !       A9        115.6951   calculate D2E/DX2 analytically            !
 !       A10       115.695    calculate D2E/DX2 analytically            !
 !       A11       121.6979   calculate D2E/DX2 analytically            !
 !       A12       119.4439   calculate D2E/DX2 analytically            !
 !       A13       123.213    calculate D2E/DX2 analytically            !
 !       A14       115.6957   calculate D2E/DX2 analytically            !
 !       A15       115.6957   calculate D2E/DX2 analytically            !
 !       A16       118.8571   calculate D2E/DX2 analytically            !
 !       D4       -180.0001   calculate D2E/DX2 analytically            !
 !       D5        180.0      calculate D2E/DX2 analytically            !
 !       D6       -180.0001   calculate D2E/DX2 analytically            !
 !       D7          0.0001   calculate D2E/DX2 analytically            !
 !       D8        180.0001   calculate D2E/DX2 analytically            !
 !       D9        -64.358    calculate D2E/DX2 analytically            !
 !       D10       128.7157   calculate D2E/DX2 analytically            !
 !       D11         0.0      calculate D2E/DX2 analytically            !
 !       D12       180.0      calculate D2E/DX2 analytically            !
 !       D13       179.9999   calculate D2E/DX2 analytically            !
 !       D14       115.6411   calculate D2E/DX2 analytically            !
 !       D15       128.7173   calculate D2E/DX2 analytically            !
 !       D16      -180.0      calculate D2E/DX2 analytically            !
 ------------------------------------------------------------------------
 Trust Radius=1.00D-01 FncErr=1.00D-07 GrdErr=1.00D-07 EigMax=2.50D+02 EigMin=1.00D-04
 Number of steps in this run=      2 maximum allowed number of steps=      2.
 GradGradGradGradGradGradGradGradGradGradGradGradGradGradGradGradGradGrad

                          Input orientation:                          
 ---------------------------------------------------------------------
 Center     Atomic      Atomic             Coordinates (Angstroms)
 Number     Number       Type             X           Y           Z
 ---------------------------------------------------------------------
      1          6           0        0.000000    0.000000    0.000000
      2          6           0        0.000000    0.000000    1.382451
      3          6           0        1.174713    0.000000   -0.742391
      4          6           0       -0.890224   -0.000001   -1.231510
      5          1           0       -0.906352    0.000000    1.975840
      6          6           0        1.257004   -0.000002    1.995811
      7          6           0        2.423361   -0.000002   -0.149052
      8          6           0        0.444463    0.000006   -2.074999
      9          1           0       -1.512692   -0.887091   -1.365756
     10          1           0       -1.512698    0.887084   -1.365752
     11          6           0        2.437858   -0.000003    1.249541
     12          1           0        1.321859   -0.000002    3.076713
     13          1           0        3.348319   -0.000004   -0.712998
     14          1           0        0.590346    0.887097   -2.694839
     15          1           0        0.590349   -0.887078   -2.694848
     16          1           0        3.386298   -0.000005    1.772052
 ---------------------------------------------------------------------
                    Distance matrix (angstroms):
                    1          2          3          4          5
     1  C    0.000000
     2  C    1.382451   0.000000
     3  C    1.389638   2.427942   0.000000
     4  C    1.519577   2.761393   2.122075   0.000000
     5  H    2.173803   1.083321   3.423392   3.207391   0.000000
     6  C    2.358669   1.398667   2.739438   3.876363   2.163448
     7  C    2.427940   2.866737   1.382452   3.485909   3.949956
     8  C    2.122067   3.485902   1.519576   1.578880   4.270129
     9  H    2.222714   3.260032   2.897872   1.091978   3.510105
    10  H    2.222713   3.260030   2.897875   1.091978   3.510101
    11  C    2.739435   2.441478   2.358671   4.151113   3.422170
    12  H    3.348652   2.148915   3.821937   4.842943   2.485326
    13  H    3.423391   3.949956   2.173805   4.270141   5.033098
    14  H    2.897862   4.214231   2.222718   2.262822   4.984204
    15  H    2.897865   4.214236   2.222718   2.262821   4.984210
    16  H    3.821934   3.408636   3.348661   5.225899   4.297484
                    6          7          8          9         10
     6  C    0.000000
     7  C    2.441480   0.000000
     8  C    4.151110   2.761396   0.000000
     9  H    4.445028   4.214238   2.262835   0.000000
    10  H    4.445028   4.214243   2.262835   1.774176   0.000000
    11  C    1.396901   1.398669   3.876363   4.820119   4.820122
    12  H    1.082846   3.408646   5.225893   5.343887   5.343887
    13  H    3.422170   1.083320   3.207402   4.984220   4.984226
    14  H    4.820121   3.260049   1.091977   3.055646   2.487824
    15  H    4.820125   3.260047   1.091976   2.487824   3.055643
    16  H    2.141018   2.148927   4.842953   5.884969   5.884973
                   11         12         13         14         15
    11  C    0.000000
    12  H    2.141030   0.000000
    13  H    2.163447   4.297494   0.000000
    14  H    4.445040   5.884969   3.510136   0.000000
    15  H    4.445041   5.884974   3.510132   1.774175   0.000000
    16  H    1.082846   2.442140   2.485340   5.343913   5.343914
                   16
    16  H    0.000000
 Symmetry turned off by external request.
 Stoichiometry    C8H8
 Framework group  C1[X(C8H8)]
 Deg. of freedom    42
 Full point group                 C1      NOp   1
 Rotational constants (GHZ):           4.4826404           2.0915433           1.4521283
 Standard basis: def2TZVP (5D, 7F)
 The following finite field(s) will be applied:
 An electric field of             -0.0013 -0.0000 -0.0021
   296 basis functions,   472 primitive gaussians,   336 cartesian basis functions
    28 alpha electrons       28 beta electrons
       nuclear repulsion energy       333.1036249222 Hartrees.
 NAtoms=   16 NActive=   16 NUniq=   16 SFac= 1.00D+00 NAtFMM=   60 NAOKFM=F Big=F
 Integral buffers will be    131072 words long.
 Raffenetti 2 integral format.
 Two-electron integral symmetry is turned off.
 One-electron integrals computed using PRISM.
   1 Symmetry operations used in ECPInt.
 ECPInt:  NShTT=    7260 NPrTT=   21936 LenC2=    7147 LenP2D=   17612.
 LDataN:  DoStor=T MaxTD1= 6 Len=  172
 NBasis=   296 RedAO= T EigKep=  8.46D-06  NBF=   296
 NBsUse=   296 1.00D-06 EigRej= -1.00D+00 NBFU=   296
 The nuclear repulsion energy is now       332.9843184869 hartrees.
 Initial guess from the checkpoint file:  "checkpoint.chk"
 B after Tr=     0.000000    0.000000    0.000000
         Rot=    1.000000    0.000000    0.000000    0.000000 Ang=   0.00 deg.
 Requested convergence on RMS density matrix=1.00D-08 within 128 cycles.
 Requested convergence on MAX density matrix=1.00D-06.
 Requested convergence on             energy=1.00D-06.
 No special actions if energy rises.
 SCF Done:  E(RB3LYP) =  -309.742688939     A.U. after    1 cycles
            NFock=  1  Conv=0.21D-08     -V/T= 2.0054
 DoSCS=F DFT=T ScalE2(SS,OS)=  1.000000  1.000000
 Range of M.O.s used for correlation:     1   296
 NBasis=   296 NAE=    28 NBE=    28 NFC=     0 NFV=     0
 NROrb=    296 NOA=    28 NOB=    28 NVA=   268 NVB=   268

 **** Warning!!: The largest alpha MO coefficient is  0.77986137D+02

   1 Symmetry operations used in ECPInt.
 ECPInt:  NShTT=    7260 NPrTT=   21936 LenC2=    7147 LenP2D=   17612.
 LDataN:  DoStor=T MaxTD1= 7 Len=  274
 Symmetrizing basis deriv contribution to polar:
 IMax=3 JMax=2 DiffMx= 0.00D+00
 G2DrvN: will do    17 centers at a time, making    1 passes.
 Calling FoFCou, ICntrl=  3107 FMM=F I1Cent=   0 AccDes= 0.00D+00.
 End of G2Drv F.D. properties file   721 does not exist.
 End of G2Drv F.D. properties file   722 does not exist.
 End of G2Drv F.D. properties file   788 does not exist.
          IDoAtm=1111111111111111
          Differentiating once with respect to electric field.
                with respect to dipole field.
          Differentiating once with respect to nuclear coordinates.
 Keep R1 ints in memory in canonical form, NReq=985231144.
          There are    51 degrees of freedom in the 1st order CPHF.  IDoFFX=6 NUNeed=     3.
     48 vectors produced by pass  0 Test12= 1.47D-14 1.96D-09 XBig12= 1.21D+02 5.79D+00.
 AX will form    48 AO Fock derivatives at one time.
     48 vectors produced by pass  1 Test12= 1.47D-14 1.96D-09 XBig12= 2.26D+01 1.09D+00.
     48 vectors produced by pass  2 Test12= 1.47D-14 1.96D-09 XBig12= 2.42D-01 9.87D-02.
     48 vectors produced by pass  3 Test12= 1.47D-14 1.96D-09 XBig12= 6.71D-04 3.45D-03.
     48 vectors produced by pass  4 Test12= 1.47D-14 1.96D-09 XBig12= 1.39D-06 2.06D-04.
     41 vectors produced by pass  5 Test12= 1.47D-14 1.96D-09 XBig12= 1.93D-09 7.07D-06.
     13 vectors produced by pass  6 Test12= 1.47D-14 1.96D-09 XBig12= 2.41D-12 2.22D-07.
      3 vectors produced by pass  7 Test12= 1.47D-14 1.96D-09 XBig12= 2.21D-15 6.23D-09.
 InvSVY:  IOpt=1 It=  1 EMax= 8.88D-15
 Solved reduced A of dimension   297 with    51 vectors.
 Isotropic polarizability for W=    0.000000       87.87 Bohr**3.
 End of Minotr F.D. properties file   721 does not exist.
 End of Minotr F.D. properties file   722 does not exist.
 End of Minotr F.D. properties file   788 does not exist.
   1 Symmetry operations used in ECPInt.
 ECPInt:  NShTT=    7260 NPrTT=   21936 LenC2=    7147 LenP2D=   17612.
 LDataN:  DoStor=T MaxTD1= 8 Len=  415
 Calling FoFJK, ICntrl=    100127 FMM=F ISym2X=0 I1Cent= 0 IOpClX= 0 NMat=1 NMatS=1 NMatT=0.
 Full mass-weighted force constant matrix:
 Low frequencies ---   -8.2169   -7.3719   -6.6324   -0.0001    0.0002    0.0006
 Low frequencies ---  192.6344  214.3444  401.8413
 Diagonal vibrational polarizability:
        0.7689135       8.1166429       0.7385187
 Harmonic frequencies (cm**-1), IR intensities (KM/Mole), Raman scattering
 activities (A**4/AMU), depolarization ratios for plane and unpolarized
 incident light, reduced masses (AMU), force constants (mDyne/A),
 and normal coordinates:
                      1                      2                      3
                      A                      A                      A
 Frequencies --    192.6343               214.3428               401.8410
 Red. masses --      1.8851                 3.1782                 2.7545
 Frc consts  --      0.0412                 0.0860                 0.2621
 IR Inten    --      0.0002                 7.0939                 5.4725
  Atom  AN      X      Y      Z        X      Y      Z        X      Y      Z
     1   6    -0.00  -0.00  -0.00    -0.00   0.24   0.00     0.00  -0.14  -0.00
     2   6     0.00   0.09  -0.00     0.00   0.09   0.00     0.00   0.22  -0.00
     3   6     0.00   0.00  -0.00    -0.00   0.24   0.00     0.00  -0.14  -0.00
     4   6     0.00  -0.16  -0.00     0.00  -0.12  -0.00    -0.00  -0.01   0.00
     5   1     0.00   0.16   0.00     0.00   0.02   0.00    -0.00   0.60  -0.00
     6   6     0.00   0.08  -0.00     0.00  -0.13   0.00    -0.00  -0.11   0.00
     7   6    -0.00  -0.09  -0.00    -0.00   0.09  -0.00     0.00   0.22   0.00
     8   6    -0.00   0.16   0.00     0.00  -0.12  -0.00    -0.00  -0.01  -0.00
     9   1     0.28  -0.36  -0.00     0.16  -0.27   0.22    -0.08   0.05  -0.07
    10   1    -0.28  -0.36   0.00    -0.16  -0.27  -0.22     0.08   0.05   0.07
    11   6    -0.00  -0.07  -0.00    -0.00  -0.14  -0.00    -0.00  -0.11   0.00
    12   1     0.00   0.15  -0.00     0.00  -0.34   0.00    -0.00  -0.18   0.00
    13   1    -0.00  -0.16  -0.00    -0.00   0.01  -0.00     0.00   0.60   0.00
    14   1    -0.12   0.36   0.25    -0.13  -0.26  -0.24     0.03   0.05   0.10
    15   1     0.12   0.36  -0.25     0.13  -0.26   0.24    -0.03   0.05  -0.10
    16   1    -0.00  -0.14  -0.00    -0.00  -0.34  -0.00    -0.00  -0.18   0.00
                      4                      5                      6
                      A                      A                      A
 Frequencies --    414.9370               490.4840               550.5709
 Red. masses --      3.4052                 2.8882                 5.7738
 Frc consts  --      0.3454                 0.4094                 1.0312
 IR Inten    --      2.1843                 0.0000                 0.2146
  Atom  AN      X      Y      Z        X      Y      Z        X      Y      Z
     1   6     0.20   0.00  -0.07     0.00   0.20   0.00    -0.05   0.00  -0.10
     2   6    -0.00  -0.00  -0.11    -0.00   0.05   0.00     0.25  -0.00  -0.03
     3   6     0.15   0.00  -0.15    -0.00  -0.20  -0.00    -0.07  -0.00  -0.09
     4   6    -0.01   0.00   0.20     0.00   0.02   0.00    -0.14   0.00  -0.22
     5   1    -0.12  -0.00  -0.30    -0.00   0.03  -0.00     0.27   0.00   0.01
     6   6    -0.11   0.00   0.04    -0.00  -0.20  -0.00     0.16  -0.00   0.22
     7   6     0.10  -0.00   0.05     0.00  -0.05  -0.00    -0.13  -0.00   0.21
     8   6    -0.18   0.00  -0.08    -0.00  -0.02   0.00    -0.14   0.00  -0.22
     9   1    -0.04  -0.00   0.35     0.20  -0.16   0.19    -0.13   0.00  -0.24
    10   1    -0.04   0.00   0.35    -0.20  -0.16  -0.19    -0.13  -0.00  -0.24
    11   6    -0.08   0.00   0.08     0.00   0.20  -0.00     0.13  -0.00   0.24
    12   1    -0.18   0.00   0.04    -0.00  -0.46  -0.00    -0.05  -0.00   0.24
    13   1     0.22  -0.00   0.24     0.00  -0.03  -0.00    -0.11  -0.00   0.25
    14   1    -0.33  -0.00  -0.11     0.08   0.16   0.27    -0.16  -0.00  -0.22
    15   1    -0.33   0.00  -0.11    -0.08   0.16  -0.27    -0.16   0.00  -0.22
    16   1    -0.12   0.00   0.15     0.00   0.46   0.00     0.24   0.00   0.06
                      7                      8                      9
                      A                      A                      A
 Frequencies --    645.9268               716.8912               732.5365
 Red. masses --      6.3050                 3.4700                 1.1377
 Frc consts  --      1.5499                 1.0507                 0.3597
 IR Inten    --      0.1240                 0.0000                37.2213
  Atom  AN      X      Y      Z        X      Y      Z        X      Y      Z
     1   6     0.15  -0.00   0.13    -0.00   0.21   0.00    -0.00   0.01  -0.00
     2   6     0.04  -0.00   0.24    -0.00  -0.18   0.00    -0.00  -0.05  -0.00
     3   6    -0.06  -0.00  -0.19    -0.00  -0.21  -0.00    -0.00   0.01   0.00
     4   6     0.22   0.00   0.02     0.00   0.06  -0.00    -0.00   0.04   0.00
     5   1    -0.06   0.00   0.09    -0.00  -0.34   0.00     0.00   0.35   0.00
     6   6    -0.00  -0.00   0.31     0.00   0.19  -0.00    -0.00  -0.05  -0.00
     7   6    -0.20   0.00  -0.14     0.00   0.18   0.00     0.00  -0.04   0.00
     8   6     0.08   0.00  -0.21    -0.00  -0.06   0.00    -0.00   0.04  -0.00
     9   1     0.21   0.01   0.02     0.16  -0.10   0.24     0.26  -0.14  -0.01
    10   1     0.21  -0.01   0.02    -0.16  -0.10  -0.24    -0.26  -0.14   0.01
    11   6    -0.28  -0.00  -0.13    -0.00  -0.19  -0.00     0.00  -0.05   0.00
    12   1     0.27   0.00   0.29     0.00   0.29  -0.00     0.00   0.44  -0.00
    13   1    -0.10   0.00   0.02     0.00   0.34   0.00     0.00   0.35   0.00
    14   1     0.07   0.01  -0.20     0.15   0.10   0.25     0.12  -0.14  -0.23
    15   1     0.07  -0.01  -0.20    -0.15   0.10  -0.25    -0.12  -0.14   0.23
    16   1    -0.15   0.00  -0.37    -0.00  -0.29   0.00     0.00   0.44   0.00
                     10                     11                     12
                      A                      A                      A
 Frequencies --    793.2278               798.9942               867.1696
 Red. masses --      3.8556                 1.1842                 4.4337
 Frc consts  --      1.4293                 0.4454                 1.9644
 IR Inten    --      0.3710                24.5897                 0.6461
  Atom  AN      X      Y      Z        X      Y      Z        X      Y      Z
     1   6    -0.03  -0.00   0.09     0.00   0.05  -0.00     0.07   0.00  -0.06
     2   6    -0.16   0.00   0.23     0.00  -0.02   0.00     0.15  -0.00  -0.05
     3   6     0.09  -0.00   0.01     0.00   0.05  -0.00     0.09   0.00  -0.03
     4   6     0.02   0.00  -0.21    -0.00  -0.05  -0.00    -0.25   0.00  -0.13
     5   1    -0.10   0.00   0.33    -0.00   0.16  -0.00     0.00   0.00  -0.27
     6   6    -0.03  -0.00   0.02    -0.00  -0.04   0.00    -0.00   0.00   0.21
     7   6     0.27  -0.00  -0.04     0.00  -0.02  -0.00     0.11   0.00  -0.11
     8   6    -0.20   0.00  -0.07     0.00  -0.05   0.00     0.01  -0.00   0.28
     9   1     0.03   0.01  -0.33    -0.34   0.17   0.13    -0.19  -0.02  -0.27
    10   1     0.03  -0.01  -0.33     0.34   0.17  -0.13    -0.19   0.02  -0.27
    11   6     0.03   0.00  -0.01    -0.00  -0.04  -0.00    -0.19   0.00  -0.09
    12   1     0.19  -0.00   0.01     0.00   0.37   0.00     0.08  -0.00   0.20
    13   1     0.34  -0.00   0.05     0.00   0.16   0.00     0.25  -0.00   0.12
    14   1    -0.31  -0.01  -0.11    -0.26   0.17   0.25     0.16  -0.02   0.29
    15   1    -0.31   0.01  -0.11     0.26   0.17  -0.25     0.16   0.02   0.29
    16   1    -0.07  -0.00   0.18     0.00   0.37  -0.00    -0.15  -0.00  -0.16
                     13                     14                     15
                      A                      A                      A
 Frequencies --    883.3281               906.2627               942.0643
 Red. masses --      1.2642                 3.4478                 1.3604
 Frc consts  --      0.5812                 1.6684                 0.7114
 IR Inten    --      0.0000                 0.7520                 0.4070
  Atom  AN      X      Y      Z        X      Y      Z        X      Y      Z
     1   6     0.00  -0.00   0.00     0.04  -0.00  -0.01    -0.00   0.02  -0.00
     2   6    -0.00   0.09   0.00     0.07   0.00  -0.10     0.00  -0.10  -0.00
     3   6     0.00   0.00  -0.00    -0.02   0.00   0.03     0.00   0.02   0.00
     4   6    -0.00  -0.01  -0.00     0.29   0.00  -0.10     0.00  -0.00   0.00
     5   1    -0.00  -0.61  -0.00     0.04  -0.00  -0.15     0.00   0.54   0.00
     6   6     0.00   0.06   0.00     0.01   0.00  -0.03     0.00   0.07   0.00
     7   6     0.00  -0.09  -0.00    -0.12  -0.00   0.02    -0.00  -0.10  -0.00
     8   6     0.00   0.01  -0.00    -0.21  -0.00   0.22     0.00  -0.00  -0.00
     9   1    -0.04   0.02  -0.05     0.33   0.00  -0.26    -0.04   0.01   0.11
    10   1     0.04   0.02   0.05     0.33  -0.00  -0.26     0.04   0.01  -0.11
    11   6    -0.00  -0.06   0.00    -0.03  -0.00  -0.00     0.00   0.07   0.00
    12   1     0.00  -0.32   0.00    -0.10  -0.00  -0.02    -0.00  -0.40   0.00
    13   1     0.00   0.61   0.00    -0.16   0.00  -0.03     0.00   0.54   0.00
    14   1    -0.03  -0.02  -0.05    -0.38  -0.00   0.19    -0.12   0.01  -0.01
    15   1     0.03  -0.02   0.05    -0.38   0.00   0.19     0.12   0.01   0.01
    16   1     0.00   0.32   0.00     0.02   0.00  -0.10    -0.00  -0.40   0.00
                     16                     17                     18
                      A                      A                      A
 Frequencies --    983.0636              1024.4880              1049.2649
 Red. masses --      1.2679                 2.1673                 2.0819
 Frc consts  --      0.7219                 1.3402                 1.3504
 IR Inten    --      0.0000                 2.9505                 0.0000
  Atom  AN      X      Y      Z        X      Y      Z        X      Y      Z
     1   6    -0.00   0.01   0.00     0.00  -0.00  -0.02     0.00   0.14   0.00
     2   6    -0.00   0.05  -0.00    -0.13   0.00  -0.04     0.00  -0.03  -0.00
     3   6     0.00  -0.01  -0.00    -0.02   0.00  -0.00    -0.00  -0.14   0.00
     4   6    -0.00   0.00   0.00     0.01   0.00   0.01     0.00  -0.16  -0.00
     5   1    -0.00  -0.34  -0.00    -0.40   0.00  -0.45    -0.00   0.07  -0.00
     6   6    -0.00  -0.10   0.00    -0.02   0.00   0.18    -0.00  -0.00   0.00
     7   6    -0.00  -0.05  -0.00     0.02   0.00  -0.13    -0.00   0.03   0.00
     8   6     0.00  -0.00  -0.00    -0.00  -0.00   0.01    -0.00   0.17   0.00
     9   1     0.00  -0.00   0.01     0.02  -0.00   0.02    -0.36   0.13  -0.28
    10   1    -0.00  -0.00  -0.01     0.02   0.00   0.02     0.36   0.13   0.28
    11   6     0.00   0.10   0.00     0.18  -0.00   0.06     0.00   0.00  -0.00
    12   1     0.00   0.61   0.00    -0.20  -0.00   0.21    -0.00   0.05   0.00
    13   1     0.00   0.34  -0.00    -0.23   0.00  -0.56    -0.00  -0.07  -0.00
    14   1     0.01   0.00   0.01     0.01   0.00   0.02    -0.10  -0.13  -0.44
    15   1    -0.01   0.00  -0.01     0.01  -0.00   0.02     0.10  -0.13   0.44
    16   1    -0.00  -0.61  -0.00     0.27  -0.00  -0.09     0.00  -0.05  -0.00
                     19                     20                     21
                      A                      A                      A
 Frequencies --   1093.0776              1105.1157              1154.5831
 Red. masses --      1.1749                 2.8638                 1.7800
 Frc consts  --      0.8271                 2.0607                 1.3980
 IR Inten    --      0.2147                 0.2535                 1.3993
[...]
 Alpha(0;0):
               (au)            (10**-24 esu)      (10**-40 SI)
   iso        0.878715D+02      0.130212D+02      0.144881D+02
   aniso      0.512445D+02      0.759365D+01      0.844907D+01
   xx         0.100459D+03      0.148866D+02      0.165635D+02
   yx        -0.416339D-04     -0.616950D-05     -0.686450D-05
   yy         0.552214D+02      0.818297D+01      0.910478D+01
   zx         0.786424D+01      0.116536D+01      0.129664D+01
   zy        -0.515797D-04     -0.764332D-05     -0.850434D-05
   zz         0.107934D+03      0.159941D+02      0.177958D+02

 ----------------------------------------------------------------------

 Dipole orientation:
     6          0.00000000          0.00000000          0.00000000
     6         -1.39404098         -0.00000412          2.20942616
     6          2.62603547          0.00000120         -0.00192408
     6         -0.18091678          0.00000176         -2.86588022
     1         -3.44093191         -0.00000493          2.24382720
     6         -0.00360551         -0.00001061          4.45723707
     6          4.02330501         -0.00000625          2.20546318
     6          2.80273403          0.00001657         -2.86806427
     1         -1.04037004         -1.67635452         -3.70811994
     1         -1.04038573          1.67635142         -3.70811555
     6          2.63615471         -0.00001192          4.45530644
     1         -0.98991865         -0.00001403          6.25012778
     1          6.07024285         -0.00000740          2.23688046
     1          3.66091878          1.67637709         -3.71157965
     1          3.66093445         -1.67632725         -3.71159567
     1          3.62505577         -0.00001726          6.24677200

 Electric dipole moment (dipole orientation):
 (Debye = 10**-18 statcoulomb cm , SI units = C m)
                  (au)            (Debye)         (10**-30 SI)
   Tot        0.901925D-01      0.229247D+00      0.764684D+00
   x          0.000000D+00      0.000000D+00      0.000000D+00
   y          0.000000D+00      0.000000D+00      0.000000D+00
   z          0.901925D-01      0.229247D+00      0.764684D+00

 Dipole polarizability, Alpha (dipole orientation).
 (esu units = cm**3 , SI units = C**2 m**2 J**-1)
 Alpha(0;0):
               (au)            (10**-24 esu)      (10**-40 SI)
   iso        0.878715D+02      0.130212D+02      0.144881D+02
   aniso      0.512445D+02      0.759365D+01      0.844907D+01
   xx         0.954896D+02      0.141501D+02      0.157441D+02
   yx         0.106410D-04      0.157683D-05      0.175446D-05
   yy         0.552214D+02      0.818297D+01      0.910478D+01
   zx         0.126580D-01      0.187572D-02      0.208702D-02
   zy        -0.156744D-03     -0.232270D-04     -0.258436D-04
   zz         0.112904D+03      0.167306D+02      0.186153D+02

 ----------------------------------------------------------------------
 1\1\GINC-BHC0108\Freq\RB3LYP\def2TZVP\C8H8\DHANAWAY\10-Jun-2022\1\\#N 
 Geom=AllCheck Guess=TCheck SCRF=Check GenChk RB3LYP/def2TZVP Freq\\int
 _zmat_initalOpt\\0,1\C\C,1,R2\C,1,R3,2,A3\C,1,R4,2,A4,3,D4,0\H,2,R5,1,
 A5,3,D5,0\C,2,R6,1,A6,5,D6,0\C,3,R7,1,A7,2,D7,0\C,3,R8,1,A8,7,D8,0\H,4
 ,R9,1,A9,2,D9,0\H,4,R10,1,A10,9,D10,0\C,6,R11,2,A11,1,D11,0\H,6,R12,2,
 A12,11,D12,0\H,7,R13,3,A13,1,D13,0\H,8,R14,3,A14,1,D14,0\H,8,R15,3,A15
 ,14,D15,0\H,11,R16,6,A16,2,D16,0\\R2=1.38245095\R3=1.3896385\R4=1.5195
 7733\R5=1.083321\R6=1.39866699\R7=1.38245161\R8=1.51957564\R9=1.091978
 44\R10=1.0919781\R11=1.39690133\R12=1.08284589\R13=1.08332044\R14=1.09
 197661\R15=1.09197635\R16=1.08284633\A3=122.29192262\A4=144.13789303\A
 5=123.2127924\A6=116.01023525\A7=122.29170808\A8=93.56982055\A9=115.69
 507507\A10=115.69504233\A11=121.69791821\A12=119.44390668\A13=123.2130
 1947\A14=115.69573521\A15=115.69571148\A16=118.85708925\D4=-180.000091
 02\D5=179.99999402\D6=-180.00008035\D7=0.00011966\D8=180.00009567\D9=-
 64.35801528\D10=128.71569601\D11=0.00002159\D12=179.9999772\D13=179.99
 993428\D14=115.6411038\D15=128.71730452\D16=-179.9999926\\Version=ES64
 L-G16RevA.03\HF=-309.7426889\RMSD=2.053e-09\RMSF=5.362e-05\ZeroPoint=0
 .1340453\Thermal=0.1400324\Dipole=0.048128,0.0000001,0.0762784\DipoleD
 eriv=0.0665359,0.0000004,0.2724708,0.0000026,-0.0968899,0.0000027,0.00
 45413,0.0000004,-0.0652745,0.0680515,-0.0000003,-0.1130201,-0.0000005,
 -0.098332,-0.0000013,-0.0841909,-0.0000002,0.0487384,-0.148429,0.00000
 02,-0.0975676,-0.0000012,-0.0969174,-0.0000046,0.1703705,-0.0000015,0.
 149606,0.1078333,-0.000001,0.004356,-0.0000023,0.2162111,-0.0000008,0.
 0727722,0.0000002,0.0303944,-0.0545214,0.0000001,0.0890042,-0.0000003,
 0.1256224,0.0000002,0.0703198,0.,0.0150065,-0.087612,0.,-0.078526,-0.0
 000003,-0.1463173,0.0000013,0.0293753,0.0000001,0.0535287,0.1287469,-0
 .0000002,-0.0553429,-0.0000003,-0.0983137,0.0000016,-0.0841947,0.00000
 04,-0.0119585,0.0147781,-0.0000004,0.0285755,0.0000002,0.2162066,0.000
 003,-0.0398434,0.0000013,0.1235161,-0.0723927,-0.0743185,-0.0493206,-0
 .1438546,-0.0681868,-0.0507988,-0.0614866,-0.013889,-0.0046612,-0.0723
 949,0.0743191,-0.0493209,0.1438557,-0.0681862,0.0507986,-0.061486,0.01
 38885,-0.004661,0.0465965,-0.0000004,0.0931452,-0.0000006,-0.1462995,-
 0.0000006,-0.0147455,0.,-0.0806477,0.0627745,0.,-0.0174616,0.0000003,0
 .1360736,-0.0000003,-0.0107102,0.,-0.0913319,-0.0595669,0.0000002,0.06
 79281,0.0000002,0.1256223,0.,0.086616,0.,0.0200396,0.0258142,-0.019354
 9,-0.0148308,-0.0158639,-0.0681841,0.1517395,-0.00266,0.0730829,-0.102
 8798,0.025814,0.0193553,-0.0148296,0.0158643,-0.0681826,-0.1517404,-0.
 0026595,-0.0730832,-0.1028827,-0.0520279,0.0000003,-0.0652597,0.000000
 6,0.1360735,0.,-0.0720183,0.0000002,0.0234677\Polar=100.4594909,-0.000
 0416,55.2214345,7.8642371,-0.0000516,107.9335786\PG=C01 [X(C8H8)]\NIma
 g=0\\0.56502186,0.,0.15950647,-0.03015226,-0.00000023,0.76619680,-0.13
 261843,-0.00000003,0.03085860,0.69188601,0.00000010,-0.06101863,-0.000
 00009,-0.00000035,0.12990683,-0.01818429,-0.00000007,-0.34114723,-0.06
 528910,-0.00000006,0.68194415,-0.25589622,-0.00000002,0.06143862,0.037
 22749,-0.00000014,0.07257454,0.75252530,-0.00000010,-0.07889239,0.0000
 0006,-0.00000005,0.00965904,-0.00000006,-0.00000069,0.15947456,0.14941
 887,0.00000001,-0.15570152,0.02133258,0.00000004,-0.03328228,0.0589437
 1,-0.00000085,0.57870944,-0.09943492,0.,-0.04595538,0.00603657,0.00000
 002,-0.00132752,-0.08660256,-0.00000014,-0.02220984,0.54529567,0.00000
 003,-0.07095860,0.,-0.00000002,-0.00150165,-0.00000001,0.00000007,0.01
 627852,0.00000005,-0.00000080,0.57476250,-0.08295705,-0.00000007,-0.13
 697765,-0.01156009,-0.00000004,-0.00694424,-0.01551559,0.,-0.00972241,
 0.06755829,0.00000064,0.33543486,0.00446847,0.,-0.00025575,-0.25022223
 ,0.00000004,0.12431624,0.00204399,0.,-0.00153031,-0.00008423,0.,0.0005
 7443,0.26454771,0.,0.00312320,0.00000005,0.,-0.03611374,-0.00000004,0.
 ,0.00914586,0.,0.,-0.00374492,0.,-0.00000005,0.02448035,0.03022494,0.,
 -0.00961272,0.12649752,-0.00000001,-0.14296185,-0.00164885,0.,-0.00379
 660,-0.00073890,0.,0.00047705,-0.13769628,0.,0.14613611,0.03233051,0.0
 0000007,-0.08400785,-0.28034354,0.00000021,-0.03941677,-0.07166544,0.0
 0000004,0.00534048,0.00378223,0.00000004,0.00380615,-0.01835342,0.0000
 0006,-0.01261704,0.63681272,-0.00000004,0.00717606,0.00000009,0.000000
 33,-0.05936573,0.00000012,0.00000008,-0.00695258,0.,0.,0.00739360,0.,0
 .,0.00208372,0.,-0.00000067,0.13242424,-0.03613975,0.00000003,-0.03020
 261,-0.10473802,0.00000019,-0.16075966,0.00555625,-0.00000004,-0.00159
 353,0.00271904,0.,-0.00221590,0.01785938,-0.00000001,0.01179951,0.0068
 8675,-0.00000008,0.72595174,-0.05668878,0.00000006,0.02794079,-0.01718
 076,0.00000005,-0.03091852,-0.30765224,0.00000053,-0.10135778,-0.00437
 195,0.,0.00012514,0.00006231,-0.00000001,-0.00075042,0.03806748,-0.000
 00004,0.02429670,0.73439651,0.00000004,0.00965864,0.,0.00000003,-0.004
 91003,0.00000003,0.00000052,-0.06100752,0.00000026,-0.00000001,0.00861
 680,0.00000003,0.,-0.00068722,0.,-0.00000006,0.00590352,0.,-0.00000095
 ,0.12990804,-0.02329740,0.00000002,0.06064726,-0.02942331,0.00000006,-
 0.04586092,-0.05231389,0.00000034,-0.16611436,-0.00076776,0.,-0.000651
 01,-0.00049672,0.,-0.00096459,0.07238146,-0.00000007,-0.03160539,-0.04
 509286,-0.00000041,0.63943457,-0.00925816,-0.00000006,0.02122990,-0.00
 108783,-0.00000002,0.00168496,-0.08009822,0.00000023,-0.07376357,-0.10
 750046,-0.00000022,0.04689752,0.00025201,0.,0.00049670,-0.00042033,0.,
 0.00032883,0.00044265,0.00000009,-0.01421750,0.32171274,-0.00000002,0.
 01627058,0.00000013,0.00000002,0.00861616,0.00000002,0.00000014,-0.070
 95092,0.00000031,-0.00000016,-0.08569461,0.00000008,0.,-0.00061599,0.,
 -0.00000004,-0.00117134,0.,0.,-0.00150095,0.00000001,-0.00000040,0.574
 75600,0.01453773,0.00000035,-0.08706747,0.00079233,0.00000003,-0.00393
 688,-0.03675862,0.00000027,-0.15632433,0.03319338,0.00000002,-0.069454
 17,0.00007421,0.,-0.00077389,0.00253217,-0.00000002,-0.00142677,-0.003
 98437,0.00000001,-0.00135015,-0.03869252,0.00000048,0.55901019,-0.0094
 7117,-0.01001328,-0.00283927,0.00060576,-0.00006212,0.00122295,-0.0031
 7895,0.00019413,-0.00127999,-0.12501569,-0.11970366,-0.01585324,0.0001
 1394,-0.00058874,-0.00024122,-0.00074179,0.00069984,-0.00017808,-0.000
 49773,0.00191909,-0.00027571,-0.00977040,-0.01701569,-0.00336871,0.137
 36313,0.00089458,0.00327714,-0.00121906,-0.00014627,0.00030960,0.00052
 925,0.00028095,0.00030898,-0.00085289,-0.11854966,-0.22309801,-0.02424
 579,-0.00006162,-0.00004547,-0.00005489,-0.00058185,-0.00007720,-0.000
 11783,0.00034130,-0.00034638,0.00037383,0.00278154,0.00159477,0.000803
 38,0.12994950,0.23845397,-0.01347903,-0.02349380,-0.00140286,-0.000354
 85,0.00019601,0.00128607,-0.00111886,0.00093904,-0.00273138,-0.0171218
 4,-0.02697736,-0.04972783,0.00019361,-0.00064475,-0.00030512,-0.000666
 53,0.00131040,-0.00002662,-0.00020845,0.00035121,0.00111850,0.00840311
 ,0.01731342,0.00182236,0.02044269,0.02836890,0.04920574,-0.00947127,0.
 01001322,-0.00283925,0.00060577,0.00006212,0.00122296,-0.00317904,-0.0
 0019413,-0.00128005,-0.12501766,0.11970472,-0.01585295,0.00011394,0.00
 058874,-0.00024123,-0.00074180,-0.00069984,-0.00017808,-0.00049773,-0.
 00191908,-0.00027571,-0.00977050,0.01701561,-0.00336864,0.01138576,-0.
 01474722,0.00238379,0.13736538,-0.00089461,0.00327711,0.00121905,0.000
 14627,0.00030960,-0.00052925,-0.00028094,0.00030897,0.00085291,0.11855
 075,-0.22309673,0.02424504,0.00006162,-0.00004547,0.00005489,0.0005818
 6,-0.00007720,0.00011783,-0.00034132,-0.00034638,-0.00037386,-0.002781
 66,0.00159497,-0.00080340,0.01474746,-0.02173447,0.00301610,-0.1299506
 7,0.23845252,-0.01347919,0.02349374,-0.00140270,-0.00035484,-0.0001960
 1,0.00128606,-0.00111891,-0.00093903,-0.00273136,-0.01712158,0.0269765
 7,-0.04972771,0.00019361,0.00064474,-0.00030512,-0.00066652,-0.0013103
 9,-0.00002661,-0.00020846,-0.00035122,0.00111852,0.00840319,-0.0173133
 5,0.00182230,0.00238387,-0.00301617,0.00115734,0.02044246,-0.02836807,
 0.04920549,-0.01872467,0.00000001,0.03072190,-0.05624614,0.00000007,-0
 .02052555,0.02788842,0.00000008,-0.03824818,-0.00235037,-0.00000002,-0
 .00058760,-0.00295793,0.,-0.00305561,-0.26007164,0.00000026,0.11640748
 ,-0.12690580,0.00000007,-0.03182974,-0.00364065,0.00000002,-0.00080856
 ,0.00014350,0.00023685,0.00005984,0.00014350,-0.00023686,0.00005984,0.
 70419841,0.,-0.00695875,0.,0.00000006,0.00590348,-0.00000002,0.0000000
 5,0.00717074,0.00000009,0.,-0.00117147,0.,0.,0.00767509,0.,0.00000030,
 -0.06226643,-0.00000013,0.00000004,-0.05938158,0.00000015,0.00000002,0
 .00739338,0.00000002,-0.00009235,-0.00003312,-0.00020522,0.00009235,-0
 .00003312,0.00020522,-0.00000087,0.13245045,0.03050578,0.00000002,-0.0
 5453346,0.02756052,-0.00000009,0.06271408,-0.08611804,0.00000008,-0.02
 576294,0.00161438,0.00000003,0.00050241,-0.00404730,0.00000002,-0.0004
 3027,0.04923285,-0.00000005,-0.18135942,0.03349209,0.00000015,-0.31419
 583,0.00028035,-0.00000003,0.00520844,-0.00023794,-0.00035722,-0.00055
 257,-0.00023794,0.00035723,-0.00055256,0.03891048,-0.00000028,0.658571
 08,-0.00523332,0.,-0.00287585,0.00222998,0.,-0.02925389,-0.00127545,0.
 ,-0.00009922,0.00053585,0.,-0.00054131,0.00110715,0.,0.00060078,-0.060
 11093,0.00000005,-0.01692621,-0.00407141,0.00000002,0.00257244,-0.0000
 0278,0.,-0.00017004,-0.00003498,-0.00003911,-0.00008730,-0.00003498,0.
 00003911,-0.00008730,0.00516176,0.,0.02816911,0.06055516,0.,0.00710995
 ,0.,0.,0.00236804,0.00000004,0.,-0.00133167,0.,0.,0.00084401,0.,0.,-0.
 00371654,0.,0.00000004,-0.03481678,0.,0.00000002,0.00721676,0.,0.,-0.0
 0120301,0.,0.00003615,0.00001165,0.00008899,-0.00003615,0.00001165,-0.
 00008899,0.,0.00213633,-0.00000004,-0.00000005,0.02511476,-0.00307908,
 0.,0.00033243,0.00120048,0.,-0.00990712,0.00035063,0.,0.00069470,0.000
 32386,0.,0.00016126,-0.00026576,0.,0.00080997,-0.01645598,0.00000003,-
 0.33470896,0.00310670,0.,0.00040906,-0.00005480,0.,-0.00002163,-0.0000
 4909,-0.00002237,-0.00007990,-0.00004909,0.00002237,-0.00007990,-0.002
 96311,0.,-0.01332319,0.01780916,-0.00000003,0.35551596,-0.00148793,0.0
 0000002,-0.00332749,-0.00029198,0.,-0.00091877,-0.01863712,0.00000001,
 0.01924734,-0.00080627,0.,-0.00000609,-0.00003541,0.,0.00020459,0.0018
 5759,0.00000001,-0.00076703,-0.25995396,0.00000026,0.12187774,0.000438
 73,0.,-0.00049094,-0.00018453,-0.00002138,-0.00024231,-0.00018453,0.00
 002138,-0.00024231,0.00421245,0.,-0.00189420,0.00004724,0.,-0.00020148
 ,0.27471046,0.00000003,0.00914530,0.00000002,0.,-0.00068712,0.00000002
 ,-0.00000002,0.00312251,-0.00000007,0.,-0.00061593,0.,0.,-0.00178628,0
 .,0.,0.00767509,0.00000001,0.00000031,-0.03611329,-0.00000008,0.,-0.00
 374486,0.,-0.00007902,0.00004180,-0.00004586,0.00007902,0.00004180,0.0
 0004586,-0.00000002,0.00208588,0.,0.,0.00016391,0.,-0.00000029,0.02447
 805,-0.00320914,0.,-0.00026411,-0.00066511,0.,-0.00061040,-0.01123612,
 0.,0.01349196,-0.00042859,0.,0.00028428,0.00008539,0.,0.00010237,-0.00
 175918,0.,-0.00524603,0.11969669,-0.00000011,-0.13324005,0.00082339,0.
 ,-0.00004458,0.00000375,-0.00001030,-0.00011155,0.00000375,0.00001030,
 -0.00011155,0.02858296,-0.00000002,-0.01076782,0.00133676,0.,-0.000686
 11,-0.13287160,0.00000012,0.13598487,-0.00188522,-0.00076758,-0.000502
 40,0.00100852,0.00050641,0.00050734,0.00344228,0.01692024,-0.00734478,
 -0.00226756,-0.02293822,0.01196645,-0.00003259,0.00000750,-0.00017002,
 -0.00035551,0.00014570,-0.00017713,0.00082369,-0.00020235,-0.00025216,
 -0.05080552,-0.02701088,0.01814655,-0.00205333,0.00000582,0.00304959,0
 .00134920,0.00033706,-0.00126631,0.00016914,-0.00088324,-0.00023412,0.
 00006320,-0.00013915,0.00004898,-0.00020984,0.00033034,0.00003999,0.04
 957970,0.00089072,0.00030780,0.00011263,-0.00019096,-0.00034638,-0.000
 46850,0.00148539,0.00327825,-0.00028251,0.00047033,0.00159462,-0.00285
 404,0.00000015,0.00004180,0.00002373,0.00042410,-0.00003299,-0.0000607
 0,-0.00054149,0.00031088,-0.00009569,-0.02897620,-0.22309531,0.1174843
 8,0.00015148,0.00042573,0.00006607,-0.00014628,0.00088395,0.00029987,-
 0.00014323,-0.00007737,0.00057586,0.00000529,0.00002709,0.00000955,0.0
 0002286,-0.00004511,0.00007874,0.03014877,0.23845047,-0.00066430,-0.00
 058277,-0.00402449,0.00044011,-0.00188441,-0.00038750,0.00329333,0.019
 12712,-0.01430951,0.00019918,0.00793162,-0.00567273,0.00007597,0.00009
 101,-0.00026355,-0.00047516,0.00017156,-0.00005390,0.00132632,-0.00002
 651,0.00106651,0.01941304,0.11970063,-0.12392176,-0.00001553,-0.000165
 17,-0.00061183,0.00036368,0.00000479,0.00091033,0.00025471,-0.00119459
 ,-0.00093768,-0.00004209,0.00025396,-0.00002660,-0.00039557,0.00080909
 ,0.00001812,-0.02127411,-0.12954971,0.13695994,-0.00188518,0.00076758,
 -0.00050238,0.00100853,-0.00050641,0.00050734,0.00344240,-0.01692016,-
 0.00734487,-0.00226762,0.02293807,0.01196663,-0.00003259,-0.00000750,-
 0.00017003,-0.00035550,-0.00014569,-0.00017713,0.00082368,0.00020235,-
 0.00025216,-0.05080584,0.02701140,0.01814726,0.00134921,-0.00033705,-0
 .00126631,-0.00205332,-0.00000585,0.00304957,0.00016914,0.00088324,-0.
 00023411,0.00006320,0.00013915,0.00004898,-0.00020984,-0.00033034,0.00
 003999,0.00119257,-0.00360434,-0.00245821,0.04957990,-0.00089073,0.000
 30780,-0.00011262,0.00019097,-0.00034639,0.00046853,-0.00148541,0.0032
 7838,0.00028265,-0.00047035,0.00159476,0.00285415,-0.00000015,0.000041
 80,-0.00002373,-0.00042411,-0.00003299,0.00006070,0.00054149,0.0003108
 8,0.00009568,0.02897669,-0.22309294,-0.11748551,0.00014628,0.00088395,
 -0.00029987,-0.00015149,0.00042572,-0.00006605,0.00014323,-0.00007738,
 -0.00057586,-0.00000529,0.00002709,-0.00000955,-0.00002286,-0.00004510
 ,-0.00007874,0.00360445,-0.02173513,-0.01461578,-0.03014931,0.23844784
 ,-0.00066431,0.00058278,-0.00402460,0.00044013,0.00188441,-0.00038749,
 0.00329341,-0.01912696,-0.01430970,0.00019921,-0.00793155,-0.00567279,
 0.00007597,-0.00009101,-0.00026355,-0.00047517,-0.00017156,-0.00005390
 ,0.00132632,0.00002651,0.00106651,0.01941379,-0.11970171,-0.12392425,0
 .00036368,-0.00000479,0.00091033,-0.00001553,0.00016518,-0.00061183,0.
 00025471,0.00119459,-0.00093768,-0.00004209,-0.00025396,-0.00002660,-0
 .00039558,-0.00080909,0.00001812,-0.00245823,0.01461543,0.01135085,-0.
 02127494,0.12955089,0.13696279,0.00023443,0.,0.00106805,-0.00261769,0.
 00000001,0.00379807,0.00161535,0.,0.00017562,0.00006896,0.,-0.00002070
 ,-0.00099112,0.,-0.00069492,-0.01969063,0.00000004,-0.01477299,0.00320
 404,0.,0.00166328,0.00031458,0.,0.00021876,-0.00001272,-0.00000638,0.0
 0001287,-0.00001272,0.00000638,0.00001287,-0.27118912,0.00000039,-0.11
 676192,0.00100032,0.,0.00022961,0.00073495,0.,-0.00044295,-0.00001874,
 0.00000340,-0.00004137,-0.00001874,-0.00000340,-0.00004138,0.28737886,
 0.,-0.00133169,-0.00000001,0.,0.00721693,0.,0.,0.00710927,0.00000001,0
 .,-0.00120289,0.,0.,0.00016383,0.,0.00000003,0.00213700,0.00000002,0.0
 0000002,0.00236781,0.00000002,0.,0.00084408,0.,-0.00028907,0.00002705,
 0.00001673,0.00028907,0.00002705,-0.00001673,0.00000040,-0.03481612,0.
 00000019,0.,-0.00396324,0.,0.,-0.00371664,0.,-0.00006486,0.00001170,-0
 .00007084,0.00006486,0.00001170,0.00007084,-0.00000043,0.02511415,0.00
 061847,0.,-0.00081507,0.00326304,0.,-0.00104477,0.00037839,0.00000002,
 -0.00651617,-0.00013594,0.,-0.00009343,0.00084330,0.,0.00035226,0.0163
 6033,-0.00000003,0.01152804,-0.02878988,0.00000005,-0.01087862,-0.0006
 4638,0.,0.00038260,-0.00007817,-0.00000889,0.00004933,-0.00007817,0.00
 000889,0.00004933,-0.11723357,0.00000020,-0.12364258,-0.00036296,0.,0.
 00093662,0.00042368,0.,0.00118246,-0.00007962,0.00004489,-0.00009619,-
 0.00007962,-0.00004489,-0.00009619,0.12559710,-0.00000022,0.12870238\\
 -0.00013162,0.00000026,0.00008023,0.00013439,0.00000017,0.00006509,0.0
 0013037,-0.00000031,-0.00008510,0.00010350,-0.00000040,-0.00008126,-0.
 00004002,-0.00000002,-0.00003618,-0.00000480,-0.00000009,-0.00004569,0
 .00000249,-0.00000007,0.00015054,-0.00011730,0.00000045,0.00005767,-0.
 00000684,0.00000198,0.00000114,-0.00000656,-0.00000212,0.00000123,-0.0
 0003866,0.00000005,-0.00002375,-0.00001541,0.,-0.00000699,-0.00001548,
 -0.00000003,-0.00005087,0.00000350,-0.00000222,-0.00000567,0.00000346,
 0.00000232,-0.00000540,-0.00000102,0.00000001,-0.00001496\\\@


 WE HAVE SEEN THAT MAN ON THE AVERAGE DOES NOT LIVE ABOVE
 TWO-AND-TWENTY YEARS.  DURING THESE TWO AND TWENTY
 YEARS HE IS LIABLE TO TWO AND TWENTY THOUSAND EVILS,
 MANY OF WHICH ARE INCURABLE.  YET EVEN IN THIS DREADFUL STATE
 MEN STILL STRUT AND POSE ON THE STAGE OF LIFE.
 THEY MAKE LOVE AT THE RISK OF DESTRUCTION,
 INTRIGUE, CARRY ON WAR, AND FORM PROJECTS, JUST AS IF THEY
 WERE TO LIVE IN LUXURY AND HAPPINESS FOR A THOUSAND
 AGES.

                                              -- VOLTAIRE
 Job cpu time:       0 days  1 hours 14 minutes 47.6 seconds.
 Elapsed time:       0 days  0 hours  6 minutes 14.6 seconds.
 File lengths (MBytes):  RWF=    122 Int=      0 D2E=      0 Chk=     32 Scr=      1
 Normal termination of Gaussian 16 at Fri Jun 10 02:53:34 2022.
