 Entering Gaussian System, Link 0=g16
 Input=int_zmat_field_N100.gjf
 Output=int_zmat_field_N100.out
 Initial command:
 /software/gaussian/g16-a03/l1.exe "/local_scratch/11171393/Gau-20813.inp" -scrdir="/local_scratch/11171393/"
 Entering Link 1 = /software/gaussian/g16-a03/l1.exe PID=     20814.
  
 Copyright (c) 1988,1990,1992,1993,1995,1998,2003,2009,2016,
            Gaussian, Inc.  All Rights Reserved.
  
 This is part of the Gaussian(R) 16 program.  It is based on
 the Gaussian(R) 09 system (copyright 2009, Gaussian, Inc.),
 the Gaussian(R) 03 system (copyright 2003, Gaussian, Inc.),
 the Gaussian(R) 98 system (copyright 1998, Gaussian, Inc.),
 the Gaussian(R) 94 system (copyright 1995, Gaussian, Inc.),
 the Gaussian 92(TM) system (copyright 1992, Gaussian, Inc.),
 the Gaussian 90(TM) system (copyright 1990, Gaussian, Inc.),
 the Gaussian 88(TM) system (copyright 1988, Gaussian, Inc.),
 the Gaussian 86(TM) system (copyright 1986, Carnegie Mellon
 University), and the Gaussian 82(TM) system (copyright 1983,
 Carnegie Mellon University). Gaussian is a federally registered
 trademark of Gaussian, Inc.
  
 This software contains proprietary and confidential information,
 including trade secrets, belonging to Gaussian, Inc.
  
 This software is provided under written license and may be
 used, copied, transmitted, or stored only in accord with that
 written license.
  
 The following legend is applicable only to US Government
 contracts under FAR:
  
                    RESTRICTED RIGHTS LEGEND
  
 Use, reproduction and disclosure by the US Government is
 subject to restrictions as set forth in subparagraphs (a)
 and (c) of the Commercial Computer Software - Restricted
 Rights clause in FAR 52.227-19.
  
 Gaussian, Inc.
 340 Quinnipiac St., Bldg. 40, Wallingford CT 06492
  
  
 ---------------------------------------------------------------
 Warning -- This program may not be used in any manner that
 competes with the business of Gaussian, Inc. or will provide
 assistance to any competitor of Gaussian, Inc.  The licensee
 of this program is prohibited from giving any competitor of
 Gaussian, Inc. access to this program.  By using this program,
 the user acknowledges that Gaussian, Inc. is engaged in the
 business of creating and licensing software in the field of
 computational chemistry and represents and warrants to the
 licensee that it is not a competitor of Gaussian, Inc. and that
 it will not use this program in any manner prohibited above.
 ---------------------------------------------------------------
  

 Cite this work as:
 Gaussian 16, Revision A.03,
 M. J. Frisch, G. W. Trucks, H. B. Schlegel, G. E. Scuseria, 
 M. A. Robb, J. R. Cheeseman, G. Scalmani, V. Barone, 
 G. A. Petersson, H. Nakatsuji, X. Li, M. Caricato, A. V. Marenich, 
 J. Bloino, B. G. Janesko, R. Gomperts, B. Mennucci, H. P. Hratchian, 
 J. V. Ortiz, A. F. Izmaylov, J. L. Sonnenberg, D. Williams-Young, 
 F. Ding, F. Lipparini, F. Egidi, J. Goings, B. Peng, A. Petrone, 
 T. Henderson, D. Ranasinghe, V. G. Zakrzewski, J. Gao, N. Rega, 
 G. Zheng, W. Liang, M. Hada, M. Ehara, K. Toyota, R. Fukuda, 
 J. Hasegawa, M. Ishida, T. Nakajima, Y. Honda, O. Kitao, H. Nakai, 
 T. Vreven, K. Throssell, J. A. Montgomery, Jr., J. E. Peralta, 
 F. Ogliaro, M. J. Bearpark, J. J. Heyd, E. N. Brothers, K. N. Kudin, 
 V. N. Staroverov, T. A. Keith, R. Kobayashi, J. Normand, 
 K. Raghavachari, A. P. Rendell, J. C. Burant, S. S. Iyengar, 
 J. Tomasi, M. Cossi, J. M. Millam, M. Klene, C. Adamo, R. Cammi, 
 J. W. Ochterski, R. L. Martin, K. Morokuma, O. Farkas, 
 J. B. Foresman, and D. J. Fox, Gaussian, Inc., Wallingford CT, 2016.
 
 ******************************************
 Gaussian 16:  ES64L-G16RevA.03 25-Dec-2016
                10-Jun-2022 
 ******************************************
 %nprocshared=12
 Will use up to   12 processors via shared memory.
 %chk=checkpoint.chk
 %mem=12GB
 ----------------------------------------------------------------------
 # Opt=(Z-matrix, MaxStep=10) B3LYP/Def2TZVP geom=allcheckpoint guess=r
 ead Field=read NoSymm freq=noraman pop=none
 ----------------------------------------------------------------------
 1/8=10,10=7,18=40,26=3,29=7,38=1/1,3;
 2/12=2,15=1,29=3,40=1/2;
 3/5=44,7=101,11=2,14=-6,25=1,30=1,71=1,74=-5,116=-2/1,2,3;
 4/5=1/1;
 5/5=2,38=6/2;
 7/29=1,30=1/1,2,3,16;
 1/8=10,10=7,18=40,26=3/3(2);
 2/15=1,29=3/2;
 99//99;
 2/15=1,29=3/2;
 3/5=44,7=101,11=2,14=-2,25=1,30=1,71=1,74=-5/1,2,3;
 4/5=5,16=3,69=1/1;
 5/5=2,38=5/2;
 7/30=1/1,2,3,16;
 1/8=10,18=40,26=3/3(-5);
 2/15=1,29=3/2;
 99/9=1/99;
 Structure from the checkpoint file:  "checkpoint.chk"
 ------------------
 int_zmat_initalOpt
 ------------------
 Charge =  0 Multiplicity = 1
 Z-Matrix found in chk file.
 C
 C,1,R2
 C,1,R3,2,A3
 C,1,R4,2,A4,3,D4,0
 H,2,R5,1,A5,3,D5,0
 C,2,R6,1,A6,5,D6,0
 C,3,R7,1,A7,2,D7,0
 C,3,R8,1,A8,7,D8,0
 H,4,R9,1,A9,2,D9,0
 H,4,R10,1,A10,9,D10,0
 C,6,R11,2,A11,1,D11,0
 H,6,R12,2,A12,11,D12,0
 H,7,R13,3,A13,1,D13,0
 H,8,R14,3,A14,1,D14,0
 H,8,R15,3,A15,14,D15,0
 H,11,R16,6,A16,2,D16,0
      Variables:
 R2=1.38278287
 R3=1.38859477
 R4=1.52008308
 R5=1.08318254
 R6=1.39832712
 R7=1.38278123
 R8=1.52008548
 R9=1.09327775
 R10=1.09327793
 R11=1.39748461
 R12=1.08244525
 R13=1.08318359
 R14=1.09327897
 R15=1.09327913
 R16=1.0824461
 A3=122.33813523
 A4=144.05491332
 A5=123.4310557
 A6=115.9414933
 A7=122.33693176
 A8=93.60647791
 A9=115.76304047
 A10=115.76301733
 A11=121.72065017
 A12=119.50917227
 A13=123.43122538
 A14=115.76388433
 A15=115.76435769
 A16=118.7678961
 D4=-179.99909779
 D5=179.9992159
 D6=-180.00037775
 D7=0.00141869
 D8=180.00106961
 D9=-64.41919421
 D10=128.83183207
 D11=0.0002696
 D12=179.99994852
 D13=179.99997972
 D14=115.58006721
 D15=128.8344639
 D16=-180.0001059
 Recover connectivity data from disk.

 GradGradGradGradGradGradGradGradGradGradGradGradGradGradGradGradGradGrad
 Berny optimization.
 Initialization pass.
                       ----------------------------
                       !    Initial Parameters    !
                       ! (Angstroms and Degrees)  !
 ----------------------                            ----------------------
 !      Name          Value   Derivative information (Atomic Units)     !
 ------------------------------------------------------------------------
 !       R2          1.3828   estimate D2E/DX2                          !
 !       R3          1.3886   estimate D2E/DX2                          !
 !       R4          1.5201   estimate D2E/DX2                          !
 !       R5          1.0832   estimate D2E/DX2                          !
 !       R6          1.3983   estimate D2E/DX2                          !
 !       R7          1.3828   estimate D2E/DX2                          !
 !       R8          1.5201   estimate D2E/DX2                          !
 !       R9          1.0933   estimate D2E/DX2                          !
 !       R10         1.0933   estimate D2E/DX2                          !
 !       R11         1.3975   estimate D2E/DX2                          !
 !       R12         1.0824   estimate D2E/DX2                          !
 !       R13         1.0832   estimate D2E/DX2                          !
 !       R14         1.0933   estimate D2E/DX2                          !
 !       R15         1.0933   estimate D2E/DX2                          !
 !       R16         1.0824   estimate D2E/DX2                          !
 !       A3        122.3381   estimate D2E/DX2                          !
 !       A4        144.0549   estimate D2E/DX2                          !
 !       A5        123.4311   estimate D2E/DX2                          !
 !       A6        115.9415   estimate D2E/DX2                          !
 !       A7        122.3369   estimate D2E/DX2                          !
 !       A8         93.6065   estimate D2E/DX2                          !
 !       A9        115.763    estimate D2E/DX2                          !
 !       A10       115.763    estimate D2E/DX2                          !
 !       A11       121.7207   estimate D2E/DX2                          !
 !       A12       119.5092   estimate D2E/DX2                          !
 !       A13       123.4312   estimate D2E/DX2                          !
 !       A14       115.7639   estimate D2E/DX2                          !
 !       A15       115.7644   estimate D2E/DX2                          !
 !       A16       118.7679   estimate D2E/DX2                          !
 !       D4       -179.9991   estimate D2E/DX2                          !
 !       D5        179.9992   estimate D2E/DX2                          !
 !       D6       -180.0004   estimate D2E/DX2                          !
 !       D7          0.0014   estimate D2E/DX2                          !
 !       D8        180.0011   estimate D2E/DX2                          !
 !       D9        -64.4192   estimate D2E/DX2                          !
 !       D10       128.8318   estimate D2E/DX2                          !
 !       D11         0.0003   estimate D2E/DX2                          !
 !       D12       179.9999   estimate D2E/DX2                          !
 !       D13       180.0      estimate D2E/DX2                          !
 !       D14       115.5801   estimate D2E/DX2                          !
 !       D15       128.8345   estimate D2E/DX2                          !
 !       D16      -180.0001   estimate D2E/DX2                          !
 ------------------------------------------------------------------------
 Trust Radius=1.00D-01 FncErr=1.00D-07 GrdErr=1.00D-06 EigMax=2.50D+02 EigMin=1.00D-04
 Number of steps in this run=     52 maximum allowed number of steps=    100.
 GradGradGradGradGradGradGradGradGradGradGradGradGradGradGradGradGradGrad

 ---------------------------------------------------------------------------------------------------
                            Z-MATRIX (ANGSTROMS AND DEGREES)
   CD    Cent   Atom    N1       Length/X        N2       Alpha/Y        N3        Beta/Z          J
 ---------------------------------------------------------------------------------------------------
      1      1  C 
      2      2  C        1   1.382783(     1)
      3      3  C        1   1.388595(     2)      2  122.338(    16)
      4      4  C        1   1.520083(     3)      2  144.055(    17)      3 -179.999(    30)      0
      5      5  H        2   1.083183(     4)      1  123.431(    18)      3  179.999(    31)      0
      6      6  C        2   1.398327(     5)      1  115.941(    19)      5 -180.000(    32)      0
      7      7  C        3   1.382781(     6)      1  122.337(    20)      2    0.001(    33)      0
      8      8  C        3   1.520085(     7)      1   93.606(    21)      7  180.001(    34)      0
      9      9  H        4   1.093278(     8)      1  115.763(    22)      2  -64.419(    35)      0
     10     10  H        4   1.093278(     9)      1  115.763(    23)      9  128.832(    36)      0
     11     11  C        6   1.397485(    10)      2  121.721(    24)      1    0.000(    37)      0
     12     12  H        6   1.082445(    11)      2  119.509(    25)     11  180.000(    38)      0
     13     13  H        7   1.083184(    12)      3  123.431(    26)      1  180.000(    39)      0
     14     14  H        8   1.093279(    13)      3  115.764(    27)      1  115.580(    40)      0
     15     15  H        8   1.093279(    14)      3  115.764(    28)     14  128.834(    41)      0
     16     16  H       11   1.082446(    15)      6  118.768(    29)      2 -180.000(    42)      0
 ---------------------------------------------------------------------------------------------------
                         Z-Matrix orientation:                         
 ---------------------------------------------------------------------
 Center     Atomic      Atomic             Coordinates (Angstroms)
 Number     Number       Type             X           Y           Z
 ---------------------------------------------------------------------
      1          6           0        0.000000    0.000000    0.000000
      2          6           0        0.000000    0.000000    1.382783
      3          6           0        1.173232    0.000000   -0.742780
      4          6           0       -0.892303    0.000014   -1.230629
      5          1           0       -0.903969    0.000012    1.979544
      6          6           0        1.257433   -0.000025    1.994485
      7          6           0        2.423123   -0.000029   -0.151294
      8          6           0        0.442515    0.000066   -2.075714
      9          1           0       -1.515442   -0.888068   -1.365777
     10          1           0       -1.515497    0.888067   -1.365717
     11          6           0        2.438180   -0.000044    1.246956
     12          1           0        1.324791   -0.000030    3.074833
     13          1           0        3.349210   -0.000030   -0.713121
     14          1           0        0.586880    0.888177   -2.696742
     15          1           0        0.586907   -0.887963   -2.696854
     16          1           0        3.385876   -0.000062    1.769988
 ---------------------------------------------------------------------
                    Distance matrix (angstroms):
                    1          2          3          4          5
     1  C    0.000000
     2  C    1.382783   0.000000
     3  C    1.388595   2.427857   0.000000
     4  C    1.520083   2.761544   2.122365   0.000000
     5  H    2.176179   1.083183   3.424297   3.210194   0.000000
     6  C    2.357777   1.398327   2.738560   3.875917   2.161454
     7  C    2.427842   2.867911   1.382781   3.486692   3.950951
     8  C    2.122359   3.486691   1.520085   1.579844   4.272954
     9  H    2.224989   3.261872   2.899269   1.093278   3.514791
    10  H    2.224989   3.261847   2.899306   1.093278   3.514737
    11  C    2.738544   2.441961   2.357783   4.150969   3.421498
    12  H    3.348084   2.148978   3.820620   4.842779   2.483351
    13  H    3.424288   3.950952   2.176180   4.272967   5.033883
    14  H    2.899259   4.216137   2.225002   2.264135   4.987897
    15  H    2.899303   4.216204   2.225008   2.264152   4.987976
    16  H    3.820604   3.407944   3.348103   5.225564   4.294960
                    6          7          8          9         10
     6  C    0.000000
     7  C    2.441966   0.000000
     8  C    4.150977   2.761558   0.000000
     9  H    4.446214   4.216145   2.264153   0.000000
    10  H    4.446213   4.216191   2.264166   1.776135   0.000000
    11  C    1.397485   1.398331   3.875927   4.821420   4.821448
    12  H    1.082445   3.407965   5.225566   5.345517   5.345506
    13  H    3.421500   1.083184   3.210224   4.987927   4.987982
    14  H    4.821427   3.261902   1.093279   3.057168   2.488296
    15  H    4.821483   3.261900   1.093279   2.488301   3.057173
    16  H    2.140249   2.149003   4.842809   5.885957   5.885989
                   11         12         13         14         15
    11  C    0.000000
    12  H    2.140273   0.000000
    13  H    2.161452   4.294981   0.000000
    14  H    4.446234   5.885958   3.514844   0.000000
    15  H    4.446262   5.886023   3.514817   1.776140   0.000000
    16  H    1.082446   2.439404   2.483379   5.345561   5.345584
                   16
    16  H    0.000000
 Symmetry turned off by external request.
 Stoichiometry    C8H8
 Framework group  C1[X(C8H8)]
 Deg. of freedom    42
 Full point group                 C1      NOp   1
 Rotational constants (GHZ):           4.4803469           2.0915424           1.4519456
 Standard basis: def2TZVP (5D, 7F)
 The following finite field(s) will be applied:
 An electric field of             -0.0053 -0.0000 -0.0085
   296 basis functions,   472 primitive gaussians,   336 cartesian basis functions
    28 alpha electrons       28 beta electrons
       nuclear repulsion energy       333.0634328364 Hartrees.
 NAtoms=   16 NActive=   16 NUniq=   16 SFac= 1.00D+00 NAtFMM=   60 NAOKFM=F Big=F
 Integral buffers will be    131072 words long.
 Raffenetti 2 integral format.
 Two-electron integral symmetry is turned off.
 One-electron integrals computed using PRISM.
   1 Symmetry operations used in ECPInt.
 ECPInt:  NShTT=    7260 NPrTT=   21936 LenC2=    7147 LenP2D=   17610.
 LDataN:  DoStor=T MaxTD1= 6 Len=  172
 NBasis=   296 RedAO= T EigKep=  8.46D-06  NBF=   296
 NBsUse=   296 1.00D-06 EigRej= -1.00D+00 NBFU=   296
 The nuclear repulsion energy is now       332.5872241009 hartrees.
 Initial guess from the checkpoint file:  "checkpoint.chk"
 B after Tr=     0.000000    0.000000    0.000000
         Rot=    1.000000    0.000000   -0.000000    0.000000 Ang=   0.00 deg.
 Requested convergence on RMS density matrix=1.00D-08 within 128 cycles.
 Requested convergence on MAX density matrix=1.00D-06.
 Requested convergence on             energy=1.00D-06.
 No special actions if energy rises.
 SCF Done:  E(RB3LYP) =  -309.746569732     A.U. after    9 cycles
            NFock=  9  Conv=0.76D-08     -V/T= 2.0054
   1 Symmetry operations used in ECPInt.
 ECPInt:  NShTT=    7260 NPrTT=   21936 LenC2=    7147 LenP2D=   17610.
 LDataN:  DoStor=T MaxTD1= 7 Len=  274
 Calling FoFJK, ICntrl=      2127 FMM=F ISym2X=0 I1Cent= 0 IOpClX= 0 NMat=1 NMatS=1 NMatT=0.
 -------------------------------------------------------------------
 Center     Atomic                   Forces (Hartrees/Bohr)
 Number     Number              X              Y              Z
 -------------------------------------------------------------------
      1        6           0.000535745   -0.000000626   -0.000175434
      2        6          -0.000161658   -0.000001353    0.000048293
      3        6          -0.000390698    0.000001318    0.000410642
      4        6           0.000256002    0.000001444    0.000213474
      5        1           0.000107856   -0.000000045    0.000137515
      6        6          -0.000384373    0.000000193    0.000198643
      7        6           0.000114373    0.000000887   -0.000125309
      8        6           0.000082716   -0.000001418    0.000326507
      9        1          -0.000286003   -0.000366248   -0.000142022
     10        1          -0.000285927    0.000366211   -0.000143533
     11        6           0.000342991    0.000000055   -0.000261019
     12        1           0.000087346    0.000000052   -0.000054670
     13        1           0.000078895   -0.000000074    0.000154696
     14        1          -0.000005480    0.000366863   -0.000319822
     15        1          -0.000006832   -0.000367056   -0.000320332
     16        1          -0.000084953   -0.000000202    0.000052371
 -------------------------------------------------------------------
 Cartesian Forces:  Max     0.000535745 RMS     0.000219943
 -----------------------------------------------------------------------------------------------
                       Internal Coordinate Forces (Hartree/Bohr or radian)
  Cent   Atom   N1       Length/X         N2         Alpha/Y        N3         Beta/Z          J
 -----------------------------------------------------------------------------------------------
      1  C 
      2  C        1   0.000121(     1)
      3  C        1  -0.000175(     2)      2  -0.000731(    16)
      4  C        1   0.000244(     3)      2  -0.000423(    17)      3   0.000003(    30)     0
      5  H        2  -0.000014(     4)      1   0.000357(    18)      3  -0.000000(    31)     0
      6  C        2  -0.000063(     5)      1  -0.000217(    19)      5  -0.000000(    32)     0
      7  C        3   0.000187(     6)      1  -0.000208(    20)      2  -0.000005(    33)     0
      8  C        3   0.000241(     7)      1   0.000421(    21)      7  -0.000003(    34)     0
      9  H        4   0.000478(     8)      1   0.000172(    22)      2   0.000002(    35)     0
     10  H        4   0.000478(     9)      1   0.000175(    23)      9   0.000047(    36)     0
     11  C        6   0.000330(    10)      2   0.000077(    24)      1  -0.000000(    37)     0
     12  H        6  -0.000049(    11)      2   0.000185(    25)     11  -0.000000(    38)     0
     13  H        7  -0.000013(    12)      3   0.000354(    26)      1  -0.000000(    39)     0
     14  H        8   0.000479(    13)      3   0.000172(    27)      1   0.000002(    40)     0
     15  H        8   0.000479(    14)      3   0.000174(    28)     14   0.000047(    41)     0
     16  H       11  -0.000049(    15)      6  -0.000178(    29)      2   0.000000(    42)     0
 -----------------------------------------------------------------------------------------------
 Internal  Forces:  Max     0.000731105 RMS     0.000251777

 GradGradGradGradGradGradGradGradGradGradGradGradGradGradGradGradGradGrad
 Berny optimization.
 Search for a local minimum.
 Step number   1 out of a maximum of   52
 All quantities printed in internal units (Hartrees-Bohrs-Radians)
 Second derivative matrix not updated -- first step.
 ITU=  0
     Eigenvalues ---    0.02062   0.03390   0.03903   0.06219   0.07229
     Eigenvalues ---    0.08832   0.10769   0.14584   0.15818   0.16067
     Eigenvalues ---    0.19292   0.21572   0.24167   0.26297   0.28272
     Eigenvalues ---    0.30362   0.31756   0.34023   0.34287   0.34436
     Eigenvalues ---    0.34436   0.34437   0.34437   0.34611   0.35603
     Eigenvalues ---    0.35617   0.35699   0.35705   0.36142   0.44707
     Eigenvalues ---    0.46447   0.46549   0.48717   0.50893   0.53456
     Eigenvalues ---    0.63628   0.90110   1.35649   2.88463   3.02779
     Eigenvalues ---    6.63991  27.48058
 RFO step:  Lambda=-5.19887266D-06 EMin= 2.06190463D-02
 Linear search not attempted -- first point.
 Variable       Old X    -DE/DX   Delta X   Delta X   Delta X     New X
                                 (Linear)    (Quad)   (Total)
    R2        2.61308   0.00012   0.00000   0.00040   0.00040   2.61348
    R3        2.62406  -0.00017   0.00000  -0.00044  -0.00044   2.62362
    R4        2.87254   0.00024   0.00000   0.00077   0.00077   2.87331
    R5        2.04692  -0.00001   0.00000  -0.00004  -0.00004   2.04688
    R6        2.64246  -0.00006   0.00000  -0.00017  -0.00017   2.64229
    R7        2.61308   0.00019   0.00000   0.00042   0.00042   2.61350
    R8        2.87255   0.00024   0.00000   0.00077   0.00077   2.87332
    R9        2.06600   0.00048   0.00000   0.00139   0.00139   2.06738
   R10        2.06600   0.00048   0.00000   0.00139   0.00139   2.06738
   R11        2.64086   0.00033   0.00000   0.00053   0.00053   2.64140
   R12        2.04553  -0.00005   0.00000  -0.00014  -0.00014   2.04539
   R13        2.04692  -0.00001   0.00000  -0.00003  -0.00003   2.04689
   R14        2.06600   0.00048   0.00000   0.00139   0.00139   2.06739
   R15        2.06600   0.00048   0.00000   0.00139   0.00139   2.06739
   R16        2.04553  -0.00005   0.00000  -0.00014  -0.00014   2.04539
    A3        2.13520  -0.00073   0.00000   0.00017   0.00017   2.13537
    A4        2.51423  -0.00042   0.00000  -0.00032  -0.00032   2.51392
    A5        2.15428   0.00036   0.00000   0.00120   0.00120   2.15548
    A6        2.02356  -0.00022   0.00000  -0.00026  -0.00026   2.02330
    A7        2.13518  -0.00021   0.00000   0.00018   0.00018   2.13536
    A8        1.63374   0.00042   0.00000   0.00013   0.00013   1.63388
    A9        2.02045   0.00017   0.00000   0.00075   0.00075   2.02120
   A10        2.02045   0.00017   0.00000   0.00077   0.00077   2.02122
   A11        2.12443   0.00008   0.00000   0.00009   0.00009   2.12452
   A12        2.08583   0.00019   0.00000   0.00045   0.00045   2.08628
   A13        2.15428   0.00035   0.00000   0.00121   0.00121   2.15549
   A14        2.02046   0.00017   0.00000   0.00077   0.00077   2.02123
   A15        2.02047   0.00017   0.00000   0.00077   0.00077   2.02124
   A16        2.07289  -0.00018   0.00000  -0.00055  -0.00055   2.07234
    D4       -3.14158   0.00000   0.00000   0.00003   0.00003  -3.14155
    D5        3.14158  -0.00000   0.00000   0.00001   0.00001   3.14159
    D6       -3.14160  -0.00000   0.00000   0.00001   0.00001  -3.14159
    D7        0.00002  -0.00000   0.00000  -0.00003  -0.00003  -0.00001
    D8        3.14161  -0.00000   0.00000  -0.00003  -0.00003   3.14158
    D9       -1.12433   0.00000   0.00000  -0.00047  -0.00047  -1.12479
   D10        2.24854   0.00005   0.00000   0.00105   0.00105   2.24959
   D11        0.00000  -0.00000   0.00000  -0.00000  -0.00000   0.00000
   D12        3.14159  -0.00000   0.00000  -0.00000  -0.00000   3.14159
   D13        3.14159  -0.00000   0.00000  -0.00000  -0.00000   3.14159
   D14        2.01725   0.00000   0.00000  -0.00044  -0.00044   2.01681
   D15        2.24859   0.00005   0.00000   0.00106   0.00106   2.24964
   D16       -3.14159   0.00000   0.00000   0.00000   0.00000  -3.14159
         Item               Value     Threshold  Converged?
 Maximum Force            0.000731     0.000450     NO 
 RMS     Force            0.000252     0.000300     YES
 Maximum Displacement     0.001391     0.001800     YES
 RMS     Displacement     0.000663     0.001200     YES
 Predicted change in Energy=-2.599436D-06
 GradGradGradGradGradGradGradGradGradGradGradGradGradGradGradGradGradGrad

 ---------------------------------------------------------------------------------------------------
                            Z-MATRIX (ANGSTROMS AND DEGREES)
   CD    Cent   Atom    N1       Length/X        N2       Alpha/Y        N3        Beta/Z          J
 ---------------------------------------------------------------------------------------------------
      1      1  C 
      2      2  C        1   1.382996(     1)
      3      3  C        1   1.388362(     2)      2  122.348(    16)
      4      4  C        1   1.520490(     3)      2  144.037(    17)      3 -179.997(    30)      0
      5      5  H        2   1.083164(     4)      1  123.500(    18)      3  180.000(    31)      0
      6      6  C        2   1.398237(     5)      1  115.927(    19)      5 -180.000(    32)      0
      7      7  C        3   1.383003(     6)      1  122.347(    20)      2   -0.000(    33)      0
      8      8  C        3   1.520495(     7)      1   93.614(    21)      7  179.999(    34)      0
      9      9  H        4   1.094012(     8)      1  115.806(    22)      2  -64.446(    35)      0
     10     10  H        4   1.094012(     9)      1  115.807(    23)      9  128.892(    36)      0
     11     11  C        6   1.397767(    10)      2  121.726(    24)      1    0.000(    37)      0
     12     12  H        6   1.082373(    11)      2  119.535(    25)     11  180.000(    38)      0
     13     13  H        7   1.083166(    12)      3  123.501(    26)      1  180.000(    39)      0
     14     14  H        8   1.094015(    13)      3  115.808(    27)      1  115.555(    40)      0
     15     15  H        8   1.094015(    14)      3  115.809(    28)     14  128.895(    41)      0
     16     16  H       11   1.082374(    15)      6  118.736(    29)      2 -180.000(    42)      0
 ---------------------------------------------------------------------------------------------------
                         Z-Matrix orientation:                         
 ---------------------------------------------------------------------
 Center     Atomic      Atomic             Coordinates (Angstroms)
 Number     Number       Type             X           Y           Z
 ---------------------------------------------------------------------
      1          6           0        0.000000    0.000000    0.000000
      2          6           0        0.000000    0.000000    1.382996
      3          6           0        1.172911    0.000000   -0.742850
      4          6           0       -0.892931    0.000041   -1.230676
      5          1           0       -0.903238    0.000007    1.980830
      6          6           0        1.257511    0.000000    1.994334
      7          6           0        2.423208    0.000009   -0.151703
      8          6           0        0.441954   -0.000025   -2.076120
      9          1           0       -1.516533   -0.888493   -1.366652
     10          1           0       -1.516458    0.888626   -1.366668
     11          6           0        2.438373    0.000005    1.246460
     12          1           0        1.325630   -0.000001    3.074562
     13          1           0        3.349765    0.000008   -0.712722
     14          1           0        0.585522    0.888516   -2.698013
     15          1           0        0.585468   -0.888609   -2.697965
     16          1           0        3.385802    0.000003    1.769825
 ---------------------------------------------------------------------
                    Distance matrix (angstroms):
                    1          2          3          4          5
     1  C    0.000000
     2  C    1.382996   0.000000
     3  C    1.388362   2.427951   0.000000
     4  C    1.520490   2.761994   2.122658   0.000000
     5  H    2.177045   1.083164   3.424738   3.211522   0.000000
     6  C    2.357690   1.398237   2.738492   3.876221   2.160792
     7  C    2.427952   2.868317   1.383003   3.487257   3.951322
     8  C    2.122639   3.487235   1.520495   1.580093   4.274153
     9  H    2.226439   3.263412   2.900286   1.094012   3.517271
    10  H    2.226451   3.263427   2.900261   1.094012   3.517304
    11  C    2.738490   2.442193   2.357700   4.151360   3.421355
    12  H    3.348168   2.149114   3.820466   4.843252   2.482761
    13  H    3.424748   3.951324   2.177062   4.274195   5.034209
    14  H    2.900270   4.217456   2.226465   2.264572   4.989732
    15  H    2.900244   4.217422   2.226475   2.264575   4.989690
    16  H    3.820463   3.407828   3.348197   5.225951   4.294228
                    6          7          8          9         10
     6  C    0.000000
     7  C    2.442197   0.000000
     8  C    4.151353   2.762019   0.000000
     9  H    4.447580   4.217475   2.264595   0.000000
    10  H    4.447572   4.217434   2.264597   1.777119   0.000000
    11  C    1.397767   1.398245   3.876239   4.822766   4.822735
    12  H    1.082373   3.407853   5.225936   5.347120   5.347116
    13  H    3.421357   1.083166   3.211575   4.989781   4.989731
    14  H    4.822774   3.263469   1.094015   3.057600   2.488132
    15  H    4.822753   3.263492   1.094015   2.488132   3.057615
    16  H    2.140100   2.149153   4.843298   5.887258   5.887224
                   11         12         13         14         15
    11  C    0.000000
    12  H    2.140130   0.000000
    13  H    2.160793   4.294257   0.000000
    14  H    4.447625   5.887261   3.517365   0.000000
    15  H    4.447626   5.887235   3.517409   1.777125   0.000000
    16  H    1.082374   2.438575   2.482809   5.347205   5.347210
                   16
    16  H    0.000000
 Symmetry turned off by external request.
 Stoichiometry    C8H8
 Framework group  C1[X(C8H8)]
 Deg. of freedom    42
 Full point group                 C1      NOp   1
 Rotational constants (GHZ):           4.4794806           2.0909520           1.4515996
 Standard basis: def2TZVP (5D, 7F)
 The following finite field(s) will be applied:
 An electric field of             -0.0053 -0.0000 -0.0085
   296 basis functions,   472 primitive gaussians,   336 cartesian basis functions
    28 alpha electrons       28 beta electrons
       nuclear repulsion energy       333.0205738659 Hartrees.
 NAtoms=   16 NActive=   16 NUniq=   16 SFac= 1.00D+00 NAtFMM=   60 NAOKFM=F Big=F
 Integral buffers will be    131072 words long.
 Raffenetti 2 integral format.
 Two-electron integral symmetry is turned off.
 One-electron integrals computed using PRISM.
   1 Symmetry operations used in ECPInt.
 ECPInt:  NShTT=    7260 NPrTT=   21936 LenC2=    7147 LenP2D=   17608.
 LDataN:  DoStor=T MaxTD1= 6 Len=  172
 NBasis=   296 RedAO= T EigKep=  8.46D-06  NBF=   296
 NBsUse=   296 1.00D-06 EigRej= -1.00D+00 NBFU=   296
 The nuclear repulsion energy is now       332.5446415987 hartrees.
 Initial guess from the checkpoint file:  "checkpoint.chk"
 B after Tr=    -0.000331    0.000008   -0.000109
         Rot=    1.000000    0.000011   -0.000086    0.000000 Ang=   0.01 deg.
 Requested convergence on RMS density matrix=1.00D-08 within 128 cycles.
 Requested convergence on MAX density matrix=1.00D-06.
 Requested convergence on             energy=1.00D-06.
 No special actions if energy rises.
 SCF Done:  E(RB3LYP) =  -309.746572574     A.U. after    7 cycles
            NFock=  7  Conv=0.95D-08     -V/T= 2.0054
   1 Symmetry operations used in ECPInt.
 ECPInt:  NShTT=    7260 NPrTT=   21936 LenC2=    7147 LenP2D=   17608.
 LDataN:  DoStor=T MaxTD1= 7 Len=  274
 Calling FoFJK, ICntrl=      2127 FMM=F ISym2X=0 I1Cent= 0 IOpClX= 0 NMat=1 NMatS=1 NMatT=0.
 -------------------------------------------------------------------
 Center     Atomic                   Forces (Hartrees/Bohr)
 Number     Number              X              Y              Z
 -------------------------------------------------------------------
      1        6           0.000127822    0.000004273   -0.000153026
      2        6          -0.000025898    0.000000735    0.000038408
      3        6          -0.000192918   -0.000003128    0.000047574
      4        6           0.000004929   -0.000005519    0.000079209
      5        1           0.000034860   -0.000000128    0.000026981
      6        6          -0.000173553   -0.000000302    0.000041086
      7        6           0.000040828   -0.000001445   -0.000004837
      8        6           0.000068146    0.000004862    0.000038828
      9        1          -0.000022372   -0.000001151   -0.000001170
     10        1          -0.000020567    0.000001261    0.000000339
     11        6           0.000108004    0.000000205   -0.000140088
     12        1           0.000037765   -0.000000127   -0.000002907
     13        1           0.000008757    0.000000119    0.000040994
     14        1           0.000009977    0.000001673   -0.000020971
     15        1           0.000010304   -0.000001647   -0.000018938
     16        1          -0.000016085    0.000000317    0.000028516
 -------------------------------------------------------------------
 Cartesian Forces:  Max     0.000192918 RMS     0.000058958
 -----------------------------------------------------------------------------------------------
                       Internal Coordinate Forces (Hartree/Bohr or radian)
  Cent   Atom   N1       Length/X         N2         Alpha/Y        N3         Beta/Z          J
 -----------------------------------------------------------------------------------------------
      1  C 
      2  C        1  -0.000008(     1)
      3  C        1  -0.000091(     2)      2  -0.000455(    16)
      4  C        1  -0.000041(     3)      2  -0.000231(    17)      3  -0.000006(    30)     0
      5  H        2  -0.000014(     4)      1   0.000085(    18)      3   0.000002(    31)     0
      6  C        2  -0.000072(     5)      1  -0.000253(    19)      5   0.000002(    32)     0
      7  C        3   0.000060(     6)      1  -0.000111(    20)      2   0.000014(    33)     0
      8  C        3  -0.000042(     7)      1   0.000237(    21)      7   0.000011(    34)     0
      9  H        4   0.000014(     8)      1   0.000019(    22)      2   0.000001(    35)     0
     10  H        4   0.000013(     9)      1   0.000014(    23)      9  -0.000027(    36)     0
     11  C        6   0.000137(    10)      2  -0.000052(    24)      1   0.000001(    37)     0
     12  H        6  -0.000001(    11)      2   0.000077(    25)     11   0.000000(    38)     0
     13  H        7  -0.000014(    12)      3   0.000081(    26)      1   0.000000(    39)     0
     14  H        8   0.000015(    13)      3   0.000017(    27)      1   0.000001(    40)     0
     15  H        8   0.000013(    14)      3   0.000013(    28)     14  -0.000029(    41)     0
     16  H       11  -0.000000(    15)      6  -0.000067(    29)      2  -0.000001(    42)     0
 -----------------------------------------------------------------------------------------------
 Internal  Forces:  Max     0.000454511 RMS     0.000105004

 GradGradGradGradGradGradGradGradGradGradGradGradGradGradGradGradGradGrad
 Berny optimization.
 Search for a local minimum.
 Step number   2 out of a maximum of   52
 All quantities printed in internal units (Hartrees-Bohrs-Radians)
 Update second derivatives using D2CorN and points    1    2
 DE= -2.84D-06 DEPred=-2.60D-06 R= 1.09D+00
 TightC=F SS=  1.41D+00  RLast= 4.29D-03 DXNew= 1.6818D-01 1.2881D-02
 Trust test= 1.09D+00 RLast= 4.29D-03 DXMaxT set to 1.00D-01
 ITU=  1  0
     Eigenvalues ---    0.02063   0.03375   0.03902   0.06219   0.07231
     Eigenvalues ---    0.08831   0.10899   0.14585   0.15818   0.16069
     Eigenvalues ---    0.19292   0.21307   0.24167   0.25178   0.28228
     Eigenvalues ---    0.30693   0.31747   0.33254   0.34149   0.34386
     Eigenvalues ---    0.34436   0.34437   0.34437   0.34750   0.35607
     Eigenvalues ---    0.35624   0.35701   0.35707   0.36125   0.44707
     Eigenvalues ---    0.46254   0.46549   0.48427   0.50897   0.53379
     Eigenvalues ---    0.63589   0.90089   1.35649   2.88436   3.02779
     Eigenvalues ---    6.63853  27.47994
 RFO step:  Lambda=-1.87841550D-07 EMin= 2.06304785D-02
 Quartic linear search produced a step of  0.10401.
 Variable       Old X    -DE/DX   Delta X   Delta X   Delta X     New X
                                 (Linear)    (Quad)   (Total)
    R2        2.61348  -0.00001   0.00004   0.00008   0.00012   2.61360
    R3        2.62362  -0.00009  -0.00005  -0.00019  -0.00024   2.62338
    R4        2.87331  -0.00004   0.00008  -0.00023  -0.00015   2.87316
    R5        2.04688  -0.00001  -0.00000  -0.00004  -0.00004   2.04684
    R6        2.64229  -0.00007  -0.00002  -0.00012  -0.00014   2.64215
    R7        2.61350   0.00006   0.00004   0.00006   0.00011   2.61360
    R8        2.87332  -0.00004   0.00008  -0.00023  -0.00015   2.87317
    R9        2.06738   0.00001   0.00014  -0.00008   0.00006   2.06745
   R10        2.06738   0.00001   0.00014  -0.00008   0.00006   2.06744
   R11        2.64140   0.00014   0.00006   0.00018   0.00024   2.64163
   R12        2.04539  -0.00000  -0.00001   0.00001  -0.00000   2.04539
   R13        2.04689  -0.00001  -0.00000  -0.00004  -0.00004   2.04685
   R14        2.06739   0.00001   0.00014  -0.00008   0.00007   2.06745
   R15        2.06739   0.00001   0.00014  -0.00008   0.00006   2.06745
   R16        2.04539  -0.00000  -0.00001   0.00001  -0.00000   2.04539
    A3        2.13537  -0.00045   0.00002   0.00007   0.00009   2.13546
    A4        2.51392  -0.00023  -0.00003  -0.00014  -0.00017   2.51375
    A5        2.15548   0.00009   0.00012   0.00023   0.00036   2.15583
    A6        2.02330  -0.00025  -0.00003  -0.00009  -0.00012   2.02318
    A7        2.13536  -0.00011   0.00002   0.00005   0.00007   2.13544
    A8        1.63388   0.00024   0.00001   0.00008   0.00009   1.63397
    A9        2.02120   0.00002   0.00008  -0.00001   0.00007   2.02127
   A10        2.02122   0.00001   0.00008  -0.00004   0.00004   2.02125
   A11        2.12452  -0.00005   0.00001   0.00002   0.00003   2.12455
   A12        2.08628   0.00008   0.00005   0.00017   0.00022   2.08650
   A13        2.15549   0.00008   0.00013   0.00022   0.00034   2.15584
   A14        2.02123   0.00002   0.00008  -0.00002   0.00005   2.02128
   A15        2.02124   0.00001   0.00008  -0.00004   0.00004   2.02129
   A16        2.07234  -0.00007  -0.00006  -0.00018  -0.00024   2.07210
    D4       -3.14155  -0.00001   0.00000  -0.00008  -0.00008  -3.14162
    D5        3.14159   0.00000   0.00000  -0.00000  -0.00000   3.14158
    D6       -3.14159   0.00000   0.00000  -0.00003  -0.00003  -3.14161
    D7       -0.00001   0.00001  -0.00000   0.00006   0.00006   0.00005
    D8        3.14158   0.00001  -0.00000   0.00006   0.00006   3.14165
    D9       -1.12479   0.00000  -0.00005  -0.00000  -0.00005  -1.12484
   D10        2.24959  -0.00003   0.00011  -0.00021  -0.00010   2.24949
   D11        0.00000   0.00000  -0.00000  -0.00000  -0.00000   0.00000
   D12        3.14159   0.00000  -0.00000   0.00001   0.00001   3.14160
   D13        3.14159   0.00000  -0.00000   0.00000   0.00000   3.14160
   D14        2.01681   0.00000  -0.00005  -0.00007  -0.00012   2.01669
   D15        2.24964  -0.00003   0.00011  -0.00022  -0.00011   2.24954
   D16       -3.14159  -0.00000   0.00000  -0.00001  -0.00001  -3.14160
         Item               Value     Threshold  Converged?
 Maximum Force            0.000455     0.000450     NO 
 RMS     Force            0.000105     0.000300     YES
 Maximum Displacement     0.000358     0.001800     YES
 RMS     Displacement     0.000129     0.001200     YES
 Predicted change in Energy=-1.097331D-07
 GradGradGradGradGradGradGradGradGradGradGradGradGradGradGradGradGradGrad

 ---------------------------------------------------------------------------------------------------
                            Z-MATRIX (ANGSTROMS AND DEGREES)
   CD    Cent   Atom    N1       Length/X        N2       Alpha/Y        N3        Beta/Z          J
 ---------------------------------------------------------------------------------------------------
      1      1  C 
      2      2  C        1   1.383060(     1)
      3      3  C        1   1.388235(     2)      2  122.353(    16)
      4      4  C        1   1.520411(     3)      2  144.027(    17)      3 -180.002(    30)      0
      5      5  H        2   1.083141(     4)      1  123.520(    18)      3  179.999(    31)      0
      6      6  C        2   1.398166(     5)      1  115.920(    19)      5 -180.001(    32)      0
      7      7  C        3   1.383060(     6)      1  122.351(    20)      2    0.003(    33)      0
      8      8  C        3   1.520415(     7)      1   93.619(    21)      7  180.003(    34)      0
      9      9  H        4   1.094046(     8)      1  115.810(    22)      2  -64.449(    35)      0
     10     10  H        4   1.094044(     9)      1  115.809(    23)      9  128.886(    36)      0
     11     11  C        6   1.397891(    10)      2  121.728(    24)      1    0.000(    37)      0
     12     12  H        6   1.082372(    11)      2  119.547(    25)     11  180.000(    38)      0
     13     13  H        7   1.083144(    12)      3  123.520(    26)      1  180.000(    39)      0
     14     14  H        8   1.094050(    13)      3  115.811(    27)      1  115.548(    40)      0
     15     15  H        8   1.094048(    14)      3  115.811(    28)     14  128.889(    41)      0
     16     16  H       11   1.082373(    15)      6  118.722(    29)      2 -180.000(    42)      0
 ---------------------------------------------------------------------------------------------------
                         Z-Matrix orientation:                         
 ---------------------------------------------------------------------
 Center     Atomic      Atomic             Coordinates (Angstroms)
 Number     Number       Type             X           Y           Z
 ---------------------------------------------------------------------
      1          6           0        0.000000    0.000000    0.000000
      2          6           0        0.000000    0.000000    1.383060
      3          6           0        1.172736    0.000000   -0.742890
      4          6           0       -0.893095   -0.000028   -1.230460
      5          1           0       -0.903005    0.000009    1.981204
      6          6           0        1.257521   -0.000040    1.994214
      7          6           0        2.423181   -0.000057   -0.151923
      8          6           0        0.441817    0.000154   -2.076088
      9          1           0       -1.516662   -0.888630   -1.366423
     10          1           0       -1.516855    0.888455   -1.366305
     11          6           0        2.438420   -0.000076    1.246164
     12          1           0        1.326007   -0.000048    3.074417
     13          1           0        3.349820   -0.000055   -0.712763
     14          1           0        0.585320    0.888802   -2.697905
     15          1           0        0.585423   -0.888291   -2.698170
     16          1           0        3.385770   -0.000103    1.769670
 ---------------------------------------------------------------------
                    Distance matrix (angstroms):
                    1          2          3          4          5
     1  C    0.000000
     2  C    1.383060   0.000000
     3  C    1.388235   2.427956   0.000000
     4  C    1.520411   2.761903   2.122589   0.000000
     5  H    2.177289   1.083141   3.424820   3.211680   0.000000
     6  C    2.357594   1.398166   2.738416   3.876038   2.160566
     7  C    2.427939   2.868445   1.383060   3.487252   3.951423
     8  C    2.122579   3.487249   1.520415   1.580213   4.274362
     9  H    2.226441   3.263370   2.900228   1.094046   3.517508
    10  H    2.226431   3.263313   2.900328   1.094044   3.517381
    11  C    2.738396   2.442259   2.357602   4.151223   3.421316
    12  H    3.348184   2.149182   3.820383   4.843179   2.482662
    13  H    3.424810   3.951426   2.177292   4.274381   5.034281
    14  H    2.900217   4.217445   2.226457   2.264756   4.989902
    15  H    2.900327   4.217608   2.226458   2.264773   4.990094
    16  H    3.820362   3.407771   3.348204   5.225845   4.293989
                    6          7          8          9         10
     6  C    0.000000
     7  C    2.442266   0.000000
     8  C    4.151232   2.761922   0.000000
     9  H    4.447422   4.217456   2.264774   0.000000
    10  H    4.447435   4.217590   2.264788   1.777085   0.000000
    11  C    1.397891   1.398170   3.876052   4.822635   4.822726
    12  H    1.082372   3.407794   5.225849   5.347093   5.347085
    13  H    3.421321   1.083144   3.211719   4.989938   4.990100
    14  H    4.822641   3.263407   1.094050   3.057848   2.488432
    15  H    4.822776   3.263385   1.094048   2.488436   3.057820
    16  H    2.140062   2.149208   4.843213   5.887138   5.887241
                   11         12         13         14         15
    11  C    0.000000
    12  H    2.140087   0.000000
    13  H    2.160566   4.294013   0.000000
    14  H    4.447444   5.887136   3.517572   0.000000
    15  H    4.447503   5.887291   3.517483   1.777092   0.000000
    16  H    1.082373   2.438235   2.482693   5.347139   5.347187
                   16
    16  H    0.000000
 Symmetry turned off by external request.
 Stoichiometry    C8H8
 Framework group  C1[X(C8H8)]
 Deg. of freedom    42
 Full point group                 C1      NOp   1
 Rotational constants (GHZ):           4.4791782           2.0911057           1.4516408
 Standard basis: def2TZVP (5D, 7F)
 The following finite field(s) will be applied:
 An electric field of             -0.0053 -0.0000 -0.0085
   296 basis functions,   472 primitive gaussians,   336 cartesian basis functions
    28 alpha electrons       28 beta electrons
       nuclear repulsion energy       333.0226758298 Hartrees.
 NAtoms=   16 NActive=   16 NUniq=   16 SFac= 1.00D+00 NAtFMM=   60 NAOKFM=F Big=F
 Integral buffers will be    131072 words long.
 Raffenetti 2 integral format.
 Two-electron integral symmetry is turned off.
 One-electron integrals computed using PRISM.
   1 Symmetry operations used in ECPInt.
 ECPInt:  NShTT=    7260 NPrTT=   21936 LenC2=    7147 LenP2D=   17609.
 LDataN:  DoStor=T MaxTD1= 6 Len=  172
 NBasis=   296 RedAO= T EigKep=  8.46D-06  NBF=   296
 NBsUse=   296 1.00D-06 EigRej= -1.00D+00 NBFU=   296
 The nuclear repulsion energy is now       332.5467984884 hartrees.
 Initial guess from the checkpoint file:  "checkpoint.chk"
 B after Tr=    -0.000097   -0.000023    0.000079
         Rot=    1.000000   -0.000020   -0.000043   -0.000003 Ang=  -0.01 deg.
 Requested convergence on RMS density matrix=1.00D-08 within 128 cycles.
 Requested convergence on MAX density matrix=1.00D-06.
 Requested convergence on             energy=1.00D-06.
 No special actions if energy rises.
 SCF Done:  E(RB3LYP) =  -309.746572717     A.U. after    6 cycles
            NFock=  6  Conv=0.70D-08     -V/T= 2.0054
   1 Symmetry operations used in ECPInt.
 ECPInt:  NShTT=    7260 NPrTT=   21936 LenC2=    7147 LenP2D=   17609.
 LDataN:  DoStor=T MaxTD1= 7 Len=  274
 Calling FoFJK, ICntrl=      2127 FMM=F ISym2X=0 I1Cent= 0 IOpClX= 0 NMat=1 NMatS=1 NMatT=0.
 -------------------------------------------------------------------
 Center     Atomic                   Forces (Hartrees/Bohr)
 Number     Number              X              Y              Z
 -------------------------------------------------------------------
      1        6           0.000037153   -0.000006420   -0.000055581
      2        6           0.000011658   -0.000003285    0.000026981
      3        6          -0.000069001    0.000006742    0.000011924
      4        6          -0.000010659    0.000009591    0.000020202
      5        1           0.000003572    0.000000239    0.000002317
      6        6          -0.000063357    0.000000498    0.000012686
      7        6           0.000020615    0.000003330    0.000021036
      8        6           0.000022052   -0.000009384    0.000001083
      9        1           0.000000940    0.000007221    0.000001003
     10        1          -0.000001984   -0.000006695   -0.000002564
     11        6           0.000037591   -0.000000348   -0.000050841
     12        1           0.000015153    0.000000272   -0.000000441
     13        1           0.000000787   -0.000000318    0.000003084
     14        1           0.000000955   -0.000007279    0.000001160
     15        1          -0.000000577    0.000006458   -0.000002604
     16        1          -0.000004899   -0.000000621    0.000010555
 -------------------------------------------------------------------
 Cartesian Forces:  Max     0.000069001 RMS     0.000021007
 -----------------------------------------------------------------------------------------------
                       Internal Coordinate Forces (Hartree/Bohr or radian)
  Cent   Atom   N1       Length/X         N2         Alpha/Y        N3         Beta/Z          J
 -----------------------------------------------------------------------------------------------
      1  C 
      2  C        1   0.000001(     1)
      3  C        1  -0.000040(     2)      2  -0.000140(    16)
      4  C        1  -0.000008(     3)      2  -0.000057(    17)      3   0.000013(    30)     0
      5  H        2  -0.000002(     4)      1   0.000008(    18)      3  -0.000004(    31)     0
      6  C        2  -0.000026(     5)      1  -0.000100(    19)      5  -0.000004(    32)     0
      7  C        3   0.000030(     6)      1  -0.000039(    20)      2  -0.000030(    33)     0
      8  C        3  -0.000010(     7)      1   0.000057(    21)      7  -0.000023(    34)     0
      9  H        4  -0.000007(     8)      1   0.000003(    22)      2  -0.000000(    35)     0
     10  H        4  -0.000004(     9)      1   0.000011(    23)      9  -0.000006(    36)     0
     11  C        6   0.000049(    10)      2  -0.000020(    24)      1  -0.000003(    37)     0
     12  H        6   0.000001(    11)      2   0.000031(    25)     11  -0.000000(    38)     0
     13  H        7  -0.000001(    12)      3   0.000006(    26)      1  -0.000001(    39)     0
     14  H        8  -0.000006(    13)      3   0.000003(    27)      1  -0.000000(    40)     0
     15  H        8  -0.000004(    14)      3   0.000010(    28)     14  -0.000006(    41)     0
     16  H       11   0.000001(    15)      6  -0.000024(    29)      2   0.000001(    42)     0
 -----------------------------------------------------------------------------------------------
 Internal  Forces:  Max     0.000140136 RMS     0.000033638

 GradGradGradGradGradGradGradGradGradGradGradGradGradGradGradGradGradGrad
 Berny optimization.
 Search for a local minimum.
 Step number   3 out of a maximum of   52
 All quantities printed in internal units (Hartrees-Bohrs-Radians)
 Update second derivatives using D2CorN and points    1    3
 DE= -1.43D-07 DEPred=-1.10D-07 R= 1.30D+00
 Trust test= 1.30D+00 RLast= 8.39D-04 DXMaxT set to 1.00D-01
 ITU=  0  1  0
     Eigenvalues ---    0.02064   0.03467   0.03913   0.06219   0.07231
     Eigenvalues ---    0.08836   0.11022   0.14586   0.15819   0.16068
     Eigenvalues ---    0.19293   0.21075   0.24156   0.24320   0.28243
     Eigenvalues ---    0.30811   0.31738   0.33069   0.34166   0.34434
     Eigenvalues ---    0.34436   0.34437   0.34446   0.35070   0.35609
     Eigenvalues ---    0.35650   0.35702   0.35726   0.36124   0.44707
     Eigenvalues ---    0.46098   0.46551   0.48253   0.50901   0.53336
     Eigenvalues ---    0.63552   0.90070   1.35651   2.88417   3.02779
     Eigenvalues ---    6.63740  27.47923
 RFO step:  Lambda=-2.24379959D-08 EMin= 2.06418795D-02
 Quartic linear search produced a step of  0.32615.
 Variable       Old X    -DE/DX   Delta X   Delta X   Delta X     New X
                                 (Linear)    (Quad)   (Total)
    R2        2.61360   0.00000   0.00004   0.00003   0.00007   2.61367
    R3        2.62338  -0.00004  -0.00008  -0.00003  -0.00011   2.62327
    R4        2.87316  -0.00001  -0.00005   0.00001  -0.00004   2.87312
    R5        2.04684  -0.00000  -0.00001   0.00001  -0.00001   2.04683
    R6        2.64215  -0.00003  -0.00004  -0.00001  -0.00006   2.64209
    R7        2.61360   0.00003   0.00003   0.00003   0.00006   2.61367
    R8        2.87317  -0.00001  -0.00005   0.00000  -0.00005   2.87312
    R9        2.06745  -0.00001   0.00002  -0.00004  -0.00002   2.06743
   R10        2.06744  -0.00000   0.00002  -0.00003  -0.00001   2.06744
   R11        2.64163   0.00005   0.00008   0.00003   0.00011   2.64174
   R12        2.04539   0.00000  -0.00000   0.00000   0.00000   2.04539
   R13        2.04685  -0.00000  -0.00001   0.00001  -0.00000   2.04684
   R14        2.06745  -0.00001   0.00002  -0.00004  -0.00001   2.06744
   R15        2.06745  -0.00000   0.00002  -0.00003  -0.00001   2.06745
   R16        2.04539   0.00000  -0.00000   0.00000   0.00000   2.04539
    A3        2.13546  -0.00014   0.00003   0.00000   0.00003   2.13549
    A4        2.51375  -0.00006  -0.00006  -0.00001  -0.00006   2.51368
    A5        2.15583   0.00001   0.00012  -0.00005   0.00006   2.15590
    A6        2.02318  -0.00010  -0.00004   0.00000  -0.00004   2.02314
    A7        2.13544  -0.00004   0.00002  -0.00000   0.00002   2.13546
    A8        1.63397   0.00006   0.00003   0.00000   0.00003   1.63400
    A9        2.02127   0.00000   0.00002  -0.00002   0.00000   2.02127
   A10        2.02125   0.00001   0.00001   0.00006   0.00008   2.02133
   A11        2.12455  -0.00002   0.00001  -0.00000   0.00001   2.12456
   A12        2.08650   0.00003   0.00007   0.00004   0.00011   2.08661
   A13        2.15584   0.00001   0.00011  -0.00006   0.00005   2.15589
   A14        2.02128   0.00000   0.00002  -0.00000   0.00002   2.02130
   A15        2.02129   0.00001   0.00001   0.00004   0.00005   2.02134
   A16        2.07210  -0.00002  -0.00008  -0.00002  -0.00010   2.07200
    D4       -3.14162   0.00001  -0.00003   0.00024   0.00022  -3.14141
    D5        3.14158  -0.00000  -0.00000  -0.00001  -0.00001   3.14157
    D6       -3.14161  -0.00000  -0.00001   0.00008   0.00007  -3.14155
    D7        0.00005  -0.00003   0.00002  -0.00013  -0.00011  -0.00006
    D8        3.14165  -0.00002   0.00002  -0.00015  -0.00013   3.14152
    D9       -1.12484  -0.00000  -0.00002   0.00018   0.00017  -1.12468
   D10        2.24949  -0.00001  -0.00003   0.00004   0.00001   2.24950
   D11        0.00000  -0.00000  -0.00000   0.00001   0.00001   0.00001
   D12        3.14160  -0.00000   0.00000  -0.00002  -0.00002   3.14157
   D13        3.14160  -0.00000   0.00000  -0.00001  -0.00001   3.14159
   D14        2.01669  -0.00000  -0.00004   0.00040   0.00036   2.01706
   D15        2.24954  -0.00001  -0.00003   0.00003  -0.00000   2.24954
   D16       -3.14160   0.00000  -0.00000   0.00001   0.00001  -3.14159
         Item               Value     Threshold  Converged?
 Maximum Force            0.000140     0.000450     YES
 RMS     Force            0.000034     0.000300     YES
 Maximum Displacement     0.000361     0.001800     YES
 RMS     Displacement     0.000088     0.001200     YES
 Predicted change in Energy=-1.211550D-08
 Optimization completed.
    -- Stationary point found.
                       ----------------------------
                       !   Optimized Parameters   !
                       ! (Angstroms and Degrees)  !
 ----------------------                            ----------------------
 !      Name          Value   Derivative information (Atomic Units)     !
 ------------------------------------------------------------------------
 !       R2          1.3831   -DE/DX =    0.0                           !
 !       R3          1.3882   -DE/DX =    0.0                           !
 !       R4          1.5204   -DE/DX =    0.0                           !
 !       R5          1.0831   -DE/DX =    0.0                           !
 !       R6          1.3982   -DE/DX =    0.0                           !
 !       R7          1.3831   -DE/DX =    0.0                           !
 !       R8          1.5204   -DE/DX =    0.0                           !
 !       R9          1.094    -DE/DX =    0.0                           !
 !       R10         1.094    -DE/DX =    0.0                           !
 !       R11         1.3979   -DE/DX =    0.0                           !
 !       R12         1.0824   -DE/DX =    0.0                           !
 !       R13         1.0831   -DE/DX =    0.0                           !
 !       R14         1.094    -DE/DX =    0.0                           !
 !       R15         1.094    -DE/DX =    0.0                           !
 !       R16         1.0824   -DE/DX =    0.0                           !
 !       A3        122.3529   -DE/DX =   -0.0001                        !
 !       A4        144.027    -DE/DX =   -0.0001                        !
 !       A5        123.5202   -DE/DX =    0.0                           !
 !       A6        115.9197   -DE/DX =   -0.0001                        !
 !       A7        122.3514   -DE/DX =    0.0                           !
 !       A8         93.6194   -DE/DX =    0.0001                        !
 !       A9        115.8101   -DE/DX =    0.0                           !
 !       A10       115.8093   -DE/DX =    0.0                           !
 !       A11       121.7278   -DE/DX =    0.0                           !
 !       A12       119.5475   -DE/DX =    0.0                           !
 !       A13       123.5203   -DE/DX =    0.0                           !
 !       A14       115.8109   -DE/DX =    0.0                           !
 !       A15       115.8111   -DE/DX =    0.0                           !
 !       A16       118.7224   -DE/DX =    0.0                           !
 !       D4       -180.0018   -DE/DX =    0.0                           !
 !       D5        179.9994   -DE/DX =    0.0                           !
 !       D6       -180.0013   -DE/DX =    0.0                           !
 !       D7          0.0028   -DE/DX =    0.0                           !
 !       D8        180.003    -DE/DX =    0.0                           !
 !       D9        -64.4488   -DE/DX =    0.0                           !
 !       D10       128.8861   -DE/DX =    0.0                           !
 !       D11         0.0001   -DE/DX =    0.0                           !
 !       D12       180.0002   -DE/DX =    0.0                           !
 !       D13       180.0002   -DE/DX =    0.0                           !
 !       D14       115.5481   -DE/DX =    0.0                           !
 !       D15       128.889    -DE/DX =    0.0                           !
 !       D16      -180.0002   -DE/DX =    0.0                           !
 ------------------------------------------------------------------------
 GradGradGradGradGradGradGradGradGradGradGradGradGradGradGradGradGradGrad

 ---------------------------------------------------------------------------------------------------
                            Z-MATRIX (ANGSTROMS AND DEGREES)
   CD    Cent   Atom    N1       Length/X        N2       Alpha/Y        N3        Beta/Z          J
 ---------------------------------------------------------------------------------------------------
      1      1  C 
      2      2  C        1   1.383060(     1)
      3      3  C        1   1.388235(     2)      2  122.353(    16)
      4      4  C        1   1.520411(     3)      2  144.027(    17)      3 -180.002(    30)      0
      5      5  H        2   1.083141(     4)      1  123.520(    18)      3  179.999(    31)      0
      6      6  C        2   1.398166(     5)      1  115.920(    19)      5 -180.001(    32)      0
      7      7  C        3   1.383060(     6)      1  122.351(    20)      2    0.003(    33)      0
      8      8  C        3   1.520415(     7)      1   93.619(    21)      7  180.003(    34)      0
      9      9  H        4   1.094046(     8)      1  115.810(    22)      2  -64.449(    35)      0
     10     10  H        4   1.094044(     9)      1  115.809(    23)      9  128.886(    36)      0
     11     11  C        6   1.397891(    10)      2  121.728(    24)      1    0.000(    37)      0
     12     12  H        6   1.082372(    11)      2  119.547(    25)     11  180.000(    38)      0
     13     13  H        7   1.083144(    12)      3  123.520(    26)      1  180.000(    39)      0
     14     14  H        8   1.094050(    13)      3  115.811(    27)      1  115.548(    40)      0
     15     15  H        8   1.094048(    14)      3  115.811(    28)     14  128.889(    41)      0
     16     16  H       11   1.082373(    15)      6  118.722(    29)      2 -180.000(    42)      0
 ---------------------------------------------------------------------------------------------------
                         Z-Matrix orientation:                         
 ---------------------------------------------------------------------
 Center     Atomic      Atomic             Coordinates (Angstroms)
 Number     Number       Type             X           Y           Z
 ---------------------------------------------------------------------
      1          6           0        0.000000    0.000000    0.000000
      2          6           0        0.000000    0.000000    1.383060
      3          6           0        1.172736    0.000000   -0.742890
      4          6           0       -0.893095   -0.000028   -1.230460
      5          1           0       -0.903005    0.000009    1.981204
      6          6           0        1.257521   -0.000040    1.994214
      7          6           0        2.423181   -0.000057   -0.151923
      8          6           0        0.441817    0.000154   -2.076088
      9          1           0       -1.516662   -0.888630   -1.366423
     10          1           0       -1.516855    0.888455   -1.366305
     11          6           0        2.438420   -0.000076    1.246164
     12          1           0        1.326007   -0.000048    3.074417
     13          1           0        3.349820   -0.000055   -0.712763
     14          1           0        0.585320    0.888802   -2.697905
     15          1           0        0.585423   -0.888291   -2.698170
     16          1           0        3.385770   -0.000103    1.769670
 ---------------------------------------------------------------------
                    Distance matrix (angstroms):
                    1          2          3          4          5
     1  C    0.000000
     2  C    1.383060   0.000000
     3  C    1.388235   2.427956   0.000000
     4  C    1.520411   2.761903   2.122589   0.000000
     5  H    2.177289   1.083141   3.424820   3.211680   0.000000
     6  C    2.357594   1.398166   2.738416   3.876038   2.160566
     7  C    2.427939   2.868445   1.383060   3.487252   3.951423
     8  C    2.122579   3.487249   1.520415   1.580213   4.274362
     9  H    2.226441   3.263370   2.900228   1.094046   3.517508
    10  H    2.226431   3.263313   2.900328   1.094044   3.517381
    11  C    2.738396   2.442259   2.357602   4.151223   3.421316
    12  H    3.348184   2.149182   3.820383   4.843179   2.482662
    13  H    3.424810   3.951426   2.177292   4.274381   5.034281
    14  H    2.900217   4.217445   2.226457   2.264756   4.989902
    15  H    2.900327   4.217608   2.226458   2.264773   4.990094
    16  H    3.820362   3.407771   3.348204   5.225845   4.293989
                    6          7          8          9         10
     6  C    0.000000
     7  C    2.442266   0.000000
     8  C    4.151232   2.761922   0.000000
     9  H    4.447422   4.217456   2.264774   0.000000
    10  H    4.447435   4.217590   2.264788   1.777085   0.000000
    11  C    1.397891   1.398170   3.876052   4.822635   4.822726
    12  H    1.082372   3.407794   5.225849   5.347093   5.347085
    13  H    3.421321   1.083144   3.211719   4.989938   4.990100
    14  H    4.822641   3.263407   1.094050   3.057848   2.488432
    15  H    4.822776   3.263385   1.094048   2.488436   3.057820
    16  H    2.140062   2.149208   4.843213   5.887138   5.887241
                   11         12         13         14         15
    11  C    0.000000
    12  H    2.140087   0.000000
    13  H    2.160566   4.294013   0.000000
    14  H    4.447444   5.887136   3.517572   0.000000
    15  H    4.447503   5.887291   3.517483   1.777092   0.000000
    16  H    1.082373   2.438235   2.482693   5.347139   5.347187
                   16
    16  H    0.000000
 Symmetry turned off by external request.
 Stoichiometry    C8H8
 Framework group  C1[X(C8H8)]
 Deg. of freedom    42
 Full point group                 C1      NOp   1
 Rotational constants (GHZ):           4.4791782           2.0911057           1.4516408
 1\1\GINC-BHC0107\FOpt\RB3LYP\def2TZVP\C8H8\DHANAWAY\10-Jun-2022\1\\# O
 pt=(Z-matrix, MaxStep=10) B3LYP/Def2TZVP geom=allcheckpoint guess=read
  Field=read NoSymm freq=noraman pop=none\\int_zmat_initalOpt\\0,1\C\C,
 1,R2\C,1,R3,2,A3\C,1,R4,2,A4,3,D4,0\H,2,R5,1,A5,3,D5,0\C,2,R6,1,A6,5,D
 6,0\C,3,R7,1,A7,2,D7,0\C,3,R8,1,A8,7,D8,0\H,4,R9,1,A9,2,D9,0\H,4,R10,1
 ,A10,9,D10,0\C,6,R11,2,A11,1,D11,0\H,6,R12,2,A12,11,D12,0\H,7,R13,3,A1
 3,1,D13,0\H,8,R14,3,A14,1,D14,0\H,8,R15,3,A15,14,D15,0\H,11,R16,6,A16,
 2,D16,0\\R2=1.38305992\R3=1.38823467\R4=1.52041128\R5=1.08314143\R6=1.
 39816601\R7=1.38305959\R8=1.5204146\R9=1.09404582\R10=1.09404433\R11=1
 .39789135\R12=1.08237215\R13=1.08314425\R14=1.09404957\R15=1.09404827\
 R16=1.0823727\A3=122.35291284\A4=144.027044\A5=123.52021874\A6=115.919
 6968\A7=122.35142023\A8=93.61936791\A9=115.81006814\A10=115.80927622\A
 11=121.72775727\A12=119.54745547\A13=123.52027148\A14=115.81091294\A15
 =115.81110712\A16=118.7224173\D4=-180.00177163\D5=179.99943273\D6=-180
 .00126098\D7=0.00279695\D8=180.0030106\D9=-64.44881413\D10=128.8861208
 9\D11=0.00007894\D12=180.00024742\D13=180.00018508\D14=115.54806668\D1
 5=128.88898868\D16=-180.00018491\\Version=ES64L-G16RevA.03\HF=-309.746
 5727\RMSD=6.985e-09\RMSF=2.101e-05\Dipole=0.5057165,0.000005,0.8007335
 \PG=C01 [X(C8H8)]\\@


 YOU CANNOT THROW TO THE GROUND THE LETTERS OF
 THE GREEK ALPHABET AND PICK UP THE ILIAD.
        - RUFUS CHOATE, 1799-1859
 Job cpu time:       0 days  0 hours 32 minutes 13.6 seconds.
 Elapsed time:       0 days  0 hours  2 minutes 43.0 seconds.
 File lengths (MBytes):  RWF=     51 Int=      0 D2E=      0 Chk=     32 Scr=      1
 Normal termination of Gaussian 16 at Fri Jun 10 03:47:02 2022.
 Link1:  Proceeding to internal job step number  2.
 --------------------------------------------------------------------
 #N Geom=AllCheck Guess=TCheck SCRF=Check GenChk RB3LYP/def2TZVP Freq
 --------------------------------------------------------------------
 1/8=10,10=4,29=7,30=1,38=1,40=1/1,3;
 2/12=2,15=1,40=1/2;
 3/5=44,7=101,11=2,14=-4,25=1,30=1,70=2,71=2,74=-5,116=1,140=1/1,2,3;
 4/5=101/1;
 5/5=2,38=6,98=1/2;
 8/6=4,10=90,11=11/1;
 11/6=1,8=1,9=11,15=111,16=1,31=1/1,2,10;
 10/6=1,31=1/2;
 7/8=1,10=1,25=1,30=1/1,2,3,16;
 1/8=10,10=4,30=1/3;
 99//99;
 Structure from the checkpoint file:  "checkpoint.chk"
 ------------------
 int_zmat_initalOpt
 ------------------
 Charge =  0 Multiplicity = 1
 Z-Matrix found in chk file.
 C
 C,1,R2
 C,1,R3,2,A3
 C,1,R4,2,A4,3,D4,0
 H,2,R5,1,A5,3,D5,0
 C,2,R6,1,A6,5,D6,0
 C,3,R7,1,A7,2,D7,0
 C,3,R8,1,A8,7,D8,0
 H,4,R9,1,A9,2,D9,0
 H,4,R10,1,A10,9,D10,0
 C,6,R11,2,A11,1,D11,0
 H,6,R12,2,A12,11,D12,0
 H,7,R13,3,A13,1,D13,0
 H,8,R14,3,A14,1,D14,0
 H,8,R15,3,A15,14,D15,0
 H,11,R16,6,A16,2,D16,0
      Variables:
 R2=1.38305992
 R3=1.38823467
 R4=1.52041128
 R5=1.08314143
 R6=1.39816601
 R7=1.38305959
 R8=1.5204146
 R9=1.09404582
 R10=1.09404433
 R11=1.39789135
 R12=1.08237215
 R13=1.08314425
 R14=1.09404957
 R15=1.09404827
 R16=1.0823727
 A3=122.35291284
 A4=144.027044
 A5=123.52021874
 A6=115.9196968
 A7=122.35142023
 A8=93.61936791
 A9=115.81006814
 A10=115.80927622
 A11=121.72775727
 A12=119.54745547
 A13=123.52027148
 A14=115.81091294
 A15=115.81110712
 A16=118.7224173
 D4=-180.00177163
 D5=179.99943273
 D6=-180.00126098
 D7=0.00279695
 D8=180.0030106
 D9=-64.44881413
 D10=128.88612089
 D11=0.00007894
 D12=180.00024742
 D13=180.00018508
 D14=115.54806668
 D15=128.88898868
 D16=-180.00018491
 Recover connectivity data from disk.

 GradGradGradGradGradGradGradGradGradGradGradGradGradGradGradGradGradGrad
 Berny optimization.
 Initialization pass.
                       ----------------------------
                       !    Initial Parameters    !
                       ! (Angstroms and Degrees)  !
 ----------------------                            ----------------------
 !      Name          Value   Derivative information (Atomic Units)     !
 ------------------------------------------------------------------------
 !       R2          1.3831   calculate D2E/DX2 analytically            !
 !       R3          1.3882   calculate D2E/DX2 analytically            !
 !       R4          1.5204   calculate D2E/DX2 analytically            !
 !       R5          1.0831   calculate D2E/DX2 analytically            !
 !       R6          1.3982   calculate D2E/DX2 analytically            !
 !       R7          1.3831   calculate D2E/DX2 analytically            !
 !       R8          1.5204   calculate D2E/DX2 analytically            !
 !       R9          1.094    calculate D2E/DX2 analytically            !
 !       R10         1.094    calculate D2E/DX2 analytically            !
 !       R11         1.3979   calculate D2E/DX2 analytically            !
 !       R12         1.0824   calculate D2E/DX2 analytically            !
 !       R13         1.0831   calculate D2E/DX2 analytically            !
 !       R14         1.094    calculate D2E/DX2 analytically            !
 !       R15         1.094    calculate D2E/DX2 analytically            !
 !       R16         1.0824   calculate D2E/DX2 analytically            !
 !       A3        122.3529   calculate D2E/DX2 analytically            !
 !       A4        144.027    calculate D2E/DX2 analytically            !
 !       A5        123.5202   calculate D2E/DX2 analytically            !
 !       A6        115.9197   calculate D2E/DX2 analytically            !
 !       A7        122.3514   calculate D2E/DX2 analytically            !
 !       A8         93.6194   calculate D2E/DX2 analytically            !
 !       A9        115.8101   calculate D2E/DX2 analytically            !
 !       A10       115.8093   calculate D2E/DX2 analytically            !
 !       A11       121.7278   calculate D2E/DX2 analytically            !
 !       A12       119.5475   calculate D2E/DX2 analytically            !
 !       A13       123.5203   calculate D2E/DX2 analytically            !
 !       A14       115.8109   calculate D2E/DX2 analytically            !
 !       A15       115.8111   calculate D2E/DX2 analytically            !
 !       A16       118.7224   calculate D2E/DX2 analytically            !
 !       D4       -180.0018   calculate D2E/DX2 analytically            !
 !       D5        179.9994   calculate D2E/DX2 analytically            !
 !       D6       -180.0013   calculate D2E/DX2 analytically            !
 !       D7          0.0028   calculate D2E/DX2 analytically            !
 !       D8        180.003    calculate D2E/DX2 analytically            !
 !       D9        -64.4488   calculate D2E/DX2 analytically            !
 !       D10       128.8861   calculate D2E/DX2 analytically            !
 !       D11         0.0001   calculate D2E/DX2 analytically            !
 !       D12       180.0002   calculate D2E/DX2 analytically            !
 !       D13       180.0002   calculate D2E/DX2 analytically            !
 !       D14       115.5481   calculate D2E/DX2 analytically            !
 !       D15       128.889    calculate D2E/DX2 analytically            !
 !       D16      -180.0002   calculate D2E/DX2 analytically            !
 ------------------------------------------------------------------------
 Trust Radius=1.00D-01 FncErr=1.00D-07 GrdErr=1.00D-07 EigMax=2.50D+02 EigMin=1.00D-04
 Number of steps in this run=      2 maximum allowed number of steps=      2.
 GradGradGradGradGradGradGradGradGradGradGradGradGradGradGradGradGradGrad

                          Input orientation:                          
 ---------------------------------------------------------------------
 Center     Atomic      Atomic             Coordinates (Angstroms)
 Number     Number       Type             X           Y           Z
 ---------------------------------------------------------------------
      1          6           0        0.000000    0.000000    0.000000
      2          6           0        0.000000    0.000000    1.383060
      3          6           0        1.172736    0.000000   -0.742890
      4          6           0       -0.893095   -0.000028   -1.230460
      5          1           0       -0.903005    0.000009    1.981204
      6          6           0        1.257521   -0.000040    1.994214
      7          6           0        2.423181   -0.000057   -0.151923
      8          6           0        0.441817    0.000154   -2.076088
      9          1           0       -1.516662   -0.888630   -1.366423
     10          1           0       -1.516855    0.888455   -1.366305
     11          6           0        2.438420   -0.000076    1.246164
     12          1           0        1.326007   -0.000048    3.074417
     13          1           0        3.349820   -0.000055   -0.712763
     14          1           0        0.585320    0.888802   -2.697905
     15          1           0        0.585423   -0.888291   -2.698170
     16          1           0        3.385770   -0.000103    1.769670
 ---------------------------------------------------------------------
                    Distance matrix (angstroms):
                    1          2          3          4          5
     1  C    0.000000
     2  C    1.383060   0.000000
     3  C    1.388235   2.427956   0.000000
     4  C    1.520411   2.761903   2.122589   0.000000
     5  H    2.177289   1.083141   3.424820   3.211680   0.000000
     6  C    2.357594   1.398166   2.738416   3.876038   2.160566
     7  C    2.427939   2.868445   1.383060   3.487252   3.951423
     8  C    2.122579   3.487249   1.520415   1.580213   4.274362
     9  H    2.226441   3.263370   2.900228   1.094046   3.517508
    10  H    2.226431   3.263313   2.900328   1.094044   3.517381
    11  C    2.738396   2.442259   2.357602   4.151223   3.421316
    12  H    3.348184   2.149182   3.820383   4.843179   2.482662
    13  H    3.424810   3.951426   2.177292   4.274381   5.034281
    14  H    2.900217   4.217445   2.226457   2.264756   4.989902
    15  H    2.900327   4.217608   2.226458   2.264773   4.990094
    16  H    3.820362   3.407771   3.348204   5.225845   4.293989
                    6          7          8          9         10
     6  C    0.000000
     7  C    2.442266   0.000000
     8  C    4.151232   2.761922   0.000000
     9  H    4.447422   4.217456   2.264774   0.000000
    10  H    4.447435   4.217590   2.264788   1.777085   0.000000
    11  C    1.397891   1.398170   3.876052   4.822635   4.822726
    12  H    1.082372   3.407794   5.225849   5.347093   5.347085
    13  H    3.421321   1.083144   3.211719   4.989938   4.990100
    14  H    4.822641   3.263407   1.094050   3.057848   2.488432
    15  H    4.822776   3.263385   1.094048   2.488436   3.057820
    16  H    2.140062   2.149208   4.843213   5.887138   5.887241
                   11         12         13         14         15
    11  C    0.000000
    12  H    2.140087   0.000000
    13  H    2.160566   4.294013   0.000000
    14  H    4.447444   5.887136   3.517572   0.000000
    15  H    4.447503   5.887291   3.517483   1.777092   0.000000
    16  H    1.082373   2.438235   2.482693   5.347139   5.347187
                   16
    16  H    0.000000
 Symmetry turned off by external request.
 Stoichiometry    C8H8
 Framework group  C1[X(C8H8)]
 Deg. of freedom    42
 Full point group                 C1      NOp   1
 Rotational constants (GHZ):           4.4791782           2.0911057           1.4516408
 Standard basis: def2TZVP (5D, 7F)
 The following finite field(s) will be applied:
 An electric field of             -0.0053 -0.0000 -0.0085
   296 basis functions,   472 primitive gaussians,   336 cartesian basis functions
    28 alpha electrons       28 beta electrons
       nuclear repulsion energy       333.0226758298 Hartrees.
 NAtoms=   16 NActive=   16 NUniq=   16 SFac= 1.00D+00 NAtFMM=   60 NAOKFM=F Big=F
 Integral buffers will be    131072 words long.
 Raffenetti 2 integral format.
 Two-electron integral symmetry is turned off.
 One-electron integrals computed using PRISM.
   1 Symmetry operations used in ECPInt.
 ECPInt:  NShTT=    7260 NPrTT=   21936 LenC2=    7147 LenP2D=   17609.
 LDataN:  DoStor=T MaxTD1= 6 Len=  172
 NBasis=   296 RedAO= T EigKep=  8.46D-06  NBF=   296
 NBsUse=   296 1.00D-06 EigRej= -1.00D+00 NBFU=   296
 The nuclear repulsion energy is now       332.5467984884 hartrees.
 Initial guess from the checkpoint file:  "checkpoint.chk"
 B after Tr=     0.000000    0.000000    0.000000
         Rot=    1.000000    0.000000    0.000000    0.000000 Ang=   0.00 deg.
 Requested convergence on RMS density matrix=1.00D-08 within 128 cycles.
 Requested convergence on MAX density matrix=1.00D-06.
 Requested convergence on             energy=1.00D-06.
 No special actions if energy rises.
 SCF Done:  E(RB3LYP) =  -309.746572717     A.U. after    1 cycles
            NFock=  1  Conv=0.21D-08     -V/T= 2.0054
 DoSCS=F DFT=T ScalE2(SS,OS)=  1.000000  1.000000
 Range of M.O.s used for correlation:     1   296
 NBasis=   296 NAE=    28 NBE=    28 NFC=     0 NFV=     0
 NROrb=    296 NOA=    28 NOB=    28 NVA=   268 NVB=   268

 **** Warning!!: The largest alpha MO coefficient is  0.74489090D+02

   1 Symmetry operations used in ECPInt.
 ECPInt:  NShTT=    7260 NPrTT=   21936 LenC2=    7147 LenP2D=   17609.
 LDataN:  DoStor=T MaxTD1= 7 Len=  274
 Symmetrizing basis deriv contribution to polar:
 IMax=3 JMax=2 DiffMx= 0.00D+00
 G2DrvN: will do    17 centers at a time, making    1 passes.
 Calling FoFCou, ICntrl=  3107 FMM=F I1Cent=   0 AccDes= 0.00D+00.
 End of G2Drv F.D. properties file   721 does not exist.
 End of G2Drv F.D. properties file   722 does not exist.
 End of G2Drv F.D. properties file   788 does not exist.
          IDoAtm=1111111111111111
          Differentiating once with respect to electric field.
                with respect to dipole field.
          Differentiating once with respect to nuclear coordinates.
[...]

 Dipole orientation:
     6          0.00000000          0.00000000          0.00000000
     6         -1.39562660         -0.00001455          2.20978612
     6          2.62338091          0.00000424         -0.00356145
     6         -0.18530295         -0.00003652         -2.86717918
     1         -3.44198399         -0.00000120          2.25426234
     6         -0.00312714         -0.00010063          4.45520507
     6          4.02494447         -0.00011356          2.20246315
     6          2.80086493          0.00031114         -2.87124153
     1         -1.04440841         -1.67924774         -3.71365689
     1         -1.04484066          1.67895612         -3.71364472
     6          2.63850226         -0.00016447          4.45163576
     1         -0.98372161         -0.00012647          6.25020986
     1          6.07141935         -0.00010701          2.24143831
     1          3.65761064          1.67961873         -3.71993407
     1          3.65804883         -1.67859917         -3.72027159
     1          3.62387024         -0.00022434          6.24402575

 Electric dipole moment (dipole orientation):
 (Debye = 10**-18 statcoulomb cm , SI units = C m)
                  (au)            (Debye)         (10**-30 SI)
   Tot        0.947059D+00      0.240718D+01      0.802950D+01
   x          0.000000D+00      0.000000D+00      0.000000D+00
   y          0.000000D+00      0.000000D+00      0.000000D+00
   z          0.947059D+00      0.240718D+01      0.802950D+01

 Dipole polarizability, Alpha (dipole orientation).
 (esu units = cm**3 , SI units = C**2 m**2 J**-1)
 Alpha(0;0):
               (au)            (10**-24 esu)      (10**-40 SI)
   iso        0.885775D+02      0.131258D+02      0.146045D+02
   aniso      0.517166D+02      0.766360D+01      0.852691D+01
   xx         0.958157D+02      0.141984D+02      0.157979D+02
   yx        -0.220725D-03     -0.327080D-04     -0.363926D-04
   yy         0.557653D+02      0.826356D+01      0.919445D+01
   zx         0.238211D-01      0.352992D-02      0.392757D-02
   zy        -0.195070D-02     -0.289064D-03     -0.321627D-03
   zz         0.114152D+03      0.169155D+02      0.188211D+02

 ----------------------------------------------------------------------
 1\1\GINC-BHC0107\Freq\RB3LYP\def2TZVP\C8H8\DHANAWAY\10-Jun-2022\1\\#N 
 Geom=AllCheck Guess=TCheck SCRF=Check GenChk RB3LYP/def2TZVP Freq\\int
 _zmat_initalOpt\\0,1\C\C,1,R2\C,1,R3,2,A3\C,1,R4,2,A4,3,D4,0\H,2,R5,1,
 A5,3,D5,0\C,2,R6,1,A6,5,D6,0\C,3,R7,1,A7,2,D7,0\C,3,R8,1,A8,7,D8,0\H,4
 ,R9,1,A9,2,D9,0\H,4,R10,1,A10,9,D10,0\C,6,R11,2,A11,1,D11,0\H,6,R12,2,
 A12,11,D12,0\H,7,R13,3,A13,1,D13,0\H,8,R14,3,A14,1,D14,0\H,8,R15,3,A15
 ,14,D15,0\H,11,R16,6,A16,2,D16,0\\R2=1.38305992\R3=1.38823467\R4=1.520
 41128\R5=1.08314143\R6=1.39816601\R7=1.38305959\R8=1.5204146\R9=1.0940
 4582\R10=1.09404433\R11=1.39789135\R12=1.08237215\R13=1.08314425\R14=1
 .09404957\R15=1.09404827\R16=1.0823727\A3=122.35291284\A4=144.027044\A
 5=123.52021874\A6=115.9196968\A7=122.35142023\A8=93.61936791\A9=115.81
 006814\A10=115.80927622\A11=121.72775727\A12=119.54745547\A13=123.5202
 7148\A14=115.81091294\A15=115.81110712\A16=118.7224173\D4=-180.0017716
 3\D5=179.99943273\D6=-180.00126098\D7=0.00279695\D8=180.0030106\D9=-64
 .44881413\D10=128.88612089\D11=0.00007894\D12=180.00024742\D13=180.000
 18508\D14=115.54806668\D15=128.88898868\D16=-180.00018491\\Version=ES6
 4L-G16RevA.03\HF=-309.7465727\RMSD=2.121e-09\RMSF=2.103e-05\ZeroPoint=
 0.1338756\Thermal=0.1398622\Dipole=0.5057155,0.0000053,0.8007321\Dipol
 eDeriv=0.0093942,0.0000125,0.2093305,0.0000814,-0.1125789,0.0000825,-0
 .0054244,0.000007,-0.0493533,0.0643055,-0.0000054,-0.126224,-0.0000234
 ,-0.0928242,-0.0000208,-0.0694954,-0.0000012,0.0542629,-0.1174326,0.00
 00059,-0.0653754,-0.0000463,-0.1126811,-0.0001351,0.1494808,-0.0000382
 ,0.0772857,0.1768047,-0.0000367,0.0383177,-0.0000666,0.2589016,-0.0000
 244,0.0971046,0.0000086,0.0312835,-0.0539295,0.0000034,0.0832604,-0.00
 00036,0.1266119,0.0000009,0.0628332,0.0000008,0.0265653,-0.1035295,-0.
 0000008,-0.09054,-0.0000043,-0.1172066,0.000013,0.038075,0.0000019,0.0
 689652,0.1317248,-0.0000016,-0.0375996,0.0000135,-0.0928713,0.0000321,
 -0.0943419,0.0000053,-0.0131159,0.0054365,-0.0000149,0.016309,0.000007
 1,0.2590239,0.0000916,-0.0424898,0.0000442,0.2027714,-0.1210245,-0.091
 9204,-0.0692864,-0.1783685,-0.1010795,-0.0716547,-0.0804714,-0.0270875
 ,-0.0220205,-0.1210957,0.091941,-0.0692926,0.1783982,-0.1010539,0.0716
 417,-0.0804436,0.0270675,-0.0220037,0.0577357,-0.0000084,0.1143008,-0.
 0000132,-0.1172745,-0.0000021,-0.0143731,0.0000027,-0.0922771,0.072566
 ,0.0000018,-0.0090217,0.0000094,0.1393663,-0.0000006,-0.0015277,0.0000
 004,-0.0107832,-0.0448076,0.0000021,0.0673579,-0.0000052,0.1265906,0.0
 000059,0.0878155,-0.0000005,0.0171035,0.017738,-0.0148156,-0.0148678,-
 0.0114523,-0.1011724,0.1919742,-0.0037106,0.0947281,-0.1609178,0.01773
 26,0.0148323,-0.0148239,0.011466,-0.1011156,-0.1919983,-0.0036939,-0.0
 947422,-0.1610169,0.0083815,0.0000049,-0.0318449,0.0000078,0.1393637,-
 0.000006,-0.0393373,0.000003,0.0532511\Polar=101.0654971,-0.0011092,55
 .7652756,8.2885627,-0.0012223,108.9017765\PG=C01 [X(C8H8)]\NImag=0\\0.
 56501861,-0.00000029,0.15384519,-0.03509698,-0.00000536,0.76556588,-0.
 13106756,-0.00000051,0.03358999,0.69134423,0.00000230,-0.05901650,-0.0
 0000242,-0.00000945,0.13034076,-0.01608295,-0.00000193,-0.33943651,-0.
 06739121,0.00000005,0.68194010,-0.25854506,0.00000008,0.06310719,0.035
 63369,-0.00000304,0.07316579,0.75607012,-0.00000299,-0.07521737,0.0000
 0200,-0.00000155,0.00916792,-0.00000155,-0.00001696,0.15380302,0.15163
 863,0.00000043,-0.15706523,0.02054519,0.00000090,-0.03416767,0.0551962
 5,-0.00002383,0.57451305,-0.09669538,0.00000013,-0.04450451,0.00475712
 ,0.00000055,-0.00199319,-0.08533059,-0.00000320,-0.02258526,0.53576962
 ,0.00000110,-0.06806751,-0.00000003,-0.00000046,-0.00257541,-0.0000003
 4,0.00000239,0.01452773,0.00000144,-0.00001439,0.56510979,-0.08024917,
 -0.00000139,-0.13713227,-0.01349522,-0.00000117,-0.00701720,-0.0148615
 8,-0.00000010,-0.00957085,0.06458031,0.00002058,0.33197290,0.00473173,
 -0.00000008,-0.00071586,-0.24927345,0.00000239,0.12519772,0.00204795,0
 .00000023,-0.00154434,-0.00007906,-0.00000016,0.00065729,0.26371754,0.
 00000015,0.00250483,0.00000124,0.00000153,-0.03630353,-0.00000197,0.,0
 .00903907,-0.00000006,-0.00000002,-0.00345074,-0.00000013,-0.00000275,
 0.02454221,0.02955076,-0.00000036,-0.00969538,0.12787773,-0.00000131,-
 0.14458063,-0.00179383,0.00000008,-0.00369311,-0.00061302,-0.00000009,
 0.00048693,-0.13851908,0.00000128,0.14752444,0.03147950,0.00000168,-0.
 08505503,-0.28067669,0.00000470,-0.03929070,-0.07168504,0.00000100,0.0
 0587674,0.00448000,0.00000089,0.00457370,-0.01859484,0.00000122,-0.012
 39642,0.63577858,-0.00000069,0.00709238,0.00000197,0.00000716,-0.06181
 170,0.00000268,0.00000166,-0.00684236,-0.00000025,-0.00000003,0.007306
 45,-0.00000008,0.00000015,0.00290686,0.00000008,-0.00001590,0.13996192
 ,-0.03643087,0.00000032,-0.02920155,-0.10521626,0.00000410,-0.16252265
 ,0.00472716,-0.00000088,-0.00184271,0.00215688,0.00000020,-0.00296683,
 0.01801671,-0.00000029,0.01199355,0.00926150,-0.00000268,0.73156371,-0
 .05761966,0.00000137,0.02909308,-0.01704843,0.00000119,-0.03288315,-0.
 30815707,0.00001218,-0.09978467,-0.00489109,0.00000008,0.00018380,-0.0
 0003215,-0.00000029,-0.00069149,0.03941852,-0.00000089,0.02528472,0.73
 570734,0.00000077,0.00916632,-0.00000101,0.00000100,-0.00490647,0.0000
 0111,0.00001075,-0.05899509,0.00000686,-0.00000025,0.00860264,0.000001
 09,-0.00000004,-0.00067719,0.00000003,-0.00000140,0.00664617,0.0000002
 8,-0.00001457,0.13031681,-0.02352487,0.00000037,0.05909409,-0.02749418
 ,0.00000107,-0.04558751,-0.05011346,0.00000892,-0.16233911,-0.00104514
 ,-0.00000001,-0.00020557,-0.00058486,-0.00000012,-0.00081457,0.0714367
 5,-0.00000140,-0.03059083,-0.04640550,-0.00001430,0.63753722,-0.008933
 60,-0.00000150,0.02123095,-0.00072812,-0.00000064,0.00214875,-0.081561
 65,0.00000629,-0.07309056,-0.10593006,-0.00000677,0.04656437,0.0002583
 4,0.00000006,0.00047499,-0.00059893,0.,0.00034784,0.00111561,0.0000024
 7,-0.01521596,0.31927252,-0.00000035,0.01451900,0.00000365,0.00000044,
 0.00860096,0.00000051,0.00000380,-0.06805573,0.00000916,-0.00000525,-0
 .08446043,0.00000228,0.00000005,-0.00045690,0.00000010,-0.00000088,-0.
 00129181,0.00000006,0.00000011,-0.00257742,0.00000036,-0.00000943,0.56
 507708,0.01351486,0.00000929,-0.08596683,0.00092109,0.00000054,-0.0043
 7081,-0.03734754,0.00000759,-0.15226194,0.03433017,0.00000110,-0.06770
 764,0.00003311,-0.00000015,-0.00080162,0.00326499,-0.00000044,-0.00109
 380,-0.00371108,0.00000033,-0.00337549,-0.03772655,0.00000848,0.548430
 98,-0.00961529,-0.01039281,-0.00291097,0.00068880,-0.00004602,0.001347
 01,-0.00340286,0.00001642,-0.00152902,-0.12246510,-0.11586222,-0.01500
 579,0.00012202,-0.00062023,-0.00024532,-0.00094278,0.00074390,-0.00012
 338,-0.00036948,0.00203442,-0.00022743,-0.00957231,-0.01725678,-0.0035
 1477,0.13512247,0.00021659,0.00323914,-0.00141602,-0.00010448,0.000313
 64,0.00065860,0.00015701,0.00034857,-0.00113062,-0.11471439,-0.2188442
 4,-0.02335026,-0.00003930,-0.00010860,-0.00006729,-0.00070669,-0.00000
 568,-0.00008860,0.00031978,-0.00020907,0.00038311,0.00275938,0.0013380
 4,0.00074375,0.12686691,0.23480829,-0.01364377,-0.02264638,-0.00109643
 ,-0.00022742,-0.00008747,0.00149482,-0.00089523,0.00056700,-0.00295337
 ,-0.01617316,-0.02605487,-0.04873815,0.00020080,-0.00061760,-0.0002994
 6,-0.00078032,0.00131064,-0.00001853,-0.00039775,0.00046608,0.00093480
 ,0.00818442,0.01707577,0.00168091,0.01993000,0.02759324,0.04824589,-0.
 00961824,0.01039147,-0.00291023,0.00068892,0.00004584,0.00134711,-0.00
 340569,-0.00001631,-0.00153080,-0.12251553,0.11588454,-0.01499448,0.00
 012205,0.00062028,-0.00024545,-0.00094302,-0.00074387,-0.00012352,-0.0
 0036938,-0.00203432,-0.00022721,-0.00957361,0.01725408,-0.00351327,0.0
 1123579,-0.01453358,0.00228005,0.13517951,-0.00021706,0.00323789,0.001
 41549,0.00010456,0.00031372,-0.00065859,-0.00015662,0.00034859,0.00113
 130,0.11473715,-0.21880043,0.02332550,0.00003933,-0.00010859,0.0000673
 3,0.00070690,-0.00000571,0.00008867,-0.00032041,-0.00020910,-0.0003840
 8,-0.00276301,0.00134371,-0.00074454,0.01454079,-0.02222108,0.00280012
 ,-0.12689223,0.23476030,-0.01364723,0.02264396,-0.00109143,-0.00022708
 ,0.00008750,0.00149441,-0.00089650,-0.00056640,-0.00295276,-0.01616244
 ,0.02602895,-0.04873577,0.00020088,0.00061748,-0.00029953,-0.00078003,
 -0.00131042,-0.00001848,-0.00039800,-0.00046637,0.00093527,0.00818541,
 -0.01707349,0.00167917,0.00228229,-0.00280234,0.00099895,0.01992093,-0
 .02756563,0.04823924,-0.01868932,0.00000025,0.02977562,-0.05516997,0.0
 0000161,-0.01942329,0.02880178,0.00000222,-0.03768875,-0.00239921,-0.0
 0000031,-0.00050133,-0.00311399,0.00000018,-0.00309309,-0.25925160,0.0
 0000652,0.11511444,-0.12826256,0.00000070,-0.03319275,-0.00420834,0.00
 000036,-0.00194982,0.00014090,0.00024992,0.00007240,0.00014103,-0.0002
 5011,0.00007241,0.70691506,-0.00000025,-0.00684787,-0.00000003,0.00000
 135,0.00664779,-0.00000047,0.00000137,0.00708592,0.00000188,0.00000026
 ,-0.00129170,0.00000006,0.00000023,0.00763257,0.00000009,0.00000717,-0
 .06699139,-0.00000360,0.00000021,-0.06181473,0.00000342,0.00000043,0.0
 0730538,0.00000046,-0.00009151,-0.00005206,-0.00027416,0.00009155,-0.0
 0005207,0.00027416,-0.00001774,0.13997334,0.03093312,0.00000048,-0.054
 83622,0.02672634,-0.00000174,0.06400576,-0.08631936,0.00000172,-0.0265
 3159,0.00241352,0.00000065,0.00070386,-0.00395336,0.00000044,-0.000497
 16,0.04736704,-0.00000182,-0.18246421,0.03273041,0.00000436,-0.3149187
 0,0.00047154,-0.00000090,0.00572274,-0.00037575,-0.00042974,-0.0004540
 9,-0.00037602,0.00043019,-0.00045394,0.04288899,-0.00000534,0.66041389
 ,-0.00509948,0.00000016,-0.00276356,0.00173598,0.00000022,-0.02921996,
 -0.00125927,0.00000002,-0.00010684,0.00041513,0.00000005,-0.00072141,0
 .00112213,-0.00000012,0.00050972,-0.06051346,0.00000105,-0.01810526,-0
 .00408395,0.00000035,0.00272452,0.00001404,-0.00000007,-0.00014138,-0.
 00003634,-0.00004389,-0.00008001,-0.00003636,0.00004391,-0.00007999,0.
 00510775,-0.00000010,0.02827323,0.06150653,0.00000011,0.00700492,0.000
 00017,-0.00000015,0.00343650,0.00000080,0.00000017,-0.00119374,0.00000
 004,-0.00000014,0.00086745,0.00000020,-0.00000007,-0.00388250,-0.00000
 002,0.00000082,-0.03835801,0.00000195,0.00000051,0.00688722,0.00000030
 ,0.00000006,-0.00114542,-0.00000002,0.00004710,0.00001517,0.00010436,-
 0.00004711,0.00001520,-0.00010436,0.00000025,0.00386284,-0.00000122,-0
 .00000137,0.02659033,-0.00257171,-0.00000001,0.00044770,0.00082870,0.0
 0000006,-0.00864831,0.00042398,0.00000005,0.00068734,0.00022678,0.0000
 0003,0.00013443,-0.00015244,-0.00000002,0.00075810,-0.01748584,0.00000
 195,-0.33920471,0.00268696,-0.00000007,0.00031093,-0.00007131,-0.00000
 002,-0.00004308,-0.00003378,-0.00001332,-0.00005494,-0.00003379,0.0000
 1332,-0.00005494,-0.00240397,0.00000015,-0.01244856,0.01865015,-0.0000
 0210,0.35782189,-0.00135486,0.00000038,-0.00340391,-0.00017903,-0.0000
 0002,-0.00076068,-0.01820363,-0.00000029,0.01871909,-0.00080488,-0.000
 00004,-0.00002700,-0.00003268,-0.00000004,0.00018049,0.00174817,0.0000
 0010,-0.00079434,-0.26145206,0.00000029,0.12211089,0.00036793,-0.00000
 003,-0.00040262,-0.00019598,-0.00004537,-0.00024865,-0.00019605,0.0000
 4539,-0.00024873,0.00423344,0.00000007,-0.00160504,0.00003545,-0.00000
 002,-0.00019668,0.27575893,0.00000067,0.00903926,0.00000048,0.00000005
 ,-0.00067775,0.00000043,-0.00000030,0.00250017,-0.00000158,0.00000017,
 -0.00045672,-0.00000005,-0.00000003,-0.00175232,0.,-0.00000021,0.00763
 354,0.00000021,0.00000068,-0.03629202,0.00000228,-0.00000014,-0.003450
 14,-0.00000021,-0.00005882,0.00004058,-0.00000048,0.00005884,0.0000405
 3,0.00000051,-0.00000052,0.00290435,-0.00000055,-0.00000005,0.00003403
 ,0.,-0.00000040,0.02453525,-0.00315301,0.00000033,-0.00028916,-0.00065
 401,0.00000004,-0.00066823,-0.01155250,-0.00000016,0.01323468,-0.00046
 908,-0.00000009,0.00026127,0.00009885,-0.00000006,0.00009930,-0.001656
 94,0.00000035,-0.00535920,0.11943129,0.00000089,-0.13239070,0.00086919
 ,0.,0.00004142,0.00000379,-0.00001303,-0.00011525,0.00000379,0.0000130
 6,-0.00011531,0.02881021,-0.00000001,-0.01083970,0.00135961,-0.0000001
 2,-0.00058933,-0.13282470,-0.00000097,0.13548050,-0.00210091,-0.000508
 45,-0.00027751,0.00093837,0.00044783,0.00022051,0.00374898,0.01603215,
 -0.00732943,-0.00218006,-0.02281018,0.01167352,-0.00003552,-0.00002466
 ,-0.00017264,-0.00022896,0.00020882,-0.00010180,0.00091503,0.00006124,
 -0.00012091,-0.05014396,-0.02595156,0.01800703,-0.00204634,0.00000517,
 0.00304038,0.00132525,0.00039287,-0.00128599,0.00016217,-0.00086713,-0
 .00025939,0.00006419,-0.00014609,0.00004935,-0.00020578,0.00029400,0.0
 0004627,0.04869119,0.00108899,0.00034727,0.00034255,-0.00020964,-0.000
 20857,-0.00045282,0.00137290,0.00323781,0.00041362,0.00050893,0.001337
 16,-0.00280825,-0.00000755,0.00004056,0.00004661,0.00049553,-0.0000519
 5,-0.00004244,-0.00064108,0.00031502,-0.00018790,-0.02790086,-0.218845
 24,0.11367920,0.00013775,0.00043068,0.00006018,-0.00025029,0.00090860,
 0.00031162,-0.00022193,-0.00000569,0.00067703,0.00000411,-0.00000205,-
 0.00000421,0.00004396,-0.00010842,0.00006371,0.02926142,0.23481266,-0.
 00091208,-0.00026105,-0.00425593,0.00039073,-0.00203923,-0.00037242,0.
 00340159,0.01907272,-0.01445233,-0.00001867,0.00830175,-0.00570266,0.0
 0007951,0.00005339,-0.00027575,-0.00055104,0.00020005,-0.00008501,0.00
 145402,0.00008068,0.00126776,0.01917281,0.11587409,-0.12101936,0.00001
 726,-0.00015008,-0.00060212,0.00045028,-0.00008435,0.00092004,0.000398
 86,-0.00123265,-0.00112414,-0.00003948,0.00027296,0.00000405,-0.000400
 97,0.00082531,0.00002794,-0.02091836,-0.12647994,0.13462342,-0.0020997
 9,0.00050820,-0.00027669,0.00093871,-0.00044771,0.00022031,0.00375225,
 -0.01602933,-0.00733114,-0.00218042,0.02280552,0.01167746,-0.00003555,
 0.00002467,-0.00017270,-0.00022865,-0.00020876,-0.00010174,0.00091451,
 -0.00006137,-0.00012115,-0.05015464,0.02596555,0.01802699,0.00132535,-
 0.00039255,-0.00128599,-0.00204584,-0.00000595,0.00303982,0.00016205,0
 .00086696,-0.00025890,0.00006422,0.00014609,0.00004936,-0.00020582,-0.
 00029387,0.00004630,0.00110391,-0.00367553,-0.00250423,0.04869729,-0.0
 0108909,0.00034733,-0.00034248,0.00021006,-0.00020890,0.00045378,-0.00
 137332,0.00324119,-0.00040967,-0.00050948,0.00134143,0.00281185,0.0000
 0753,0.00004051,-0.00004659,-0.00049588,-0.00005188,0.00004241,0.00064
 082,0.00031504,0.00018761,0.02791391,-0.21876946,-0.11370549,0.0002502
 2,0.00090861,-0.00031190,-0.00013802,0.00043040,-0.00005970,0.00022188
 ,-0.00000594,-0.00067701,-0.00000410,-0.00000197,0.00000421,-0.0000439
 0,-0.00010825,-0.00006377,0.00367892,-0.02222307,-0.01434641,-0.029276
 25,0.23472971,-0.00091228,0.00026138,-0.00425950,0.00039136,0.00203921
 ,-0.00037200,0.00340427,-0.01906764,-0.01445703,-0.00001865,-0.0082993
 2,-0.00570384,0.00007954,-0.00005341,-0.00027586,-0.00055137,-0.000200
 04,-0.00008496,0.00145396,-0.00008078,0.00126777,0.01919354,-0.1158999
 9,-0.12108747,0.00045038,0.00008452,0.00091993,0.00001717,0.00015029,-
 0.00060195,0.00039883,0.00123261,-0.00112429,-0.00003953,-0.00027297,0
 .00000403,-0.00040115,-0.00082530,0.00002785,-0.00250456,0.01433564,0.
 01113031,-0.02094126,0.12650852,0.13470083,0.00020932,-0.00000009,0.00
 111842,-0.00258258,0.00000026,0.00339793,0.00149609,0.00000012,0.00054
 491,0.00004951,-0.00000003,-0.00005447,-0.00092450,0.00000003,-0.00065
 066,-0.01924078,0.00000078,-0.01391209,0.00421483,-0.00000004,0.002001
 24,0.00037678,-0.00000004,0.00020879,0.00001116,0.00000549,0.00002424,
 0.00001118,-0.00000550,0.00002425,-0.27456920,0.00000713,-0.11865635,0
 .00096345,-0.00000015,0.00003424,0.00068685,-0.00000007,-0.00035906,-0
 .00000758,-0.00000669,-0.00002023,-0.00000759,0.00000670,-0.00002024,0
 .28931307,0.00000002,-0.00119428,-0.00000019,0.00000010,0.00688753,-0.
 00000029,0.00000011,0.00700431,0.00000038,-0.00000002,-0.00114547,-0.0
 0000015,0.00000008,0.00003374,0.00000006,0.00000105,0.00386317,0.00000
 027,0.00000033,0.00343188,0.00000036,-0.00000025,0.00086838,0.00000010
 ,-0.00030911,-0.00000199,0.00001548,0.00030912,-0.00000194,-0.00001547
 ,0.00000673,-0.03835076,0.00000343,-0.00000018,-0.00412997,-0.00000002
 ,-0.00000009,-0.00388212,-0.00000015,-0.00007434,0.00001525,-0.0000872
 6,0.00007434,0.00001525,0.00008729,-0.00000790,0.02658704,0.00058754,-
 0.00000006,-0.00078119,0.00343425,-0.00000012,-0.00119115,0.00035375,0
 .00000046,-0.00614735,-0.00012454,0.00000005,-0.00007860,0.00090553,-0
 .00000002,0.00037074,0.01676697,-0.00000059,0.01189622,-0.02804658,0.0
 0000081,-0.01112537,-0.00073943,-0.00000005,0.00017282,-0.00006452,-0.
 00000191,0.00005703,-0.00006456,0.00000190,0.00005704,-0.11927877,0.00
 000342,-0.12515365,-0.00021982,0.00000002,0.00087540,0.00030403,-0.000
 00009,0.00119392,-0.00006646,0.00004537,-0.00008380,-0.00006645,-0.000
 04537,-0.00008381,0.12631908,-0.00000384,0.13002176\\-0.00003717,0.000
 00642,0.00005557,-0.00001166,0.00000328,-0.00002706,0.00006900,-0.0000
 0674,-0.00001193,0.00001066,-0.00000960,-0.00002017,-0.00000361,-0.000
 00024,-0.00000229,0.00006353,-0.00000050,-0.00001264,-0.00002068,-0.00
 000333,-0.00002107,-0.00002203,0.00000938,-0.00000107,-0.00000095,-0.0
 0000724,-0.00000101,0.00000197,0.00000672,0.00000256,-0.00003761,0.000
 00035,0.00005101,-0.00001517,-0.00000027,0.00000039,-0.00000076,0.0000
 0032,-0.00000311,-0.00000095,0.00000731,-0.00000117,0.00000058,-0.0000
 0648,0.00000259,0.00000485,0.00000062,-0.00001059\\\@


 SUCCESS IS NEVER CERTAIN,
 FAILURE IS NEVER FINAL.
 Job cpu time:       0 days  1 hours 15 minutes  2.8 seconds.
 Elapsed time:       0 days  0 hours  6 minutes 19.2 seconds.
 File lengths (MBytes):  RWF=    122 Int=      0 D2E=      0 Chk=     32 Scr=      1
 Normal termination of Gaussian 16 at Fri Jun 10 03:53:21 2022.
