 Entering Gaussian System, Link 0=g16
 Input=int_zmat_field_N50.gjf
 Output=int_zmat_field_N50.out
 Initial command:
 /software/gaussian/g16-a03/l1.exe "/local_scratch/11171322/Gau-25242.inp" -scrdir="/local_scratch/11171322/"
 Entering Link 1 = /software/gaussian/g16-a03/l1.exe PID=     25243.
  
 Copyright (c) 1988,1990,1992,1993,1995,1998,2003,2009,2016,
            Gaussian, Inc.  All Rights Reserved.
  
 This is part of the Gaussian(R) 16 program.  It is based on
 the Gaussian(R) 09 system (copyright 2009, Gaussian, Inc.),
 the Gaussian(R) 03 system (copyright 2003, Gaussian, Inc.),
 the Gaussian(R) 98 system (copyright 1998, Gaussian, Inc.),
 the Gaussian(R) 94 system (copyright 1995, Gaussian, Inc.),
 the Gaussian 92(TM) system (copyright 1992, Gaussian, Inc.),
 the Gaussian 90(TM) system (copyright 1990, Gaussian, Inc.),
 the Gaussian 88(TM) system (copyright 1988, Gaussian, Inc.),
 the Gaussian 86(TM) system (copyright 1986, Carnegie Mellon
 University), and the Gaussian 82(TM) system (copyright 1983,
 Carnegie Mellon University). Gaussian is a federally registered
 trademark of Gaussian, Inc.
  
 This software contains proprietary and confidential information,
 including trade secrets, belonging to Gaussian, Inc.
  
 This software is provided under written license and may be
 used, copied, transmitted, or stored only in accord with that
 written license.
  
 The following legend is applicable only to US Government
 contracts under FAR:
  
                    RESTRICTED RIGHTS LEGEND
  
 Use, reproduction and disclosure by the US Government is
 subject to restrictions as set forth in subparagraphs (a)
 and (c) of the Commercial Computer Software - Restricted
 Rights clause in FAR 52.227-19.
  
 Gaussian, Inc.
 340 Quinnipiac St., Bldg. 40, Wallingford CT 06492
  
  
 ---------------------------------------------------------------
 Warning -- This program may not be used in any manner that
 competes with the business of Gaussian, Inc. or will provide
 assistance to any competitor of Gaussian, Inc.  The licensee
 of this program is prohibited from giving any competitor of
 Gaussian, Inc. access to this program.  By using this program,
 the user acknowledges that Gaussian, Inc. is engaged in the
 business of creating and licensing software in the field of
 computational chemistry and represents and warrants to the
 licensee that it is not a competitor of Gaussian, Inc. and that
 it will not use this program in any manner prohibited above.
 ---------------------------------------------------------------
  

 Cite this work as:
 Gaussian 16, Revision A.03,
 M. J. Frisch, G. W. Trucks, H. B. Schlegel, G. E. Scuseria, 
 M. A. Robb, J. R. Cheeseman, G. Scalmani, V. Barone, 
 G. A. Petersson, H. Nakatsuji, X. Li, M. Caricato, A. V. Marenich, 
 J. Bloino, B. G. Janesko, R. Gomperts, B. Mennucci, H. P. Hratchian, 
 J. V. Ortiz, A. F. Izmaylov, J. L. Sonnenberg, D. Williams-Young, 
 F. Ding, F. Lipparini, F. Egidi, J. Goings, B. Peng, A. Petrone, 
 T. Henderson, D. Ranasinghe, V. G. Zakrzewski, J. Gao, N. Rega, 
 G. Zheng, W. Liang, M. Hada, M. Ehara, K. Toyota, R. Fukuda, 
 J. Hasegawa, M. Ishida, T. Nakajima, Y. Honda, O. Kitao, H. Nakai, 
 T. Vreven, K. Throssell, J. A. Montgomery, Jr., J. E. Peralta, 
 F. Ogliaro, M. J. Bearpark, J. J. Heyd, E. N. Brothers, K. N. Kudin, 
 V. N. Staroverov, T. A. Keith, R. Kobayashi, J. Normand, 
 K. Raghavachari, A. P. Rendell, J. C. Burant, S. S. Iyengar, 
 J. Tomasi, M. Cossi, J. M. Millam, M. Klene, C. Adamo, R. Cammi, 
 J. W. Ochterski, R. L. Martin, K. Morokuma, O. Farkas, 
 J. B. Foresman, and D. J. Fox, Gaussian, Inc., Wallingford CT, 2016.
 
 ******************************************
 Gaussian 16:  ES64L-G16RevA.03 25-Dec-2016
                10-Jun-2022 
 ******************************************
 %nprocshared=12
 Will use up to   12 processors via shared memory.
 %chk=checkpoint.chk
 %mem=12GB
 ----------------------------------------------------------------------
 # Opt=(Z-matrix, MaxStep=10) B3LYP/Def2TZVP geom=allcheckpoint guess=r
 ead Field=read NoSymm freq=noraman pop=none
 ----------------------------------------------------------------------
 1/8=10,10=7,18=40,26=3,29=7,38=1/1,3;
 2/12=2,15=1,29=3,40=1/2;
 3/5=44,7=101,11=2,14=-6,25=1,30=1,71=1,74=-5,116=-2/1,2,3;
 4/5=1/1;
 5/5=2,38=6/2;
 7/29=1,30=1/1,2,3,16;
 1/8=10,10=7,18=40,26=3/3(2);
 2/15=1,29=3/2;
 99//99;
 2/15=1,29=3/2;
 3/5=44,7=101,11=2,14=-2,25=1,30=1,71=1,74=-5/1,2,3;
 4/5=5,16=3,69=1/1;
 5/5=2,38=5/2;
 7/30=1/1,2,3,16;
 1/8=10,18=40,26=3/3(-5);
 2/15=1,29=3/2;
 99/9=1/99;
 Structure from the checkpoint file:  "checkpoint.chk"
 ------------------
 int_zmat_initalOpt
 ------------------
 Charge =  0 Multiplicity = 1
 Z-Matrix found in chk file.
 C
 C,1,R2
 C,1,R3,2,A3
 C,1,R4,2,A4,3,D4,0
 H,2,R5,1,A5,3,D5,0
 C,2,R6,1,A6,5,D6,0
 C,3,R7,1,A7,2,D7,0
 C,3,R8,1,A8,7,D8,0
 H,4,R9,1,A9,2,D9,0
 H,4,R10,1,A10,9,D10,0
 C,6,R11,2,A11,1,D11,0
 H,6,R12,2,A12,11,D12,0
 H,7,R13,3,A13,1,D13,0
 H,8,R14,3,A14,1,D14,0
 H,8,R15,3,A15,14,D15,0
 H,11,R16,6,A16,2,D16,0
      Variables:
 R2=1.38245095
 R3=1.3896385
 R4=1.51957733
 R5=1.083321
 R6=1.39866699
 R7=1.38245161
 R8=1.51957564
 R9=1.09197844
 R10=1.0919781
 R11=1.39690133
 R12=1.08284589
 R13=1.08332044
 R14=1.09197661
 R15=1.09197635
 R16=1.08284633
 A3=122.29192262
 A4=144.13789303
 A5=123.2127924
 A6=116.01023525
 A7=122.29170808
 A8=93.56982055
 A9=115.69507507
 A10=115.69504233
 A11=121.69791821
 A12=119.44390668
 A13=123.21301947
 A14=115.69573521
 A15=115.69571148
 A16=118.85708925
 D4=-180.00009102
 D5=179.99999402
 D6=-180.00008035
 D7=0.00011966
 D8=180.00009567
 D9=-64.35801528
 D10=128.71569601
 D11=0.00002159
 D12=179.9999772
 D13=179.99993428
 D14=115.6411038
 D15=128.71730452
 D16=-179.9999926
 Recover connectivity data from disk.

 GradGradGradGradGradGradGradGradGradGradGradGradGradGradGradGradGradGrad
 Berny optimization.
 Initialization pass.
                       ----------------------------
                       !    Initial Parameters    !
                       ! (Angstroms and Degrees)  !
 ----------------------                            ----------------------
 !      Name          Value   Derivative information (Atomic Units)     !
 ------------------------------------------------------------------------
 !       R2          1.3825   estimate D2E/DX2                          !
 !       R3          1.3896   estimate D2E/DX2                          !
 !       R4          1.5196   estimate D2E/DX2                          !
 !       R5          1.0833   estimate D2E/DX2                          !
 !       R6          1.3987   estimate D2E/DX2                          !
 !       R7          1.3825   estimate D2E/DX2                          !
 !       R8          1.5196   estimate D2E/DX2                          !
 !       R9          1.092    estimate D2E/DX2                          !
 !       R10         1.092    estimate D2E/DX2                          !
 !       R11         1.3969   estimate D2E/DX2                          !
 !       R12         1.0828   estimate D2E/DX2                          !
 !       R13         1.0833   estimate D2E/DX2                          !
 !       R14         1.092    estimate D2E/DX2                          !
 !       R15         1.092    estimate D2E/DX2                          !
 !       R16         1.0828   estimate D2E/DX2                          !
 !       A3        122.2919   estimate D2E/DX2                          !
 !       A4        144.1379   estimate D2E/DX2                          !
 !       A5        123.2128   estimate D2E/DX2                          !
 !       A6        116.0102   estimate D2E/DX2                          !
 !       A7        122.2917   estimate D2E/DX2                          !
 !       A8         93.5698   estimate D2E/DX2                          !
 !       A9        115.6951   estimate D2E/DX2                          !
 !       A10       115.695    estimate D2E/DX2                          !
 !       A11       121.6979   estimate D2E/DX2                          !
 !       A12       119.4439   estimate D2E/DX2                          !
 !       A13       123.213    estimate D2E/DX2                          !
 !       A14       115.6957   estimate D2E/DX2                          !
 !       A15       115.6957   estimate D2E/DX2                          !
 !       A16       118.8571   estimate D2E/DX2                          !
 !       D4       -180.0001   estimate D2E/DX2                          !
 !       D5        180.0      estimate D2E/DX2                          !
 !       D6       -180.0001   estimate D2E/DX2                          !
 !       D7          0.0001   estimate D2E/DX2                          !
 !       D8        180.0001   estimate D2E/DX2                          !
 !       D9        -64.358    estimate D2E/DX2                          !
 !       D10       128.7157   estimate D2E/DX2                          !
 !       D11         0.0      estimate D2E/DX2                          !
 !       D12       180.0      estimate D2E/DX2                          !
 !       D13       179.9999   estimate D2E/DX2                          !
 !       D14       115.6411   estimate D2E/DX2                          !
 !       D15       128.7173   estimate D2E/DX2                          !
 !       D16      -180.0      estimate D2E/DX2                          !
 ------------------------------------------------------------------------
 Trust Radius=1.00D-01 FncErr=1.00D-07 GrdErr=1.00D-06 EigMax=2.50D+02 EigMin=1.00D-04
 Number of steps in this run=     52 maximum allowed number of steps=    100.
 GradGradGradGradGradGradGradGradGradGradGradGradGradGradGradGradGradGrad

 ---------------------------------------------------------------------------------------------------
                            Z-MATRIX (ANGSTROMS AND DEGREES)
   CD    Cent   Atom    N1       Length/X        N2       Alpha/Y        N3        Beta/Z          J
 ---------------------------------------------------------------------------------------------------
      1      1  C 
      2      2  C        1   1.382451(     1)
      3      3  C        1   1.389638(     2)      2  122.292(    16)
      4      4  C        1   1.519577(     3)      2  144.138(    17)      3 -180.000(    30)      0
      5      5  H        2   1.083321(     4)      1  123.213(    18)      3  180.000(    31)      0
      6      6  C        2   1.398667(     5)      1  116.010(    19)      5 -180.000(    32)      0
      7      7  C        3   1.382452(     6)      1  122.292(    20)      2    0.000(    33)      0
      8      8  C        3   1.519576(     7)      1   93.570(    21)      7  180.000(    34)      0
      9      9  H        4   1.091978(     8)      1  115.695(    22)      2  -64.358(    35)      0
     10     10  H        4   1.091978(     9)      1  115.695(    23)      9  128.716(    36)      0
     11     11  C        6   1.396901(    10)      2  121.698(    24)      1    0.000(    37)      0
     12     12  H        6   1.082846(    11)      2  119.444(    25)     11  180.000(    38)      0
     13     13  H        7   1.083320(    12)      3  123.213(    26)      1  180.000(    39)      0
     14     14  H        8   1.091977(    13)      3  115.696(    27)      1  115.641(    40)      0
     15     15  H        8   1.091976(    14)      3  115.696(    28)     14  128.717(    41)      0
     16     16  H       11   1.082846(    15)      6  118.857(    29)      2 -180.000(    42)      0
 ---------------------------------------------------------------------------------------------------
                         Z-Matrix orientation:                         
 ---------------------------------------------------------------------
 Center     Atomic      Atomic             Coordinates (Angstroms)
 Number     Number       Type             X           Y           Z
 ---------------------------------------------------------------------
      1          6           0        0.000000    0.000000    0.000000
      2          6           0        0.000000    0.000000    1.382451
      3          6           0        1.174713    0.000000   -0.742391
      4          6           0       -0.890224   -0.000001   -1.231510
      5          1           0       -0.906352    0.000000    1.975840
      6          6           0        1.257004   -0.000002    1.995811
      7          6           0        2.423361   -0.000002   -0.149052
      8          6           0        0.444463    0.000006   -2.074999
      9          1           0       -1.512692   -0.887091   -1.365756
     10          1           0       -1.512698    0.887084   -1.365752
     11          6           0        2.437858   -0.000003    1.249541
     12          1           0        1.321859   -0.000002    3.076713
     13          1           0        3.348319   -0.000004   -0.712998
     14          1           0        0.590346    0.887097   -2.694839
     15          1           0        0.590349   -0.887078   -2.694848
     16          1           0        3.386298   -0.000005    1.772052
 ---------------------------------------------------------------------
                    Distance matrix (angstroms):
                    1          2          3          4          5
     1  C    0.000000
     2  C    1.382451   0.000000
     3  C    1.389638   2.427942   0.000000
     4  C    1.519577   2.761393   2.122075   0.000000
     5  H    2.173803   1.083321   3.423392   3.207391   0.000000
     6  C    2.358669   1.398667   2.739438   3.876363   2.163448
     7  C    2.427940   2.866737   1.382452   3.485909   3.949956
     8  C    2.122067   3.485902   1.519576   1.578880   4.270129
     9  H    2.222714   3.260032   2.897872   1.091978   3.510105
    10  H    2.222713   3.260030   2.897875   1.091978   3.510101
    11  C    2.739435   2.441478   2.358671   4.151113   3.422170
    12  H    3.348652   2.148915   3.821937   4.842943   2.485326
    13  H    3.423391   3.949956   2.173805   4.270141   5.033098
    14  H    2.897862   4.214231   2.222718   2.262822   4.984204
    15  H    2.897865   4.214236   2.222718   2.262821   4.984210
    16  H    3.821934   3.408636   3.348661   5.225899   4.297484
                    6          7          8          9         10
     6  C    0.000000
     7  C    2.441480   0.000000
     8  C    4.151110   2.761396   0.000000
     9  H    4.445028   4.214238   2.262835   0.000000
    10  H    4.445028   4.214243   2.262835   1.774176   0.000000
    11  C    1.396901   1.398669   3.876363   4.820119   4.820122
    12  H    1.082846   3.408646   5.225893   5.343887   5.343887
    13  H    3.422170   1.083320   3.207402   4.984220   4.984226
    14  H    4.820121   3.260049   1.091977   3.055646   2.487824
    15  H    4.820125   3.260047   1.091976   2.487824   3.055643
    16  H    2.141018   2.148927   4.842953   5.884969   5.884973
                   11         12         13         14         15
    11  C    0.000000
    12  H    2.141030   0.000000
    13  H    2.163447   4.297494   0.000000
    14  H    4.445040   5.884969   3.510136   0.000000
    15  H    4.445041   5.884974   3.510132   1.774175   0.000000
    16  H    1.082846   2.442140   2.485340   5.343913   5.343914
                   16
    16  H    0.000000
 Symmetry turned off by external request.
 Stoichiometry    C8H8
 Framework group  C1[X(C8H8)]
 Deg. of freedom    42
 Full point group                 C1      NOp   1
 Rotational constants (GHZ):           4.4826404           2.0915433           1.4521283
 Standard basis: def2TZVP (5D, 7F)
 The following finite field(s) will be applied:
 An electric field of             -0.0027 -0.0000 -0.0042
   296 basis functions,   472 primitive gaussians,   336 cartesian basis functions
    28 alpha electrons       28 beta electrons
       nuclear repulsion energy       333.1036249222 Hartrees.
 NAtoms=   16 NActive=   16 NUniq=   16 SFac= 1.00D+00 NAtFMM=   60 NAOKFM=F Big=F
 Integral buffers will be    131072 words long.
 Raffenetti 2 integral format.
 Two-electron integral symmetry is turned off.
 One-electron integrals computed using PRISM.
   1 Symmetry operations used in ECPInt.
 ECPInt:  NShTT=    7260 NPrTT=   21936 LenC2=    7147 LenP2D=   17612.
 LDataN:  DoStor=T MaxTD1= 6 Len=  172
 NBasis=   296 RedAO= T EigKep=  8.46D-06  NBF=   296
 NBsUse=   296 1.00D-06 EigRej= -1.00D+00 NBFU=   296
 The nuclear repulsion energy is now       332.8650120515 hartrees.
 Initial guess from the checkpoint file:  "checkpoint.chk"
 B after Tr=     0.000000   -0.000000    0.000000
         Rot=    1.000000    0.000000   -0.000000   -0.000000 Ang=   0.00 deg.
 Requested convergence on RMS density matrix=1.00D-08 within 128 cycles.
 Requested convergence on MAX density matrix=1.00D-06.
 Requested convergence on             energy=1.00D-06.
 No special actions if energy rises.
 SCF Done:  E(RB3LYP) =  -309.743267461     A.U. after    9 cycles
            NFock=  9  Conv=0.75D-08     -V/T= 2.0054
   1 Symmetry operations used in ECPInt.
 ECPInt:  NShTT=    7260 NPrTT=   21936 LenC2=    7147 LenP2D=   17612.
 LDataN:  DoStor=T MaxTD1= 7 Len=  274
 Calling FoFJK, ICntrl=      2127 FMM=F ISym2X=0 I1Cent= 0 IOpClX= 0 NMat=1 NMatS=1 NMatT=0.
 -------------------------------------------------------------------
 Center     Atomic                   Forces (Hartrees/Bohr)
 Number     Number              X              Y              Z
 -------------------------------------------------------------------
      1        6           0.000762901   -0.000000249   -0.000210524
      2        6          -0.000287476   -0.000000170   -0.000068438
      3        6          -0.000518905    0.000000294    0.000599243
      4        6           0.000074977    0.000000392    0.000247174
      5        1           0.000153341    0.000000019    0.000164126
      6        6          -0.000285827    0.000000095    0.000204774
      7        6           0.000060011    0.000000071   -0.000290174
      8        6           0.000190661   -0.000000442    0.000175021
      9        1          -0.000211401   -0.000315957   -0.000102636
     10        1          -0.000211678    0.000316098   -0.000102725
     11        6           0.000307122   -0.000000053   -0.000170486
     12        1           0.000067803   -0.000000010   -0.000169534
     13        1           0.000082507    0.000000034    0.000208050
     14        1          -0.000001576    0.000316315   -0.000235102
     15        1          -0.000001539   -0.000316424   -0.000235374
     16        1          -0.000180921   -0.000000013   -0.000013396
 -------------------------------------------------------------------
 Cartesian Forces:  Max     0.000762901 RMS     0.000232671
 -----------------------------------------------------------------------------------------------
                       Internal Coordinate Forces (Hartree/Bohr or radian)
  Cent   Atom   N1       Length/X         N2         Alpha/Y        N3         Beta/Z          J
 -----------------------------------------------------------------------------------------------
      1  C 
      2  C        1  -0.000053(     1)
      3  C        1  -0.000278(     2)      2  -0.001072(    16)
      4  C        1   0.000170(     3)      2  -0.000746(    17)      3   0.000001(    30)     0
      5  H        2  -0.000038(     4)      1   0.000453(    18)      3  -0.000000(    31)     0
      6  C        2  -0.000148(     5)      1  -0.000484(    19)      5  -0.000000(    32)     0
      7  C        3   0.000093(     6)      1  -0.000098(    20)      2  -0.000002(    33)     0
      8  C        3   0.000169(     7)      1   0.000747(    21)      7  -0.000001(    34)     0
      9  H        4   0.000390(     8)      1   0.000087(    22)      2  -0.000000(    35)     0
     10  H        4   0.000390(     9)      1   0.000087(    23)      9   0.000068(    36)     0
     11  C        6   0.000205(    10)      2  -0.000078(    24)      1  -0.000000(    37)     0
     12  H        6  -0.000165(    11)      2   0.000159(    25)     11   0.000000(    38)     0
     13  H        7  -0.000038(    12)      3   0.000452(    26)      1   0.000000(    39)     0
     14  H        8   0.000390(    13)      3   0.000086(    27)      1  -0.000000(    40)     0
     15  H        8   0.000390(    14)      3   0.000087(    28)     14   0.000067(    41)     0
     16  H       11  -0.000165(    15)      6  -0.000155(    29)      2   0.000000(    42)     0
 -----------------------------------------------------------------------------------------------
 Internal  Forces:  Max     0.001071807 RMS     0.000304208

 GradGradGradGradGradGradGradGradGradGradGradGradGradGradGradGradGradGrad
 Berny optimization.
 Search for a local minimum.
 Step number   1 out of a maximum of   52
 All quantities printed in internal units (Hartrees-Bohrs-Radians)
 Second derivative matrix not updated -- first step.
 ITU=  0
     Eigenvalues ---    0.02529   0.03842   0.04780   0.06014   0.07240
     Eigenvalues ---    0.09251   0.11966   0.15070   0.15341   0.16522
     Eigenvalues ---    0.18050   0.21169   0.21602   0.25539   0.27715
     Eigenvalues ---    0.30418   0.32615   0.32768   0.34379   0.34585
     Eigenvalues ---    0.34585   0.34585   0.34585   0.35003   0.35593
     Eigenvalues ---    0.35597   0.35652   0.35653   0.36035   0.46227
     Eigenvalues ---    0.46464   0.47133   0.48678   0.50360   0.52452
     Eigenvalues ---    0.62342   0.90298   1.36755   2.85834   2.99278
     Eigenvalues ---    6.64957  27.41029
 RFO step:  Lambda=-4.84244513D-06 EMin= 2.52920959D-02
 Linear search not attempted -- first point.
 Variable       Old X    -DE/DX   Delta X   Delta X   Delta X     New X
                                 (Linear)    (Quad)   (Total)
    R2        2.61245  -0.00005   0.00000   0.00012   0.00012   2.61258
    R3        2.62604  -0.00028   0.00000  -0.00081  -0.00081   2.62523
    R4        2.87158   0.00017   0.00000   0.00051   0.00051   2.87210
    R5        2.04718  -0.00004   0.00000  -0.00010  -0.00010   2.04708
    R6        2.64310  -0.00015   0.00000  -0.00025  -0.00025   2.64284
    R7        2.61245   0.00009   0.00000   0.00013   0.00013   2.61259
    R8        2.87158   0.00017   0.00000   0.00052   0.00052   2.87210
    R9        2.06354   0.00039   0.00000   0.00113   0.00113   2.06467
   R10        2.06354   0.00039   0.00000   0.00113   0.00113   2.06467
   R11        2.63976   0.00020   0.00000   0.00028   0.00028   2.64004
   R12        2.04628  -0.00017   0.00000  -0.00046  -0.00046   2.04582
   R13        2.04718  -0.00004   0.00000  -0.00010  -0.00010   2.04707
   R14        2.06354   0.00039   0.00000   0.00113   0.00113   2.06466
   R15        2.06354   0.00039   0.00000   0.00113   0.00113   2.06466
   R16        2.04628  -0.00016   0.00000  -0.00046  -0.00046   2.04582
    A3        2.13440  -0.00107   0.00000   0.00035   0.00035   2.13474
    A4        2.51568  -0.00075   0.00000  -0.00061  -0.00061   2.51507
    A5        2.15047   0.00045   0.00000   0.00165   0.00165   2.15212
    A6        2.02476  -0.00048   0.00000  -0.00054  -0.00054   2.02422
    A7        2.13439  -0.00010   0.00000   0.00035   0.00035   2.13475
    A8        1.63310   0.00075   0.00000   0.00025   0.00025   1.63335
    A9        2.01926   0.00009   0.00000   0.00046   0.00046   2.01972
   A10        2.01926   0.00009   0.00000   0.00047   0.00047   2.01973
   A11        2.12403  -0.00008   0.00000   0.00019   0.00019   2.12422
   A12        2.08469   0.00016   0.00000   0.00035   0.00035   2.08504
   A13        2.15047   0.00045   0.00000   0.00167   0.00167   2.15214
   A14        2.01927   0.00009   0.00000   0.00047   0.00047   2.01974
   A15        2.01927   0.00009   0.00000   0.00047   0.00047   2.01975
   A16        2.07445  -0.00015   0.00000  -0.00057  -0.00057   2.07388
    D4       -3.14159   0.00000   0.00000   0.00000   0.00000  -3.14159
    D5        3.14159  -0.00000   0.00000   0.00000   0.00000   3.14159
    D6       -3.14159  -0.00000   0.00000   0.00000   0.00000  -3.14159
    D7        0.00000  -0.00000   0.00000  -0.00000  -0.00000  -0.00000
    D8        3.14159  -0.00000   0.00000  -0.00000  -0.00000   3.14159
    D9       -1.12326  -0.00000   0.00000  -0.00048  -0.00048  -1.12374
   D10        2.24651   0.00007   0.00000   0.00097   0.00097   2.24749
   D11        0.00000  -0.00000   0.00000  -0.00000  -0.00000   0.00000
   D12        3.14159   0.00000   0.00000  -0.00000  -0.00000   3.14159
   D13        3.14159   0.00000   0.00000   0.00000   0.00000   3.14159
   D14        2.01832  -0.00000   0.00000  -0.00049  -0.00049   2.01783
   D15        2.24654   0.00007   0.00000   0.00099   0.00099   2.24753
   D16       -3.14159   0.00000   0.00000   0.00000   0.00000  -3.14159
         Item               Value     Threshold  Converged?
 Maximum Force            0.001072     0.000450     NO 
 RMS     Force            0.000304     0.000300     NO 
 Maximum Displacement     0.001667     0.001800     YES
 RMS     Displacement     0.000639     0.001200     YES
 Predicted change in Energy=-2.421223D-06
 GradGradGradGradGradGradGradGradGradGradGradGradGradGradGradGradGradGrad

 ---------------------------------------------------------------------------------------------------
                            Z-MATRIX (ANGSTROMS AND DEGREES)
   CD    Cent   Atom    N1       Length/X        N2       Alpha/Y        N3        Beta/Z          J
 ---------------------------------------------------------------------------------------------------
      1      1  C 
      2      2  C        1   1.382517(     1)
      3      3  C        1   1.389211(     2)      2  122.312(    16)
      4      4  C        1   1.519849(     3)      2  144.103(    17)      3 -180.000(    30)      0
      5      5  H        2   1.083266(     4)      1  123.308(    18)      3  180.000(    31)      0
      6      6  C        2   1.398532(     5)      1  115.979(    19)      5 -180.000(    32)      0
      7      7  C        3   1.382522(     6)      1  122.312(    20)      2   -0.000(    33)      0
      8      8  C        3   1.519852(     7)      1   93.584(    21)      7  180.000(    34)      0
      9      9  H        4   1.092575(     8)      1  115.722(    22)      2  -64.386(    35)      0
     10     10  H        4   1.092575(     9)      1  115.722(    23)      9  128.771(    36)      0
     11     11  C        6   1.397047(    10)      2  121.709(    24)      1    0.000(    37)      0
     12     12  H        6   1.082601(    11)      2  119.464(    25)     11  180.000(    38)      0
     13     13  H        7   1.083265(    12)      3  123.309(    26)      1  180.000(    39)      0
     14     14  H        8   1.092573(    13)      3  115.723(    27)      1  115.613(    40)      0
     15     15  H        8   1.092573(    14)      3  115.723(    28)     14  128.774(    41)      0
     16     16  H       11   1.082602(    15)      6  118.825(    29)      2 -180.000(    42)      0
 ---------------------------------------------------------------------------------------------------
                         Z-Matrix orientation:                         
 ---------------------------------------------------------------------
 Center     Atomic      Atomic             Coordinates (Angstroms)
 Number     Number       Type             X           Y           Z
 ---------------------------------------------------------------------
      1          6           0        0.000000    0.000000    0.000000
      2          6           0        0.000000    0.000000    1.382517
      3          6           0        1.174093    0.000000   -0.742571
      4          6           0       -0.891132    0.000002   -1.231189
      5          1           0       -0.905322   -0.000000    1.977374
      6          6           0        1.257214    0.000001    1.995138
      7          6           0        2.423221    0.000002   -0.150080
      8          6           0        0.443581   -0.000004   -2.075351
      9          1           0       -1.513869   -0.887577   -1.365806
     10          1           0       -1.513864    0.887585   -1.365808
     11          6           0        2.437933    0.000002    1.248381
     12          1           0        1.323018    0.000001    3.075737
     13          1           0        3.348676    0.000001   -0.713105
     14          1           0        0.588792    0.887576   -2.695701
     15          1           0        0.588788   -0.887587   -2.695695
     16          1           0        3.386044    0.000002    1.770982
 ---------------------------------------------------------------------
                    Distance matrix (angstroms):
                    1          2          3          4          5
     1  C    0.000000
     2  C    1.382517   0.000000
     3  C    1.389211   2.427858   0.000000
     4  C    1.519849   2.761444   2.122240   0.000000
     5  H    2.174768   1.083266   3.423751   3.208594   0.000000
     6  C    2.358212   1.398532   2.738970   3.876154   2.162610
     7  C    2.427864   2.867203   1.382522   3.486221   3.950350
     8  C    2.122226   3.486203   1.519852   1.579262   4.271314
     9  H    2.223739   3.260808   2.898509   1.092575   3.512118
    10  H    2.223740   3.260809   2.898507   1.092575   3.512121
    11  C    2.738972   2.441620   2.358216   4.151016   3.421810
    12  H    3.348214   2.148807   3.821211   4.842734   2.484331
    13  H    3.423762   3.950349   2.174782   4.271344   5.033406
    14  H    2.898494   4.215011   2.223754   2.263351   4.985759
    15  H    2.898492   4.215008   2.223755   2.263352   4.985756
    16  H    3.821213   3.408254   3.348235   5.225635   4.296326
                    6          7          8          9         10
     6  C    0.000000
     7  C    2.441624   0.000000
     8  C    4.151009   2.761457   0.000000
     9  H    4.445519   4.215028   2.263371   0.000000
    10  H    4.445518   4.215025   2.263372   1.775162   0.000000
    11  C    1.397047   1.398538   3.876162   4.820633   4.820631
    12  H    1.082601   3.408276   5.225621   5.344438   5.344439
    13  H    3.421811   1.083265   3.208627   4.985795   4.985791
    14  H    4.820637   3.260844   1.092573   3.056300   2.487926
    15  H    4.820635   3.260846   1.092573   2.487926   3.056302
    16  H    2.140598   2.148838   4.842764   5.885268   5.885265
                   11         12         13         14         15
    11  C    0.000000
    12  H    2.140623   0.000000
    13  H    2.162609   4.296349   0.000000
    14  H    4.445547   5.885267   3.512183   0.000000
    15  H    4.445547   5.885265   3.512187   1.775162   0.000000
    16  H    1.082602   2.440996   2.484368   5.344498   5.344498
                   16
    16  H    0.000000
 Symmetry turned off by external request.
 Stoichiometry    C8H8
 Framework group  C1[X(C8H8)]
 Deg. of freedom    42
 Full point group                 C1      NOp   1
 Rotational constants (GHZ):           4.4817910           2.0915816           1.4520871
 Standard basis: def2TZVP (5D, 7F)
 The following finite field(s) will be applied:
 An electric field of             -0.0027 -0.0000 -0.0042
   296 basis functions,   472 primitive gaussians,   336 cartesian basis functions
    28 alpha electrons       28 beta electrons
       nuclear repulsion energy       333.0900568258 Hartrees.
 NAtoms=   16 NActive=   16 NUniq=   16 SFac= 1.00D+00 NAtFMM=   60 NAOKFM=F Big=F
 Integral buffers will be    131072 words long.
 Raffenetti 2 integral format.
 Two-electron integral symmetry is turned off.
 One-electron integrals computed using PRISM.
   1 Symmetry operations used in ECPInt.
 ECPInt:  NShTT=    7260 NPrTT=   21936 LenC2=    7147 LenP2D=   17614.
 LDataN:  DoStor=T MaxTD1= 6 Len=  172
 NBasis=   296 RedAO= T EigKep=  8.46D-06  NBF=   296
 NBsUse=   296 1.00D-06 EigRej= -1.00D+00 NBFU=   296
 The nuclear repulsion energy is now       332.8516920213 hartrees.
 Initial guess from the checkpoint file:  "checkpoint.chk"
 B after Tr=    -0.000572    0.000001   -0.000143
         Rot=    1.000000    0.000001   -0.000175    0.000000 Ang=   0.02 deg.
 Requested convergence on RMS density matrix=1.00D-08 within 128 cycles.
 Requested convergence on MAX density matrix=1.00D-06.
 Requested convergence on             energy=1.00D-06.
 No special actions if energy rises.
 SCF Done:  E(RB3LYP) =  -309.743270247     A.U. after    7 cycles
            NFock=  7  Conv=0.78D-08     -V/T= 2.0054
   1 Symmetry operations used in ECPInt.
 ECPInt:  NShTT=    7260 NPrTT=   21936 LenC2=    7147 LenP2D=   17614.
 LDataN:  DoStor=T MaxTD1= 7 Len=  274
 Calling FoFJK, ICntrl=      2127 FMM=F ISym2X=0 I1Cent= 0 IOpClX= 0 NMat=1 NMatS=1 NMatT=0.
 -------------------------------------------------------------------
 Center     Atomic                   Forces (Hartrees/Bohr)
 Number     Number              X              Y              Z
 -------------------------------------------------------------------
      1        6           0.000193509    0.000000322   -0.000165332
      2        6          -0.000095948    0.000000083    0.000006008
      3        6          -0.000231651   -0.000000258    0.000101438
      4        6          -0.000080173   -0.000000519    0.000098227
      5        1           0.000044698   -0.000000000    0.000035987
      6        6          -0.000120758   -0.000000001    0.000052353
      7        6           0.000041227   -0.000000166   -0.000081483
      8        6           0.000121196    0.000000484   -0.000029874
      9        1          -0.000003672   -0.000000618   -0.000003012
     10        1          -0.000003464    0.000000607   -0.000002912
     11        6           0.000097008    0.000000014   -0.000086665
     12        1           0.000034262   -0.000000026    0.000002528
     13        1           0.000012929    0.000000025    0.000053962
     14        1           0.000000250    0.000001004   -0.000004656
     15        1           0.000000241   -0.000000981   -0.000004435
     16        1          -0.000009655    0.000000033    0.000027865
 -------------------------------------------------------------------
 Cartesian Forces:  Max     0.000231651 RMS     0.000067812
 -----------------------------------------------------------------------------------------------
                       Internal Coordinate Forces (Hartree/Bohr or radian)
  Cent   Atom   N1       Length/X         N2         Alpha/Y        N3         Beta/Z          J
 -----------------------------------------------------------------------------------------------
      1  C 
      2  C        1   0.000038(     1)
      3  C        1  -0.000066(     2)      2  -0.000340(    16)
      4  C        1  -0.000024(     3)      2  -0.000353(    17)      3  -0.000001(    30)     0
      5  H        2  -0.000018(     4)      1   0.000112(    18)      3   0.000000(    31)     0
      6  C        2  -0.000001(     5)      1  -0.000028(    19)      5   0.000000(    32)     0
      7  C        3   0.000037(     6)      1   0.000017(    20)      2   0.000001(    33)     0
      8  C        3  -0.000024(     7)      1   0.000358(    21)      7   0.000001(    34)     0
      9  H        4   0.000003(     8)      1   0.000008(    22)      2   0.000000(    35)     0
     10  H        4   0.000003(     9)      1   0.000007(    23)      9  -0.000001(    36)     0
     11  C        6   0.000105(    10)      2   0.000052(    24)      1   0.000000(    37)     0
     12  H        6   0.000005(    11)      2   0.000070(    25)     11   0.000000(    38)     0
     13  H        7  -0.000017(    12)      3   0.000108(    26)      1   0.000000(    39)     0
     14  H        8   0.000003(    13)      3   0.000006(    27)      1   0.000000(    40)     0
     15  H        8   0.000003(    14)      3   0.000005(    28)     14  -0.000003(    41)     0
     16  H       11   0.000005(    15)      6  -0.000059(    29)      2  -0.000000(    42)     0
 -----------------------------------------------------------------------------------------------
 Internal  Forces:  Max     0.000358352 RMS     0.000100666

 GradGradGradGradGradGradGradGradGradGradGradGradGradGradGradGradGradGrad
 Berny optimization.
 Search for a local minimum.
 Step number   2 out of a maximum of   52
 All quantities printed in internal units (Hartrees-Bohrs-Radians)
 Update second derivatives using D2CorN and points    1    2
 DE= -2.79D-06 DEPred=-2.42D-06 R= 1.15D+00
 TightC=F SS=  1.41D+00  RLast= 4.14D-03 DXNew= 1.6818D-01 1.2426D-02
 Trust test= 1.15D+00 RLast= 4.14D-03 DXMaxT set to 1.00D-01
 ITU=  1  0
     Eigenvalues ---    0.02526   0.03842   0.04720   0.06013   0.07240
     Eigenvalues ---    0.09239   0.11785   0.15070   0.15340   0.16522
     Eigenvalues ---    0.18047   0.20336   0.21601   0.24005   0.27626
     Eigenvalues ---    0.30571   0.32164   0.32693   0.34370   0.34585
     Eigenvalues ---    0.34585   0.34585   0.34633   0.34989   0.35580
     Eigenvalues ---    0.35596   0.35653   0.35706   0.36015   0.46192
     Eigenvalues ---    0.46440   0.47138   0.48473   0.50327   0.52160
     Eigenvalues ---    0.62229   0.90259   1.36754   2.85829   2.99278
     Eigenvalues ---    6.64561  27.40965
 RFO step:  Lambda=-1.96810931D-07 EMin= 2.52612873D-02
 Quartic linear search produced a step of  0.17759.
 Variable       Old X    -DE/DX   Delta X   Delta X   Delta X     New X
                                 (Linear)    (Quad)   (Total)
    R2        2.61258   0.00004   0.00002   0.00010   0.00012   2.61270
    R3        2.62523  -0.00007  -0.00014  -0.00020  -0.00034   2.62488
    R4        2.87210  -0.00002   0.00009  -0.00019  -0.00010   2.87200
    R5        2.04708  -0.00002  -0.00002  -0.00004  -0.00006   2.04702
    R6        2.64284  -0.00000  -0.00005   0.00002  -0.00002   2.64282
    R7        2.61259   0.00004   0.00002   0.00009   0.00011   2.61270
    R8        2.87210  -0.00002   0.00009  -0.00020  -0.00011   2.87199
    R9        2.06467   0.00000   0.00020  -0.00017   0.00003   2.06469
   R10        2.06467   0.00000   0.00020  -0.00017   0.00003   2.06469
   R11        2.64004   0.00011   0.00005   0.00018   0.00023   2.64026
   R12        2.04582   0.00000  -0.00008   0.00009   0.00001   2.04583
   R13        2.04707  -0.00002  -0.00002  -0.00004  -0.00006   2.04702
   R14        2.06466   0.00000   0.00020  -0.00017   0.00003   2.06469
   R15        2.06466   0.00000   0.00020  -0.00017   0.00003   2.06469
   R16        2.04582   0.00000  -0.00008   0.00009   0.00001   2.04583
    A3        2.13474  -0.00034   0.00006   0.00008   0.00014   2.13489
    A4        2.51507  -0.00035  -0.00011  -0.00016  -0.00027   2.51480
    A5        2.15212   0.00011   0.00029   0.00022   0.00052   2.15264
    A6        2.02422  -0.00003  -0.00010  -0.00008  -0.00017   2.02405
    A7        2.13475   0.00002   0.00006   0.00005   0.00012   2.13486
    A8        1.63335   0.00036   0.00004   0.00009   0.00014   1.63349
    A9        2.01972   0.00001   0.00008  -0.00001   0.00007   2.01979
   A10        2.01973   0.00001   0.00008  -0.00002   0.00006   2.01979
   A11        2.12422   0.00005   0.00003  -0.00000   0.00003   2.12426
   A12        2.08504   0.00007   0.00006   0.00016   0.00023   2.08527
   A13        2.15214   0.00011   0.00030   0.00020   0.00050   2.15264
   A14        2.01974   0.00001   0.00008  -0.00002   0.00006   2.01980
   A15        2.01975   0.00001   0.00008  -0.00002   0.00006   2.01981
   A16        2.07388  -0.00006  -0.00010  -0.00014  -0.00024   2.07364
    D4       -3.14159  -0.00000   0.00000   0.00001   0.00001  -3.14158
    D5        3.14159   0.00000   0.00000  -0.00001  -0.00001   3.14158
    D6       -3.14159   0.00000   0.00000  -0.00001  -0.00001  -3.14160
    D7       -0.00000   0.00000  -0.00000   0.00003   0.00003   0.00002
    D8        3.14159   0.00000  -0.00000   0.00002   0.00002   3.14161
    D9       -1.12374   0.00000  -0.00009  -0.00004  -0.00012  -1.12386
   D10        2.24749  -0.00000   0.00017  -0.00003   0.00014   2.24763
   D11        0.00000   0.00000  -0.00000   0.00000   0.00000   0.00000
   D12        3.14159   0.00000  -0.00000   0.00000   0.00000   3.14159
   D13        3.14159   0.00000   0.00000  -0.00000  -0.00000   3.14159
   D14        2.01783   0.00000  -0.00009  -0.00003  -0.00011   2.01772
   D15        2.24753  -0.00000   0.00018  -0.00004   0.00013   2.24767
   D16       -3.14159  -0.00000   0.00000  -0.00000  -0.00000  -3.14159
         Item               Value     Threshold  Converged?
 Maximum Force            0.000358     0.000450     YES
 RMS     Force            0.000101     0.000300     YES
 Maximum Displacement     0.000517     0.001800     YES
 RMS     Displacement     0.000162     0.001200     YES
 Predicted change in Energy=-1.475969D-07
 Optimization completed.
    -- Stationary point found.
                       ----------------------------
                       !   Optimized Parameters   !
                       ! (Angstroms and Degrees)  !
 ----------------------                            ----------------------
 !      Name          Value   Derivative information (Atomic Units)     !
 ------------------------------------------------------------------------
 !       R2          1.3825   -DE/DX =    0.0                           !
 !       R3          1.3892   -DE/DX =   -0.0001                        !
 !       R4          1.5198   -DE/DX =    0.0                           !
 !       R5          1.0833   -DE/DX =    0.0                           !
 !       R6          1.3985   -DE/DX =    0.0                           !
 !       R7          1.3825   -DE/DX =    0.0                           !
 !       R8          1.5199   -DE/DX =    0.0                           !
 !       R9          1.0926   -DE/DX =    0.0                           !
 !       R10         1.0926   -DE/DX =    0.0                           !
 !       R11         1.397    -DE/DX =    0.0001                        !
 !       R12         1.0826   -DE/DX =    0.0                           !
 !       R13         1.0833   -DE/DX =    0.0                           !
 !       R14         1.0926   -DE/DX =    0.0                           !
 !       R15         1.0926   -DE/DX =    0.0                           !
 !       R16         1.0826   -DE/DX =    0.0                           !
 !       A3        122.3119   -DE/DX =   -0.0003                        !
 !       A4        144.103    -DE/DX =   -0.0004                        !
 !       A5        123.3076   -DE/DX =    0.0001                        !
 !       A6        115.9793   -DE/DX =    0.0                           !
 !       A7        122.312    -DE/DX =    0.0                           !
 !       A8         93.5842   -DE/DX =    0.0004                        !
 !       A9        115.7217   -DE/DX =    0.0                           !
 !       A10       115.7217   -DE/DX =    0.0                           !
 !       A11       121.709    -DE/DX =    0.0001                        !
 !       A12       119.464    -DE/DX =    0.0001                        !
 !       A13       123.3085   -DE/DX =    0.0001                        !
 !       A14       115.7228   -DE/DX =    0.0                           !
 !       A15       115.7229   -DE/DX =    0.0                           !
 !       A16       118.8246   -DE/DX =   -0.0001                        !
 !       D4       -179.9999   -DE/DX =    0.0                           !
 !       D5        180.0      -DE/DX =    0.0                           !
 !       D6       -180.0      -DE/DX =    0.0                           !
 !       D7         -0.0001   -DE/DX =    0.0                           !
 !       D8        179.9999   -DE/DX =    0.0                           !
 !       D9        -64.3857   -DE/DX =    0.0                           !
 !       D10       128.7715   -DE/DX =    0.0                           !
 !       D11         0.0      -DE/DX =    0.0                           !
 !       D12       180.0      -DE/DX =    0.0                           !
 !       D13       180.0      -DE/DX =    0.0                           !
 !       D14       115.6131   -DE/DX =    0.0                           !
 !       D15       128.7741   -DE/DX =    0.0                           !
 !       D16      -180.0      -DE/DX =    0.0                           !
 ------------------------------------------------------------------------
 GradGradGradGradGradGradGradGradGradGradGradGradGradGradGradGradGradGrad

 ---------------------------------------------------------------------------------------------------
                            Z-MATRIX (ANGSTROMS AND DEGREES)
   CD    Cent   Atom    N1       Length/X        N2       Alpha/Y        N3        Beta/Z          J
 ---------------------------------------------------------------------------------------------------
      1      1  C 
      2      2  C        1   1.382517(     1)
      3      3  C        1   1.389211(     2)      2  122.312(    16)
      4      4  C        1   1.519849(     3)      2  144.103(    17)      3 -180.000(    30)      0
      5      5  H        2   1.083266(     4)      1  123.308(    18)      3  180.000(    31)      0
      6      6  C        2   1.398532(     5)      1  115.979(    19)      5 -180.000(    32)      0
      7      7  C        3   1.382522(     6)      1  122.312(    20)      2   -0.000(    33)      0
      8      8  C        3   1.519852(     7)      1   93.584(    21)      7  180.000(    34)      0
      9      9  H        4   1.092575(     8)      1  115.722(    22)      2  -64.386(    35)      0
     10     10  H        4   1.092575(     9)      1  115.722(    23)      9  128.771(    36)      0
     11     11  C        6   1.397047(    10)      2  121.709(    24)      1    0.000(    37)      0
     12     12  H        6   1.082601(    11)      2  119.464(    25)     11  180.000(    38)      0
     13     13  H        7   1.083265(    12)      3  123.309(    26)      1  180.000(    39)      0
     14     14  H        8   1.092573(    13)      3  115.723(    27)      1  115.613(    40)      0
     15     15  H        8   1.092573(    14)      3  115.723(    28)     14  128.774(    41)      0
     16     16  H       11   1.082602(    15)      6  118.825(    29)      2 -180.000(    42)      0
 ---------------------------------------------------------------------------------------------------
                         Z-Matrix orientation:                         
 ---------------------------------------------------------------------
 Center     Atomic      Atomic             Coordinates (Angstroms)
 Number     Number       Type             X           Y           Z
 ---------------------------------------------------------------------
      1          6           0        0.000000    0.000000    0.000000
      2          6           0        0.000000    0.000000    1.382517
      3          6           0        1.174093    0.000000   -0.742571
      4          6           0       -0.891132    0.000002   -1.231189
      5          1           0       -0.905322   -0.000000    1.977374
      6          6           0        1.257214    0.000001    1.995138
      7          6           0        2.423221    0.000002   -0.150080
      8          6           0        0.443581   -0.000004   -2.075351
      9          1           0       -1.513869   -0.887577   -1.365806
     10          1           0       -1.513864    0.887585   -1.365808
     11          6           0        2.437933    0.000002    1.248381
     12          1           0        1.323018    0.000001    3.075737
     13          1           0        3.348676    0.000001   -0.713105
     14          1           0        0.588792    0.887576   -2.695701
     15          1           0        0.588788   -0.887587   -2.695695
     16          1           0        3.386044    0.000002    1.770982
 ---------------------------------------------------------------------
                    Distance matrix (angstroms):
                    1          2          3          4          5
     1  C    0.000000
     2  C    1.382517   0.000000
     3  C    1.389211   2.427858   0.000000
     4  C    1.519849   2.761444   2.122240   0.000000
     5  H    2.174768   1.083266   3.423751   3.208594   0.000000
     6  C    2.358212   1.398532   2.738970   3.876154   2.162610
     7  C    2.427864   2.867203   1.382522   3.486221   3.950350
     8  C    2.122226   3.486203   1.519852   1.579262   4.271314
     9  H    2.223739   3.260808   2.898509   1.092575   3.512118
    10  H    2.223740   3.260809   2.898507   1.092575   3.512121
    11  C    2.738972   2.441620   2.358216   4.151016   3.421810
    12  H    3.348214   2.148807   3.821211   4.842734   2.484331
    13  H    3.423762   3.950349   2.174782   4.271344   5.033406
    14  H    2.898494   4.215011   2.223754   2.263351   4.985759
    15  H    2.898492   4.215008   2.223755   2.263352   4.985756
    16  H    3.821213   3.408254   3.348235   5.225635   4.296326
                    6          7          8          9         10
     6  C    0.000000
     7  C    2.441624   0.000000
     8  C    4.151009   2.761457   0.000000
     9  H    4.445519   4.215028   2.263371   0.000000
    10  H    4.445518   4.215025   2.263372   1.775162   0.000000
    11  C    1.397047   1.398538   3.876162   4.820633   4.820631
    12  H    1.082601   3.408276   5.225621   5.344438   5.344439
    13  H    3.421811   1.083265   3.208627   4.985795   4.985791
    14  H    4.820637   3.260844   1.092573   3.056300   2.487926
    15  H    4.820635   3.260846   1.092573   2.487926   3.056302
    16  H    2.140598   2.148838   4.842764   5.885268   5.885265
                   11         12         13         14         15
    11  C    0.000000
    12  H    2.140623   0.000000
    13  H    2.162609   4.296349   0.000000
    14  H    4.445547   5.885267   3.512183   0.000000
    15  H    4.445547   5.885265   3.512187   1.775162   0.000000
    16  H    1.082602   2.440996   2.484368   5.344498   5.344498
                   16
    16  H    0.000000
 Symmetry turned off by external request.
 Stoichiometry    C8H8
 Framework group  C1[X(C8H8)]
 Deg. of freedom    42
 Full point group                 C1      NOp   1
 Rotational constants (GHZ):           4.4817910           2.0915816           1.4520871
 1\1\GINC-BHC0026\FOpt\RB3LYP\def2TZVP\C8H8\DHANAWAY\10-Jun-2022\1\\# O
 pt=(Z-matrix, MaxStep=10) B3LYP/Def2TZVP geom=allcheckpoint guess=read
  Field=read NoSymm freq=noraman pop=none\\int_zmat_initalOpt\\0,1\C\C,
 1,R2\C,1,R3,2,A3\C,1,R4,2,A4,3,D4,0\H,2,R5,1,A5,3,D5,0\C,2,R6,1,A6,5,D
 6,0\C,3,R7,1,A7,2,D7,0\C,3,R8,1,A8,7,D8,0\H,4,R9,1,A9,2,D9,0\H,4,R10,1
 ,A10,9,D10,0\C,6,R11,2,A11,1,D11,0\H,6,R12,2,A12,11,D12,0\H,7,R13,3,A1
 3,1,D13,0\H,8,R14,3,A14,1,D14,0\H,8,R15,3,A15,14,D15,0\H,11,R16,6,A16,
 2,D16,0\\R2=1.3825166\R3=1.38921066\R4=1.51984932\R5=1.08326562\R6=1.3
 9853217\R7=1.38252198\R8=1.51985179\R9=1.09257474\R10=1.09257484\R11=1
 .39704724\R12=1.08260131\R13=1.08326514\R14=1.09257339\R15=1.0925735\R
 16=1.08260168\A3=122.31186466\A4=144.10304003\A5=123.30760112\A6=115.9
 792532\A7=122.3120282\A8=93.58420297\A9=115.7216543\A10=115.72174479\A
 11=121.70904586\A12=119.46398977\A13=123.30852416\A14=115.72280973\A15
 =115.72288765\A16=118.82463786\D4=-179.99985045\D5=180.00000268\D6=-17
 9.99996569\D7=-0.00008078\D8=179.9999485\D9=-64.38569377\D10=128.77148
 48\D11=0.00000927\D12=179.99997056\D13=179.99998177\D14=115.6131096\D1
 5=128.77413661\D16=-179.99998338\\Version=ES64L-G16RevA.03\HF=-309.743
 2702\RMSD=7.774e-09\RMSF=6.781e-05\Dipole=0.1999125,0.,0.3166497\PG=C0
 1 [X(C8H8)]\\@


 ON INDUCTION, OR "WHY DO YOU BELIEVE THE SUN WILL RISE TOMORROW?":

 ... THE FARMER WHO HAS FED THE CHICKEN EVERY DAY THROUGHOUT ITS
 LIFE AT LAST WRINGS ITS NECK INSTEAD, SHOWING THAT MORE REFINED VIEWS
 AS TO THE UNIFORMITY OF NATURE WOULD HAVE BEEN USEFUL TO THE CHICKEN.

                               -- BERTRAND RUSSELL
 Job cpu time:       0 days  0 hours 21 minutes 43.4 seconds.
 Elapsed time:       0 days  0 hours  1 minutes 49.2 seconds.
 File lengths (MBytes):  RWF=     51 Int=      0 D2E=      0 Chk=     32 Scr=      1
 Normal termination of Gaussian 16 at Fri Jun 10 03:19:12 2022.
 Link1:  Proceeding to internal job step number  2.
 --------------------------------------------------------------------
 #N Geom=AllCheck Guess=TCheck SCRF=Check GenChk RB3LYP/def2TZVP Freq
 --------------------------------------------------------------------
 1/8=10,10=4,29=7,30=1,38=1,40=1/1,3;
 2/12=2,15=1,40=1/2;
 3/5=44,7=101,11=2,14=-4,25=1,30=1,70=2,71=2,74=-5,116=1,140=1/1,2,3;
 4/5=101/1;
 5/5=2,38=6,98=1/2;
 8/6=4,10=90,11=11/1;
 11/6=1,8=1,9=11,15=111,16=1,31=1/1,2,10;
 10/6=1,31=1/2;
 7/8=1,10=1,25=1,30=1/1,2,3,16;
 1/8=10,10=4,30=1/3;
 99//99;
 Structure from the checkpoint file:  "checkpoint.chk"
 ------------------
 int_zmat_initalOpt
 ------------------
 Charge =  0 Multiplicity = 1
 Z-Matrix found in chk file.
 C
 C,1,R2
 C,1,R3,2,A3
 C,1,R4,2,A4,3,D4,0
 H,2,R5,1,A5,3,D5,0
 C,2,R6,1,A6,5,D6,0
 C,3,R7,1,A7,2,D7,0
 C,3,R8,1,A8,7,D8,0
 H,4,R9,1,A9,2,D9,0
 H,4,R10,1,A10,9,D10,0
 C,6,R11,2,A11,1,D11,0
 H,6,R12,2,A12,11,D12,0
 H,7,R13,3,A13,1,D13,0
 H,8,R14,3,A14,1,D14,0
 H,8,R15,3,A15,14,D15,0
 H,11,R16,6,A16,2,D16,0
      Variables:
 R2=1.3825166
 R3=1.38921066
 R4=1.51984932
 R5=1.08326562
 R6=1.39853217
 R7=1.38252198
 R8=1.51985179
 R9=1.09257474
 R10=1.09257484
 R11=1.39704724
 R12=1.08260131
 R13=1.08326514
 R14=1.09257339
 R15=1.0925735
 R16=1.08260168
 A3=122.31186466
 A4=144.10304003
 A5=123.30760112
 A6=115.9792532
 A7=122.3120282
 A8=93.58420297
 A9=115.7216543
 A10=115.72174479
 A11=121.70904586
 A12=119.46398977
 A13=123.30852416
 A14=115.72280973
 A15=115.72288765
 A16=118.82463786
 D4=-179.99985045
 D5=180.00000268
 D6=-179.99996569
 D7=-0.00008078
 D8=179.9999485
 D9=-64.38569377
 D10=128.7714848
 D11=0.00000927
 D12=179.99997056
 D13=179.99998177
 D14=115.6131096
 D15=128.77413661
 D16=-179.99998338
 Recover connectivity data from disk.

 GradGradGradGradGradGradGradGradGradGradGradGradGradGradGradGradGradGrad
 Berny optimization.
 Initialization pass.
                       ----------------------------
                       !    Initial Parameters    !
                       ! (Angstroms and Degrees)  !
 ----------------------                            ----------------------
 !      Name          Value   Derivative information (Atomic Units)     !
 ------------------------------------------------------------------------
 !       R2          1.3825   calculate D2E/DX2 analytically            !
 !       R3          1.3892   calculate D2E/DX2 analytically            !
 !       R4          1.5198   calculate D2E/DX2 analytically            !
 !       R5          1.0833   calculate D2E/DX2 analytically            !
 !       R6          1.3985   calculate D2E/DX2 analytically            !
 !       R7          1.3825   calculate D2E/DX2 analytically            !
 !       R8          1.5199   calculate D2E/DX2 analytically            !
 !       R9          1.0926   calculate D2E/DX2 analytically            !
 !       R10         1.0926   calculate D2E/DX2 analytically            !
 !       R11         1.397    calculate D2E/DX2 analytically            !
 !       R12         1.0826   calculate D2E/DX2 analytically            !
 !       R13         1.0833   calculate D2E/DX2 analytically            !
 !       R14         1.0926   calculate D2E/DX2 analytically            !
 !       R15         1.0926   calculate D2E/DX2 analytically            !
 !       R16         1.0826   calculate D2E/DX2 analytically            !
 !       A3        122.3119   calculate D2E/DX2 analytically            !
 !       A4        144.103    calculate D2E/DX2 analytically            !
 !       A5        123.3076   calculate D2E/DX2 analytically            !
 !       A6        115.9793   calculate D2E/DX2 analytically            !
 !       A7        122.312    calculate D2E/DX2 analytically            !
 !       A8         93.5842   calculate D2E/DX2 analytically            !
 !       A9        115.7217   calculate D2E/DX2 analytically            !
 !       A10       115.7217   calculate D2E/DX2 analytically            !
 !       A11       121.709    calculate D2E/DX2 analytically            !
 !       A12       119.464    calculate D2E/DX2 analytically            !
 !       A13       123.3085   calculate D2E/DX2 analytically            !
 !       A14       115.7228   calculate D2E/DX2 analytically            !
 !       A15       115.7229   calculate D2E/DX2 analytically            !
 !       A16       118.8246   calculate D2E/DX2 analytically            !
 !       D4       -179.9999   calculate D2E/DX2 analytically            !
 !       D5        180.0      calculate D2E/DX2 analytically            !
 !       D6       -180.0      calculate D2E/DX2 analytically            !
 !       D7         -0.0001   calculate D2E/DX2 analytically            !
 !       D8        179.9999   calculate D2E/DX2 analytically            !
 !       D9        -64.3857   calculate D2E/DX2 analytically            !
 !       D10       128.7715   calculate D2E/DX2 analytically            !
 !       D11         0.0      calculate D2E/DX2 analytically            !
 !       D12       180.0      calculate D2E/DX2 analytically            !
 !       D13       180.0      calculate D2E/DX2 analytically            !
 !       D14       115.6131   calculate D2E/DX2 analytically            !
 !       D15       128.7741   calculate D2E/DX2 analytically            !
 !       D16      -180.0      calculate D2E/DX2 analytically            !
 ------------------------------------------------------------------------
 Trust Radius=1.00D-01 FncErr=1.00D-07 GrdErr=1.00D-07 EigMax=2.50D+02 EigMin=1.00D-04
 Number of steps in this run=      2 maximum allowed number of steps=      2.
 GradGradGradGradGradGradGradGradGradGradGradGradGradGradGradGradGradGrad

                          Input orientation:                          
 ---------------------------------------------------------------------
 Center     Atomic      Atomic             Coordinates (Angstroms)
 Number     Number       Type             X           Y           Z
 ---------------------------------------------------------------------
      1          6           0        0.000000    0.000000    0.000000
      2          6           0        0.000000    0.000000    1.382517
      3          6           0        1.174093    0.000000   -0.742571
      4          6           0       -0.891132    0.000002   -1.231189
      5          1           0       -0.905322   -0.000000    1.977374
      6          6           0        1.257214    0.000001    1.995138
      7          6           0        2.423221    0.000002   -0.150080
      8          6           0        0.443581   -0.000004   -2.075351
      9          1           0       -1.513869   -0.887577   -1.365806
     10          1           0       -1.513864    0.887585   -1.365808
     11          6           0        2.437933    0.000002    1.248381
     12          1           0        1.323018    0.000001    3.075737
     13          1           0        3.348676    0.000001   -0.713105
     14          1           0        0.588792    0.887576   -2.695701
     15          1           0        0.588788   -0.887587   -2.695695
     16          1           0        3.386044    0.000002    1.770982
 ---------------------------------------------------------------------
                    Distance matrix (angstroms):
                    1          2          3          4          5
     1  C    0.000000
     2  C    1.382517   0.000000
     3  C    1.389211   2.427858   0.000000
     4  C    1.519849   2.761444   2.122240   0.000000
     5  H    2.174768   1.083266   3.423751   3.208594   0.000000
     6  C    2.358212   1.398532   2.738970   3.876154   2.162610
     7  C    2.427864   2.867203   1.382522   3.486221   3.950350
     8  C    2.122226   3.486203   1.519852   1.579262   4.271314
     9  H    2.223739   3.260808   2.898509   1.092575   3.512118
    10  H    2.223740   3.260809   2.898507   1.092575   3.512121
    11  C    2.738972   2.441620   2.358216   4.151016   3.421810
    12  H    3.348214   2.148807   3.821211   4.842734   2.484331
    13  H    3.423762   3.950349   2.174782   4.271344   5.033406
    14  H    2.898494   4.215011   2.223754   2.263351   4.985759
    15  H    2.898492   4.215008   2.223755   2.263352   4.985756
    16  H    3.821213   3.408254   3.348235   5.225635   4.296326
                    6          7          8          9         10
     6  C    0.000000
     7  C    2.441624   0.000000
     8  C    4.151009   2.761457   0.000000
     9  H    4.445519   4.215028   2.263371   0.000000
    10  H    4.445518   4.215025   2.263372   1.775162   0.000000
    11  C    1.397047   1.398538   3.876162   4.820633   4.820631
    12  H    1.082601   3.408276   5.225621   5.344438   5.344439
    13  H    3.421811   1.083265   3.208627   4.985795   4.985791
    14  H    4.820637   3.260844   1.092573   3.056300   2.487926
    15  H    4.820635   3.260846   1.092573   2.487926   3.056302
    16  H    2.140598   2.148838   4.842764   5.885268   5.885265
                   11         12         13         14         15
    11  C    0.000000
    12  H    2.140623   0.000000
    13  H    2.162609   4.296349   0.000000
    14  H    4.445547   5.885267   3.512183   0.000000
    15  H    4.445547   5.885265   3.512187   1.775162   0.000000
    16  H    1.082602   2.440996   2.484368   5.344498   5.344498
                   16
    16  H    0.000000
 Symmetry turned off by external request.
 Stoichiometry    C8H8
 Framework group  C1[X(C8H8)]
 Deg. of freedom    42
 Full point group                 C1      NOp   1
 Rotational constants (GHZ):           4.4817910           2.0915816           1.4520871
 Standard basis: def2TZVP (5D, 7F)
 The following finite field(s) will be applied:
 An electric field of             -0.0027 -0.0000 -0.0042
   296 basis functions,   472 primitive gaussians,   336 cartesian basis functions
    28 alpha electrons       28 beta electrons
       nuclear repulsion energy       333.0900568258 Hartrees.
 NAtoms=   16 NActive=   16 NUniq=   16 SFac= 1.00D+00 NAtFMM=   60 NAOKFM=F Big=F
 Integral buffers will be    131072 words long.
 Raffenetti 2 integral format.
 Two-electron integral symmetry is turned off.
 One-electron integrals computed using PRISM.
   1 Symmetry operations used in ECPInt.
 ECPInt:  NShTT=    7260 NPrTT=   21936 LenC2=    7147 LenP2D=   17614.
 LDataN:  DoStor=T MaxTD1= 6 Len=  172
 NBasis=   296 RedAO= T EigKep=  8.46D-06  NBF=   296
 NBsUse=   296 1.00D-06 EigRej= -1.00D+00 NBFU=   296
 The nuclear repulsion energy is now       332.8516920213 hartrees.
 Initial guess from the checkpoint file:  "checkpoint.chk"
 B after Tr=     0.000000    0.000000    0.000000
         Rot=    1.000000    0.000000    0.000000    0.000000 Ang=   0.00 deg.
 Requested convergence on RMS density matrix=1.00D-08 within 128 cycles.
 Requested convergence on MAX density matrix=1.00D-06.
 Requested convergence on             energy=1.00D-06.
 No special actions if energy rises.
 SCF Done:  E(RB3LYP) =  -309.743270247     A.U. after    1 cycles
            NFock=  1  Conv=0.29D-08     -V/T= 2.0054
 DoSCS=F DFT=T ScalE2(SS,OS)=  1.000000  1.000000
 Range of M.O.s used for correlation:     1   296
 NBasis=   296 NAE=    28 NBE=    28 NFC=     0 NFV=     0
 NROrb=    296 NOA=    28 NOB=    28 NVA=   268 NVB=   268

 **** Warning!!: The largest alpha MO coefficient is  0.76898151D+02

   1 Symmetry operations used in ECPInt.
 ECPInt:  NShTT=    7260 NPrTT=   21936 LenC2=    7147 LenP2D=   17614.
 LDataN:  DoStor=T MaxTD1= 7 Len=  274
 Symmetrizing basis deriv contribution to polar:
 IMax=3 JMax=2 DiffMx= 0.00D+00
 G2DrvN: will do    17 centers at a time, making    1 passes.
 Calling FoFCou, ICntrl=  3107 FMM=F I1Cent=   0 AccDes= 0.00D+00.
 End of G2Drv F.D. properties file   721 does not exist.
 End of G2Drv F.D. properties file   722 does not exist.
 End of G2Drv F.D. properties file   788 does not exist.
          IDoAtm=1111111111111111
          Differentiating once with respect to electric field.
                with respect to dipole field.
          Differentiating once with respect to nuclear coordinates.
 Keep R1 ints in memory in canonical form, NReq=985231144.
          There are    51 degrees of freedom in the 1st order CPHF.  IDoFFX=6 NUNeed=     3.
     48 vectors produced by pass  0 Test12= 1.47D-14 1.96D-09 XBig12= 1.21D+02 5.81D+00.
 AX will form    48 AO Fock derivatives at one time.
     48 vectors produced by pass  1 Test12= 1.47D-14 1.96D-09 XBig12= 2.26D+01 1.14D+00.
     48 vectors produced by pass  2 Test12= 1.47D-14 1.96D-09 XBig12= 2.46D-01 1.21D-01.
     48 vectors produced by pass  3 Test12= 1.47D-14 1.96D-09 XBig12= 7.28D-04 3.93D-03.
     48 vectors produced by pass  4 Test12= 1.47D-14 1.96D-09 XBig12= 1.45D-06 2.07D-04.
     41 vectors produced by pass  5 Test12= 1.47D-14 1.96D-09 XBig12= 2.01D-09 6.90D-06.
     13 vectors produced by pass  6 Test12= 1.47D-14 1.96D-09 XBig12= 2.62D-12 2.47D-07.
      3 vectors produced by pass  7 Test12= 1.47D-14 1.96D-09 XBig12= 2.61D-15 1.10D-08.
 InvSVY:  IOpt=1 It=  1 EMax= 1.42D-14
 Solved reduced A of dimension   297 with    51 vectors.
 Isotropic polarizability for W=    0.000000       88.03 Bohr**3.
 End of Minotr F.D. properties file   721 does not exist.
 End of Minotr F.D. properties file   722 does not exist.
 End of Minotr F.D. properties file   788 does not exist.
   1 Symmetry operations used in ECPInt.
 ECPInt:  NShTT=    7260 NPrTT=   21936 LenC2=    7147 LenP2D=   17614.
 LDataN:  DoStor=T MaxTD1= 8 Len=  415
 Calling FoFJK, ICntrl=    100127 FMM=F ISym2X=0 I1Cent= 0 IOpClX= 0 NMat=1 NMatS=1 NMatT=0.
 Full mass-weighted force constant matrix:
 Low frequencies ---   -8.0470   -7.3215   -4.9890    0.0004    0.0005    0.0006
 Low frequencies ---  192.7372  213.3301  401.7624
 Diagonal vibrational polarizability:
        0.7905714       8.3729624       0.7720066
 Harmonic frequencies (cm**-1), IR intensities (KM/Mole), Raman scattering
 activities (A**4/AMU), depolarization ratios for plane and unpolarized
 incident light, reduced masses (AMU), force constants (mDyne/A),
 and normal coordinates:
                      1                      2                      3
                      A                      A                      A
 Frequencies --    192.7372               213.3226               401.7616
 Red. masses --      1.8861                 3.1865                 2.7601
 Frc consts  --      0.0413                 0.0854                 0.2625
 IR Inten    --      0.0003                 7.4593                 5.4866
  Atom  AN      X      Y      Z        X      Y      Z        X      Y      Z
     1   6     0.00  -0.00   0.00     0.00   0.24  -0.00    -0.00  -0.14   0.00
     2   6     0.00   0.09   0.00    -0.00   0.09  -0.00    -0.00   0.22   0.00
     3   6    -0.00   0.00   0.00     0.00   0.24  -0.00    -0.00  -0.14   0.00
     4   6    -0.00  -0.16   0.00    -0.00  -0.12  -0.00     0.00  -0.01  -0.00
     5   1    -0.00   0.16  -0.00    -0.00   0.02  -0.00     0.00   0.60   0.00
     6   6    -0.00   0.08   0.00    -0.00  -0.13  -0.00     0.00  -0.11  -0.00
     7   6     0.00  -0.09   0.00     0.00   0.08   0.00    -0.00   0.22  -0.00
     8   6     0.00   0.16  -0.00    -0.00  -0.12   0.00     0.00  -0.01   0.00
     9   1     0.28  -0.36  -0.00     0.16  -0.27   0.22    -0.08   0.05  -0.07
    10   1    -0.28  -0.36   0.00    -0.16  -0.27  -0.22     0.08   0.05   0.07
    11   6     0.00  -0.07   0.00     0.00  -0.14   0.00     0.00  -0.11  -0.00
    12   1    -0.00   0.15   0.00    -0.00  -0.34  -0.00     0.00  -0.18  -0.00
    13   1     0.00  -0.16   0.00     0.00   0.01   0.00    -0.00   0.60  -0.00
    14   1    -0.12   0.36   0.26    -0.13  -0.26  -0.24     0.03   0.05   0.10
    15   1     0.12   0.36  -0.26     0.13  -0.26   0.24    -0.03   0.05  -0.10
    16   1     0.00  -0.14   0.00     0.00  -0.34   0.00     0.00  -0.18  -0.00
                      4                      5                      6
                      A                      A                      A
 Frequencies --    415.2470               489.5178               551.0060
 Red. masses --      3.3972                 2.8902                 5.7715
 Frc consts  --      0.3451                 0.4081                 1.0324
 IR Inten    --      2.1546                 0.0000                 0.0535
  Atom  AN      X      Y      Z        X      Y      Z        X      Y      Z
     1   6     0.20  -0.00  -0.07     0.00   0.20  -0.00    -0.05  -0.00  -0.10
     2   6     0.00   0.00  -0.11     0.00   0.05  -0.00     0.25   0.00  -0.03
     3   6     0.15  -0.00  -0.15     0.00  -0.20   0.00    -0.07   0.00  -0.09
     4   6    -0.01  -0.00   0.20    -0.00   0.02  -0.00    -0.14   0.00  -0.22
     5   1    -0.12   0.00  -0.30     0.00   0.03  -0.00     0.27  -0.00   0.01
     6   6    -0.11  -0.00   0.04     0.00  -0.20   0.00     0.16   0.00   0.22
     7   6     0.10   0.00   0.05    -0.00  -0.05   0.00    -0.13   0.00   0.21
     8   6    -0.18  -0.00  -0.08    -0.00  -0.02  -0.00    -0.14  -0.00  -0.22
     9   1    -0.04  -0.00   0.35     0.20  -0.16   0.19    -0.13   0.00  -0.24
    10   1    -0.04   0.00   0.35    -0.20  -0.16  -0.19    -0.13  -0.00  -0.24
    11   6    -0.08  -0.00   0.08    -0.00   0.20   0.00     0.13  -0.00   0.24
    12   1    -0.18  -0.00   0.04     0.00  -0.46   0.00    -0.05   0.00   0.24
    13   1     0.22   0.00   0.24    -0.00  -0.03   0.00    -0.11   0.00   0.25
    14   1    -0.33  -0.00  -0.11     0.08   0.16   0.26    -0.16  -0.00  -0.22
    15   1    -0.33   0.00  -0.11    -0.08   0.16  -0.26    -0.16   0.00  -0.22
    16   1    -0.12  -0.00   0.15    -0.00   0.46   0.00     0.23  -0.00   0.06
                      7                      8                      9
                      A                      A                      A
 Frequencies --    645.6765               717.6204               735.7745
 Red. masses --      6.3077                 3.4287                 1.1376
 Frc consts  --      1.5493                 1.0403                 0.3629
 IR Inten    --      0.0469                 0.0000                37.2150
  Atom  AN      X      Y      Z        X      Y      Z        X      Y      Z
     1   6     0.15   0.00   0.13     0.00   0.21  -0.00     0.00   0.01   0.00
     2   6     0.04  -0.00   0.24     0.00  -0.18  -0.00     0.00  -0.05   0.00
     3   6    -0.06   0.00  -0.19     0.00  -0.21   0.00     0.00   0.01  -0.00
     4   6     0.22  -0.00   0.02    -0.00   0.06  -0.00     0.00   0.04  -0.00
     5   1    -0.06  -0.00   0.08     0.00  -0.34  -0.00    -0.00   0.36  -0.00
     6   6    -0.00   0.00   0.31    -0.00   0.18  -0.00     0.00  -0.04   0.00
     7   6    -0.20  -0.00  -0.14    -0.00   0.18  -0.00    -0.00  -0.05  -0.00
     8   6     0.08  -0.00  -0.21     0.00  -0.06  -0.00     0.00   0.04   0.00
     9   1     0.21   0.01   0.02     0.16  -0.09   0.24     0.27  -0.15  -0.01
    10   1     0.21  -0.01   0.02    -0.16  -0.09  -0.24    -0.27  -0.15   0.01
    11   6    -0.28   0.00  -0.13     0.00  -0.18   0.00    -0.00  -0.04  -0.00
    12   1     0.27  -0.00   0.29    -0.00   0.30  -0.00     0.00   0.43   0.00
    13   1    -0.10  -0.00   0.02    -0.00   0.34  -0.00    -0.00   0.36  -0.00
    14   1     0.07   0.01  -0.20     0.15   0.09   0.25     0.13  -0.15  -0.23
    15   1     0.07  -0.01  -0.20    -0.15   0.09  -0.25    -0.13  -0.15   0.23
    16   1    -0.15  -0.00  -0.37     0.00  -0.30   0.00    -0.00   0.43  -0.00
                     10                     11                     12
                      A                      A                      A
 Frequencies --    792.4034               801.6132               866.1794
 Red. masses --      3.8334                 1.1833                 4.4286
 Frc consts  --      1.4182                 0.4480                 1.9576
 IR Inten    --      0.7843                24.4152                 0.6373
  Atom  AN      X      Y      Z        X      Y      Z        X      Y      Z
     1   6    -0.03  -0.00   0.09    -0.00   0.05   0.00     0.07  -0.00  -0.06
     2   6    -0.16   0.00   0.23    -0.00  -0.03   0.00     0.15  -0.00  -0.05
     3   6     0.09  -0.00   0.02    -0.00   0.05   0.00     0.09  -0.00  -0.04
     4   6     0.03  -0.00  -0.21     0.00  -0.05   0.00    -0.25  -0.00  -0.13
     5   1    -0.10  -0.00   0.33     0.00   0.17   0.00     0.00   0.00  -0.27
     6   6    -0.03   0.00   0.02     0.00  -0.04  -0.00    -0.00  -0.00   0.21
     7   6     0.27   0.00  -0.04    -0.00  -0.03   0.00     0.11   0.00  -0.11
     8   6    -0.20   0.00  -0.07    -0.00  -0.05  -0.00     0.01   0.00   0.28
     9   1     0.03   0.01  -0.33    -0.34   0.17   0.13    -0.19  -0.02  -0.27
    10   1     0.03  -0.01  -0.33     0.34   0.17  -0.13    -0.19   0.02  -0.27
    11   6     0.03  -0.00  -0.01     0.00  -0.04   0.00    -0.19  -0.00  -0.09
    12   1     0.19  -0.00   0.01    -0.00   0.37  -0.00     0.08   0.00   0.20
    13   1     0.34   0.00   0.05    -0.00   0.17  -0.00     0.25  -0.00   0.11
    14   1    -0.31  -0.01  -0.11    -0.27   0.17   0.25     0.16  -0.02   0.29
    15   1    -0.31   0.01  -0.11     0.27   0.17  -0.25     0.16   0.02   0.29
    16   1    -0.07   0.00   0.18     0.00   0.37   0.00    -0.15   0.00  -0.16
                     13                     14                     15
                      A                      A                      A
 Frequencies --    885.5908               904.6803               947.0464
 Red. masses --      1.2600                 3.4416                 1.3579
 Frc consts  --      0.5822                 1.6596                 0.7175
 IR Inten    --      0.0000                 0.9418                 0.1721
  Atom  AN      X      Y      Z        X      Y      Z        X      Y      Z
     1   6     0.00   0.00  -0.00     0.04   0.00  -0.01     0.00   0.02   0.00
     2   6     0.00   0.09  -0.00     0.07  -0.00  -0.10    -0.00  -0.10   0.00
     3   6    -0.00  -0.00  -0.00    -0.02  -0.00   0.03     0.00   0.01  -0.00
     4   6     0.00  -0.01  -0.00     0.29  -0.00  -0.09    -0.00   0.00  -0.00
     5   1     0.00  -0.63  -0.00     0.04   0.00  -0.16    -0.00   0.53  -0.00
     6   6    -0.00   0.05   0.00     0.01  -0.00  -0.03    -0.00   0.07  -0.00
     7   6    -0.00  -0.09   0.00    -0.12   0.00   0.02    -0.00  -0.10   0.00
     8   6    -0.00   0.01   0.00    -0.21   0.00   0.22     0.00   0.00   0.00
     9   1    -0.03   0.02  -0.05     0.33   0.00  -0.26    -0.04   0.01   0.11
    10   1     0.03   0.02   0.05     0.33  -0.00  -0.26     0.04   0.01  -0.11
    11   6    -0.00  -0.05  -0.00    -0.03   0.00  -0.00     0.00   0.07   0.00
    12   1     0.00  -0.30   0.00    -0.10   0.00  -0.02     0.00  -0.42   0.00
    13   1    -0.00   0.63  -0.00    -0.16  -0.00  -0.03    -0.00   0.53  -0.00
    14   1    -0.03  -0.02  -0.05    -0.38  -0.00   0.19    -0.12   0.01  -0.01
    15   1     0.03  -0.02   0.05    -0.38   0.00   0.19     0.12   0.01   0.01
    16   1    -0.00   0.29  -0.00     0.02  -0.00  -0.10     0.00  -0.42  -0.00
                     16                     17                     18
                      A                      A                      A
 Frequencies --    995.8802              1024.6049              1048.3960
 Red. masses --      1.2869                 2.1669                 2.0450
 Frc consts  --      0.7520                 1.3403                 1.3243
 IR Inten    --      0.0000                 2.2567                 0.0000
  Atom  AN      X      Y      Z        X      Y      Z        X      Y      Z
     1   6     0.00   0.01  -0.00     0.00   0.00  -0.02    -0.00   0.14  -0.00
     2   6     0.00   0.05   0.00    -0.13  -0.00  -0.04    -0.00  -0.02   0.00
     3   6    -0.00  -0.01  -0.00    -0.02  -0.00  -0.00     0.00  -0.14  -0.00
     4   6     0.00   0.00  -0.00     0.01  -0.00   0.01    -0.00  -0.16   0.00
     5   1     0.00  -0.32   0.00    -0.40  -0.00  -0.45     0.00   0.06   0.00
     6   6    -0.00  -0.10   0.00    -0.02  -0.00   0.18     0.00  -0.00   0.00
     7   6     0.00  -0.05   0.00     0.02  -0.00  -0.13     0.00   0.02  -0.00
     8   6    -0.00  -0.00   0.00    -0.00   0.00   0.01     0.00   0.16  -0.00
     9   1     0.00  -0.00   0.02     0.02  -0.00   0.02    -0.35   0.13  -0.29
    10   1    -0.00  -0.00  -0.02     0.02   0.00   0.02     0.35   0.13   0.29
    11   6    -0.00   0.10  -0.00     0.18   0.00   0.06    -0.00   0.00   0.00
    12   1    -0.00   0.62  -0.00    -0.19  -0.00   0.21     0.00   0.05  -0.00
    13   1    -0.00   0.32  -0.00    -0.23  -0.00  -0.56     0.00  -0.06   0.00
    14   1     0.01   0.00   0.01     0.01   0.00   0.02    -0.11  -0.13  -0.44
    15   1    -0.01   0.00  -0.01     0.01  -0.00   0.02     0.11  -0.13   0.44
    16   1     0.00  -0.62  -0.00     0.27   0.00  -0.08    -0.00  -0.05   0.00
                     19                     20                     21
                      A                      A                      A
 Frequencies --   1090.7040              1104.9105              1154.4601
 Red. masses --      1.1757                 3.0051                 1.7283
 Frc consts  --      0.8241                 2.1615                 1.3572
 IR Inten    --      0.3496                 0.2537                 1.5393
  Atom  AN      X      Y      Z        X      Y      Z        X      Y      Z
     1   6    -0.00   0.06  -0.00    -0.17  -0.00  -0.02    -0.11  -0.00  -0.06
     2   6     0.00  -0.02  -0.00     0.18   0.00  -0.09    -0.05  -0.00  -0.06
     3   6    -0.00   0.06   0.00    -0.05  -0.00   0.17     0.01  -0.00   0.12
     4   6     0.00  -0.06   0.00     0.08   0.00   0.03     0.04   0.00  -0.00
     5   1     0.00   0.11   0.00     0.37  -0.00   0.18    -0.24  -0.00  -0.35
     6   6    -0.00   0.00   0.00    -0.05   0.00   0.09     0.07   0.00   0.07
     7   6     0.00  -0.02  -0.00     0.16   0.00  -0.13     0.04   0.00   0.07
     8   6    -0.00  -0.06  -0.00     0.00   0.00  -0.09     0.02  -0.00  -0.04
     9   1    -0.04   0.04  -0.49     0.04   0.01   0.16    -0.01   0.00   0.20
    10   1     0.04   0.04   0.49     0.04  -0.01   0.16    -0.01  -0.00   0.20
    11   6    -0.00   0.00  -0.00    -0.10   0.00   0.01    -0.03  -0.00  -0.09
    12   1    -0.00  -0.02   0.00    -0.42  -0.00   0.11     0.46   0.00   0.05
    13   1     0.00   0.11  -0.00    -0.01  -0.00  -0.41     0.21   0.00   0.37
    14   1     0.42   0.04   0.24    -0.13   0.01  -0.11    -0.18   0.00  -0.08
    15   1    -0.42   0.04  -0.24    -0.13  -0.01  -0.11    -0.18  -0.00  -0.08
    16   1    -0.00  -0.02   0.00    -0.28  -0.00   0.33     0.15   0.00  -0.43
                     22                     23                     24
                      A                      A                      A
 Frequencies --   1181.5119              1183.3549              1202.7523
 Red. masses --      1.2053                 1.1383                 1.6231
 Frc consts  --      0.9913                 0.9392                 1.3834
 IR Inten    --      0.1058                 0.0000                 0.4100
  Atom  AN      X      Y      Z        X      Y      Z        X      Y      Z
     1   6     0.05   0.00   0.03     0.00  -0.03   0.00    -0.08  -0.00   0.00
     2   6     0.01  -0.00  -0.01     0.00   0.01  -0.00    -0.02   0.00  -0.02
     3   6     0.00  -0.00   0.06    -0.00   0.03   0.00     0.04   0.00  -0.07
     4   6    -0.02   0.00  -0.02    -0.00  -0.07  -0.00    -0.04  -0.00   0.13
     5   1    -0.20  -0.00  -0.34    -0.00  -0.00  -0.00     0.01  -0.00   0.04
[...]
 GradGradGradGradGradGradGradGradGradGradGradGradGradGradGradGradGradGrad


 ----------------------------------------------------------------------

 Electric dipole moment (input orientation):
 (Debye = 10**-18 statcoulomb cm , SI units = C m)
                  (au)            (Debye)         (10**-30 SI)
   Tot        0.374477D+00      0.951826D+00      0.317495D+01
   x          0.199917D+00      0.508139D+00      0.169497D+01
   y          0.000000D+00      0.000000D+00      0.000000D+00
   z          0.316649D+00      0.804841D+00      0.268466D+01

 Dipole polarizability, Alpha (input orientation).
 (esu units = cm**3 , SI units = C**2 m**2 J**-1)
 Alpha(0;0):
               (au)            (10**-24 esu)      (10**-40 SI)
   iso        0.880335D+02      0.130452D+02      0.145148D+02
   aniso      0.513065D+02      0.760284D+01      0.845930D+01
   xx         0.100591D+03      0.149060D+02      0.165852D+02
   yx         0.194024D-04      0.287514D-05      0.319902D-05
   yy         0.553742D+02      0.820561D+01      0.912998D+01
   zx         0.795302D+01      0.117852D+01      0.131128D+01
   zy         0.226321D-04      0.335374D-05      0.373154D-05
   zz         0.108136D+03      0.160240D+02      0.178291D+02

 ----------------------------------------------------------------------

 Dipole orientation:
     6          0.00000000          0.00000000          0.00000000
     6         -1.39474174          0.00000007          2.20913058
     6          2.62522684         -0.00000002         -0.00208320
     6         -0.18186950          0.00000432         -2.86633494
     1         -3.44147908          0.00000001          2.24632882
     6         -0.00387053          0.00000165          4.45637227
     6          4.02348459          0.00000314          2.20483566
     6          2.80250271         -0.00000672         -2.86871058
     1         -1.04113603         -1.67727750         -3.70968346
     1         -1.04112541          1.67729248         -3.70968210
     6          2.63616531          0.00000344          4.45428486
     1         -0.98887798          0.00000242          6.24945333
     1          6.07027705          0.00000263          2.23881268
     1          3.66037134          1.67727459         -3.71347576
     1          3.66036064         -1.67729604         -3.71347121
     1          3.62393461          0.00000410          6.24584677

 Electric dipole moment (dipole orientation):
 (Debye = 10**-18 statcoulomb cm , SI units = C m)
                  (au)            (Debye)         (10**-30 SI)
   Tot        0.374477D+00      0.951826D+00      0.317495D+01
   x          0.000000D+00      0.000000D+00      0.000000D+00
   y          0.000000D+00      0.000000D+00      0.000000D+00
   z          0.374477D+00      0.951826D+00      0.317495D+01

 Dipole polarizability, Alpha (dipole orientation).
 (esu units = cm**3 , SI units = C**2 m**2 J**-1)
 Alpha(0;0):
               (au)            (10**-24 esu)      (10**-40 SI)
   iso        0.880335D+02      0.130452D+02      0.145148D+02
   aniso      0.513065D+02      0.760284D+01      0.845930D+01
   xx         0.955608D+02      0.141606D+02      0.157558D+02
   yx         0.000000D+00      0.000000D+00      0.000000D+00
   yy         0.553742D+02      0.820561D+01      0.912998D+01
   zx         0.138914D-01      0.205850D-02      0.229039D-02
   zy         0.310613D-04      0.460282D-05      0.512132D-05
   zz         0.113165D+03      0.167694D+02      0.186585D+02

 ----------------------------------------------------------------------
 1\1\GINC-BHC0026\Freq\RB3LYP\def2TZVP\C8H8\DHANAWAY\10-Jun-2022\1\\#N 
 Geom=AllCheck Guess=TCheck SCRF=Check GenChk RB3LYP/def2TZVP Freq\\int
 _zmat_initalOpt\\0,1\C\C,1,R2\C,1,R3,2,A3\C,1,R4,2,A4,3,D4,0\H,2,R5,1,
 A5,3,D5,0\C,2,R6,1,A6,5,D6,0\C,3,R7,1,A7,2,D7,0\C,3,R8,1,A8,7,D8,0\H,4
 ,R9,1,A9,2,D9,0\H,4,R10,1,A10,9,D10,0\C,6,R11,2,A11,1,D11,0\H,6,R12,2,
 A12,11,D12,0\H,7,R13,3,A13,1,D13,0\H,8,R14,3,A14,1,D14,0\H,8,R15,3,A15
 ,14,D15,0\H,11,R16,6,A16,2,D16,0\\R2=1.3825166\R3=1.38921066\R4=1.5198
 4932\R5=1.08326562\R6=1.39853217\R7=1.38252198\R8=1.51985179\R9=1.0925
 7474\R10=1.09257484\R11=1.39704724\R12=1.08260131\R13=1.08326514\R14=1
 .09257339\R15=1.0925735\R16=1.08260168\A3=122.31186466\A4=144.10304003
 \A5=123.30760112\A6=115.9792532\A7=122.3120282\A8=93.58420297\A9=115.7
 216543\A10=115.72174479\A11=121.70904586\A12=119.46398977\A13=123.3085
 2416\A14=115.72280973\A15=115.72288765\A16=118.82463786\D4=-179.999850
 45\D5=180.00000268\D6=-179.99996569\D7=-0.00008078\D8=179.9999485\D9=-
 64.38569377\D10=128.7714848\D11=0.00000927\D12=179.99997056\D13=179.99
 998177\D14=115.6131096\D15=128.77413661\D16=-179.99998338\\Version=ES6
 4L-G16RevA.03\HF=-309.7432702\RMSD=2.861e-09\RMSF=6.782e-05\ZeroPoint=
 0.1340275\Thermal=0.1400123\Dipole=0.1999171,0.,0.3166486\DipoleDeriv=
 0.0481566,-0.0000006,0.2524112,-0.0000027,-0.1022719,-0.0000025,0.0005
 081,-0.0000003,-0.0608711,0.0669511,0.0000001,-0.1173888,0.0000009,-0.
 0964335,0.0000006,-0.0788697,0.0000001,0.0511098,-0.1388236,0.,-0.0881
 529,0.0000014,-0.1023126,0.0000033,0.1637774,0.0000009,0.1260074,0.129
 8551,0.0000009,0.0151568,0.000002,0.2298897,0.0000008,0.0801514,-0.000
 0002,0.030468,-0.0544654,0.,0.0871845,0.,0.125893,0.,0.0678404,0.,0.01
 88111,-0.0930212,0.0000001,-0.0825717,0.0000003,-0.1366923,0.,0.032063
 9,0.,0.0581929,0.1300143,0.,-0.048942,-0.0000007,-0.0964336,-0.0000006
 ,-0.0874781,-0.0000001,-0.0119499,0.0118202,0.0000004,0.0242193,0.,0.2
 299093,-0.000002,-0.0407834,-0.0000008,0.1485928,-0.0882949,-0.0799619
 ,-0.0559349,-0.1549947,-0.0787802,-0.057573,-0.0673993,-0.0179593,-0.0
 102178,-0.0882927,0.0799615,-0.0559345,0.1549938,-0.0787806,0.0575732,
 -0.0673997,0.0179597,-0.010218,0.0499885,0.0000002,0.0998938,0.0000003
 ,-0.1366889,-0.0000003,-0.0147433,-0.0000001,-0.0847779,0.0660606,0.,-
 0.0145784,-0.0000003,0.137198,0.,-0.0077442,0.,-0.0641476,-0.0547203,0
 .,0.067763,0.0000003,0.1258896,-0.0000003,0.0871128,0.,0.0189963,0.023
 193,-0.0180469,-0.0145276,-0.0144136,-0.0787916,0.1647354,-0.0030606,0
 .0799499,-0.1217472,0.0231932,0.0180464,-0.0145288,0.0144131,-0.078792
 4,-0.1647347,-0.003061,-0.0799498,-0.1217452,-0.0316144,-0.0000001,-0.
 0540688,-0.0000002,0.1371978,0.0000002,-0.0609148,0.,0.0334963\Polar=1
 00.5906882,0.0000194,55.3742235,7.9530174,0.0000226,108.1355313\PG=C01
  [X(C8H8)]\NImag=0\\0.56506974,-0.00000012,0.15795850,-0.03154082,0.00
 000005,0.76647344,-0.13214168,0.00000007,0.03175286,0.69170216,-0.0000
 0003,-0.06057732,0.00000007,0.00000012,0.13035071,-0.01756673,0.000000
 09,-0.34092954,-0.06597151,-0.00000001,0.68230761,-0.25666821,0.000000
 03,0.06167140,0.03678687,0.00000008,0.07296776,0.75390579,0.00000006,-
 0.07798831,-0.00000004,0.00000004,0.00968761,0.00000003,0.00000036,0.1
 5792660,0.15010529,-0.00000004,-0.15621835,0.02110347,-0.00000002,-0.0
 3353904,0.05802471,0.00000049,0.57763323,-0.09865532,0.00000005,-0.045
 57586,0.00562777,-0.00000002,-0.00152183,-0.08615333,0.00000016,-0.022
 35573,0.54247055,0.00000007,-0.07005342,0.00000006,0.,-0.00182886,0.,0
 .,0.01572987,0.,0.00000030,0.57197465,-0.08217392,0.00000010,-0.137169
 67,-0.01219573,0.00000005,-0.00693911,-0.01524738,0.00000002,-0.009688
 13,0.06668747,-0.00000051,0.33450287,0.00454959,0.,-0.00040359,-0.2499
 3237,-0.00000001,0.12458398,0.00204997,0.,-0.00153441,-0.00008164,0.,0
 .00060290,0.26428855,0.,0.00295042,-0.00000005,0.,-0.03623107,0.000000
 04,0.,0.00909936,0.,0.,-0.00365408,0.,0.00000002,0.02451827,0.03001554
 ,0.,-0.00963641,0.12692154,0.,-0.14348727,-0.00169285,0.,-0.00376344,-
 0.00069867,0.,0.00047859,-0.13795325,0.,0.14658514,0.03209000,-0.00000
 006,-0.08439662,-0.28037790,-0.00000007,-0.03931357,-0.07180322,-0.000
 00002,0.00549357,0.00399158,-0.00000003,0.00404483,-0.01842095,-0.0000
 0003,-0.01253609,0.63665732,0.,0.00736457,-0.00000003,-0.00000015,-0.0
 6051638,-0.00000007,-0.00000003,-0.00711836,0.,0.,0.00735175,0.,0.,0.0
 0239363,0.,0.00000038,0.13546331,-0.03625624,0.00000002,-0.02986936,-0
 .10489113,-0.00000009,-0.16140199,0.00525716,0.00000002,-0.00169267,0.
 00253807,0.,-0.00245983,0.01791414,0.,0.01186681,0.00745957,0.00000008
 ,0.72825389,-0.05703851,-0.00000003,0.02845767,-0.01720090,-0.00000004
 ,-0.03168752,-0.30807024,-0.00000036,-0.10101459,-0.00455922,0.,0.0001
 3172,0.00002997,0.00000001,-0.00073356,0.03860323,0.00000001,0.0246517
 0,0.73511418,0.,0.00968711,0.,-0.00000002,-0.00509797,-0.00000001,-0.0
 0000033,-0.06056660,-0.00000018,0.00000002,0.00859020,-0.00000002,0.,-
 0.00066486,0.,0.00000002,0.00640991,-0.00000001,0.00000036,0.13035114,
 -0.02340296,0.,0.06030006,-0.02887517,-0.00000003,-0.04593372,-0.05169
 471,-0.00000024,-0.16498823,-0.00088118,0.00000002,-0.00052195,-0.0005
 2866,0.,-0.00091894,0.07221873,0.00000004,-0.03124501,-0.04538442,0.00
 000034,0.63886736,-0.00916987,0.00000005,0.02125989,-0.00097374,0.0000
 0002,0.00183138,-0.08063787,-0.00000015,-0.07362138,-0.10702075,0.0000
 0015,0.04678479,0.00025412,0.,0.00048965,-0.00047209,0.,0.00033739,0.0
 0068029,-0.00000005,-0.01454155,0.32104791,0.00000001,0.01572210,-0.00
 000006,-0.00000001,0.00858934,-0.00000002,-0.00000006,-0.07004523,-0.0
 0000016,0.00000012,-0.08532435,-0.00000009,0.,-0.00056000,0.,0.0000000
 3,-0.00119335,0.,0.,-0.00182876,-0.00000003,0.00000046,0.57196491,0.01
 415465,-0.00000022,-0.08667299,0.00081902,-0.00000001,-0.00410947,-0.0
 3702078,-0.00000017,-0.15519039,0.03360086,-0.00000004,-0.06890334,0.0
 0006116,0.,-0.00078514,0.00277999,0.,-0.00130146,-0.00386671,0.,-0.001
 99145,-0.03834124,-0.00000012,0.55590878,-0.00949611,-0.01014853,-0.00
 284740,0.00062948,-0.00005641,0.00125456,-0.00326856,0.00014159,-0.001
 35837,-0.12426882,-0.11852823,-0.01559440,0.00011639,-0.00059927,-0.00
 024287,-0.00080299,0.00071489,-0.00016052,-0.00044801,0.00195594,-0.00
 025023,-0.00970343,-0.01709768,-0.00341711,0.13669936,0.00068472,0.003
 25766,-0.00127883,-0.00013577,0.00031233,0.00056691,0.00023312,0.00033
 048,-0.00093804,-0.11737274,-0.22186101,-0.02395981,-0.00005426,-0.000
 06620,-0.00005940,-0.00061874,-0.00005398,-0.00010913,0.00033773,-0.00
 030227,0.00038160,0.00277493,0.00151252,0.00078315,0.12902395,0.237392
 75,-0.01352779,-0.02324170,-0.00129122,-0.00031326,0.00010816,0.001350
 81,-0.00105519,0.00083450,-0.00279573,-0.01682373,-0.02668432,-0.04943
 047,0.00019608,-0.00063641,-0.00030315,-0.00070100,0.00130745,-0.00002
 433,-0.00026763,0.00038296,0.00105967,0.00833892,0.01724207,0.00177704
 ,0.02028291,0.02812256,0.04891675,-0.00949601,0.01014856,-0.00284737,0
 .00062948,0.00005641,0.00125456,-0.00326849,-0.00014158,-0.00135833,-0
 .12426742,0.11852763,-0.01559460,0.00011639,0.00059927,-0.00024286,-0.
 00080298,-0.00071489,-0.00016052,-0.00044802,-0.00195594,-0.00025024,-
 0.00970333,0.01709773,-0.00341717,0.01134484,-0.01468834,0.00235159,0.
 13669770,-0.00068470,0.00325766,0.00127884,0.00013576,0.00031232,-0.00
 056691,-0.00023312,0.00033048,0.00093802,0.11737212,-0.22186224,0.0239
 6034,0.00005426,-0.00006620,0.00005940,0.00061873,-0.00005398,0.000109
 13,-0.00033772,-0.00030227,-0.00038158,-0.00277484,0.00151238,-0.00078
 313,0.01468814,-0.02187478,0.00294946,-0.12902325,0.23739411,-0.013527
 63,0.02324175,-0.00129130,-0.00031327,-0.00010816,0.00135082,-0.001055
 14,-0.00083450,-0.00279575,-0.01682391,0.02668487,-0.04943053,0.000196
 07,0.00063642,-0.00030314,-0.00070100,-0.00130745,-0.00002433,-0.00026
 763,-0.00038295,0.00105966,0.00833883,-0.01724212,0.00177708,0.0023515
 4,-0.00294942,0.00109580,0.02028303,-0.02812314,0.04891687,-0.01873154
 ,0.,0.03043891,-0.05592302,-0.00000003,-0.02019156,0.02822466,-0.00000
 005,-0.03808650,-0.00235625,0.00000001,-0.00055543,-0.00301164,0.,-0.0
 0307205,-0.26006613,-0.00000017,0.11614278,-0.12741496,0.,-0.03233851,
 -0.00382416,-0.00000002,-0.00116958,0.00014029,0.00023922,0.00006256,0
 .00014029,-0.00023922,0.00006256,0.70565412,0.,-0.00712463,0.,-0.00000
 003,0.00640991,0.,-0.00000003,0.00735990,-0.00000005,0.,-0.00119342,0.
 ,0.,0.00763442,0.,-0.00000017,-0.06428104,0.00000010,0.,-0.06053169,0.
 ,-0.00000001,0.00735134,0.,-0.00009271,-0.00003843,-0.00022341,0.00009
 271,-0.00003843,0.00022341,0.00000035,0.13548826,0.03067601,-0.0000000
 3,-0.05476314,0.02737676,0.00000005,0.06328746,-0.08622909,-0.00000003
 ,-0.02600731,0.00188566,-0.00000003,0.00058141,-0.00401574,-0.00000001
 ,-0.00044911,0.04864634,0.00000006,-0.18189819,0.03323798,-0.00000005,
 -0.31435191,0.00033947,0.00000003,0.00535724,-0.00028868,-0.00038324,-
 0.00052163,-0.00028867,0.00038323,-0.00052163,0.04019606,0.,0.65924905
 ,-0.00519058,0.,-0.00284397,0.00206644,0.,-0.02925544,-0.00127164,0.,-
 0.00010248,0.00049549,0.,-0.00060050,0.00111160,0.,0.00057107,-0.06025
 553,-0.00000003,-0.01727539,-0.00407503,0.,0.00262640,0.00000311,0.,-0
 .00015927,-0.00003563,-0.00004087,-0.00008500,-0.00003563,0.00004087,-
 0.00008500,0.00514894,0.,0.02820646,0.06088088,0.,0.00704736,0.,0.,0.0
 0278451,-0.00000002,0.,-0.00125900,0.,0.,0.00085248,0.,0.,-0.00377915,
 0.,-0.00000002,-0.03612461,-0.00000011,-0.00000001,0.00707381,-0.00000
 001,0.,-0.00118553,0.,0.00003951,0.00001245,0.00009360,-0.00003950,0.0
 0001245,-0.00009360,-0.00000001,0.00279972,0.00000004,0.00000004,0.025
 64875,-0.00290580,0.,0.00037165,0.00106862,0.,-0.00948808,0.00037269,0
 .,0.00068739,0.00028973,0.,0.00014762,-0.00022790,0.,0.00079087,-0.016
 76231,-0.00000009,-0.33644277,0.00296340,0.,0.00037936,-0.00005981,0.,
 -0.00002492,-0.00004519,-0.00002047,-0.00007179,-0.00004519,0.00002047
 ,-0.00007179,-0.00276414,0.,-0.01302279,0.01805978,0.00000010,0.356523
 42,-0.00144548,0.,-0.00335156,-0.00025598,0.,-0.00086913,-0.01849739,0
 .,0.01908592,-0.00080766,0.,-0.00001383,-0.00003461,0.,0.00019629,0.00
 182487,0.,-0.00077748,-0.26042873,0.00000003,0.12194619,0.00041408,0.,
 -0.00046411,-0.00018816,-0.00002931,-0.00024444,-0.00018816,0.00002931
 ,-0.00024444,0.00422026,0.,-0.00179612,0.00004345,0.,-0.00019990,0.275
 04323,-0.00000002,0.00909875,-0.00000002,0.,-0.00066468,-0.00000001,0.
 ,0.00294887,0.00000005,0.,-0.00055990,0.,0.,-0.00177921,0.,0.,0.007634
 40,0.,0.00000005,-0.03622827,-0.00000009,0.,-0.00365389,0.,-0.00007342
 ,0.00004026,-0.00003115,0.00007342,0.00004026,0.00003115,0.,0.00239507
 ,0.00000002,0.,0.00012431,0.,-0.00000004,0.02451477,-0.00319295,0.,-0.
 00026720,-0.00066426,0.,-0.00063318,-0.01133603,0.,0.01340941,-0.00044
 238,0.,0.00027649,0.00008971,0.,0.00010103,-0.00172196,0.,-0.00528590,
 0.11960863,-0.00000005,-0.13299850,0.00083851,0.,-0.00001578,0.0000041
 0,-0.00001099,-0.00011256,0.00000410,0.00001099,-0.00011256,0.02865515
 ,0.,-0.01077655,0.00134465,0.,-0.00065309,-0.13285628,0.00000005,0.135
 84046,-0.00194949,-0.00069613,-0.00042763,0.00098338,0.00049223,0.0004
 1138,0.00354777,0.01664767,-0.00734271,-0.00224004,-0.02290342,0.01187
 731,-0.00003347,-0.00000331,-0.00017097,-0.00031282,0.00016211,-0.0001
 5212,0.00085339,-0.00012045,-0.00020786,-0.05061322,-0.02668430,0.0181
 1436,-0.00205431,0.00000524,0.00304802,0.00134155,0.00035550,-0.001278
 13,0.00016636,-0.00087496,-0.00024183,0.00006347,-0.00014060,0.0000490
 0,-0.00020836,0.00031886,0.00004230,0.04931436,0.00094716,0.00032930,0
 .00019186,-0.00019984,-0.00030221,-0.00046851,0.00144931,0.00325893,-0
 .00006839,0.00048377,0.00151196,-0.00283939,-0.00000260,0.00004025,0.0
 0003119,0.00044864,-0.00003829,-0.00005198,-0.00057110,0.00031363,-0.0
 0012096,-0.02864458,-0.22185636,0.11631849,0.00014748,0.00042853,0.000
 06478,-0.00017951,0.00089213,0.00030436,-0.00016651,-0.00005416,0.0006
 0560,0.00000515,0.00001759,0.00000615,0.00003016,-0.00006585,0.0000739
 9,0.02988042,0.23738772,-0.00073167,-0.00049004,-0.00411447,0.00042883
 ,-0.00193176,-0.00037135,0.00333589,0.01912888,-0.01432812,0.00012572,
 0.00805289,-0.00567855,0.00007747,0.00007966,-0.00026732,-0.00050377,0
 .00017960,-0.00006897,0.00136062,0.00000621,0.00112536,0.01934188,0.11
 853195,-0.12306893,-0.00000535,-0.00016101,-0.00061148,0.00039144,-0.0
 0002341,0.00091088,0.00029921,-0.00120631,-0.00099390,-0.00004153,0.00
 025959,-0.00001793,-0.00039743,0.00081481,0.00002108,-0.02116673,-0.12
 862917,0.13627177,-0.00194953,0.00069614,-0.00042764,0.00098337,-0.000
 49224,0.00041138,0.00354767,-0.01664771,-0.00734263,-0.00223996,0.0229
 0351,0.01187719,-0.00003347,0.00000331,-0.00017097,-0.00031283,-0.0001
 6211,-0.00015212,0.00085340,0.00012045,-0.00020787,-0.05061293,0.02668
 372,0.01811375,0.00134154,-0.00035550,-0.00127813,-0.00205432,-0.00000
 522,0.00304803,0.00016636,0.00087496,-0.00024184,0.00006347,0.00014060
 ,0.00004900,-0.00020836,-0.00031886,0.00004230,0.00115617,-0.00362893,
 -0.00247930,0.04931412,-0.00094715,0.00032929,-0.00019185,0.00019982,-
 0.00030220,0.00046849,-0.00144931,0.00325889,0.00006833,-0.00048376,0.
 00151183,0.00283930,0.00000260,0.00004025,-0.00003119,-0.00044863,-0.0
 0003829,0.00005198,0.00057110,0.00031363,0.00012097,0.02864401,-0.2218
 5788,-0.11631796,0.00017951,0.00089213,-0.00030436,-0.00014747,0.00042
 853,-0.00006479,0.00016651,-0.00005416,-0.00060560,-0.00000515,0.00001
 758,-0.00000615,-0.00003016,-0.00006585,-0.00007399,0.00362882,-0.0218
 7566,-0.01453609,-0.02987979,0.23738940,-0.00073167,0.00049003,-0.0041
 1439,0.00042881,0.00193176,-0.00037136,0.00333583,-0.01912896,-0.01432
 796,0.00012568,-0.00805292,-0.00567851,0.00007747,-0.00007966,-0.00026
 731,-0.00050376,-0.00017960,-0.00006897,0.00136062,-0.00000622,0.00112
 535,0.01934125,-0.11853146,-0.12306757,0.00039144,0.00002341,0.0009108
 8,-0.00000535,0.00016100,-0.00061148,0.00029921,0.00120631,-0.00099390
 ,-0.00004153,-0.00025959,-0.00001793,-0.00039743,-0.00081481,0.0000210
 8,-0.00247927,0.01453630,0.01128470,-0.02116603,0.12862859,0.13627013,
 0.00022299,0.,0.00108172,-0.00260337,0.,0.00366227,0.00157622,0.,0.000
 30417,0.00006501,0.,-0.00003042,-0.00096844,0.,-0.00067996,-0.01953956
 ,-0.00000001,-0.01447529,0.00354915,0.,0.00177206,0.00033189,0.,0.0002
 1218,-0.00000588,-0.00000337,0.00001608,-0.00000588,0.00000337,0.00001
 608,-0.27253360,-0.00000010,-0.11746277,0.00098719,0.,0.00015800,0.000
 71699,0.,-0.00041557,-0.00001472,0.00000097,-0.00003528,-0.00001472,-0
 .00000097,-0.00003528,0.28823673,0.,-0.00125904,0.,0.,0.00707397,0.000
 00001,0.,0.00704650,0.,0.,-0.00118546,0.,0.,0.00012417,0.,-0.00000004,
 0.00280071,0.,0.,0.00278326,0.,0.,0.00085277,0.,-0.00029476,0.00001756
 ,0.00001582,0.00029476,0.00001756,-0.00001582,-0.00000008,-0.03612267,
 -0.00000004,0.,-0.00404272,0.,0.,-0.00377905,0.,-0.00006767,0.00001250
 ,-0.00007582,0.00006767,0.00001250,0.00007582,0.00000011,0.02564743,0.
 00060669,0.,-0.00080714,0.00332442,0.,-0.00109260,0.00036574,0.,-0.006
 39492,-0.00012988,0.,-0.00008689,0.00086456,0.,0.00035879,0.01649704,0
 .00000001,0.01166310,-0.02855027,-0.00000002,-0.01096713,-0.00067799,0
 .,0.00031132,-0.00007442,-0.00000730,0.00005141,-0.00007442,0.00000730
 ,0.00005141,-0.11797868,-0.00000003,-0.12417511,-0.00031827,0.,0.00091
 078,0.00038375,0.,0.00118576,-0.00007513,0.00004567,-0.00009275,-0.000
 07513,-0.00004567,-0.00009275,0.12591200,0.00000004,0.12917672\\-0.000
 19360,-0.00000032,0.00016553,0.00009581,-0.00000008,-0.00000605,0.0002
 3170,0.00000026,-0.00010148,0.00008019,0.00000052,-0.00009821,-0.00004
 459,0.,-0.00003606,0.00012064,0.,-0.00005233,-0.00004116,0.00000017,0.
 00008135,-0.00012123,-0.00000048,0.00002983,0.00000369,0.00000063,0.00
 000301,0.00000348,-0.00000062,0.00000291,-0.00009703,-0.00000001,0.000
 08673,-0.00003424,0.00000003,-0.00000253,-0.00001291,-0.00000002,-0.00
 005397,-0.00000024,-0.00000099,0.00000465,-0.00000023,0.00000097,0.000
 00443,0.00000972,-0.00000003,-0.00002783\\\@


 HOW IS IT THAT THE SKY FEEDS THE STARS?

                           -- LUCRETIUS
 Job cpu time:       0 days  1 hours 13 minutes 53.4 seconds.
 Elapsed time:       0 days  0 hours  6 minutes  9.9 seconds.
 File lengths (MBytes):  RWF=    122 Int=      0 D2E=      0 Chk=     32 Scr=      1
 Normal termination of Gaussian 16 at Fri Jun 10 03:25:23 2022.
