 Entering Gaussian System, Link 0=g16
 Input=int_zmat_field_N75.gjf
 Output=int_zmat_field_N75.out
 Initial command:
 /software/gaussian/g16-a03/l1.exe "/local_scratch/11174591/Gau-20470.inp" -scrdir="/local_scratch/11174591/"
 Entering Link 1 = /software/gaussian/g16-a03/l1.exe PID=     20471.
  
 Copyright (c) 1988,1990,1992,1993,1995,1998,2003,2009,2016,
            Gaussian, Inc.  All Rights Reserved.
  
 This is part of the Gaussian(R) 16 program.  It is based on
 the Gaussian(R) 09 system (copyright 2009, Gaussian, Inc.),
 the Gaussian(R) 03 system (copyright 2003, Gaussian, Inc.),
 the Gaussian(R) 98 system (copyright 1998, Gaussian, Inc.),
 the Gaussian(R) 94 system (copyright 1995, Gaussian, Inc.),
 the Gaussian 92(TM) system (copyright 1992, Gaussian, Inc.),
 the Gaussian 90(TM) system (copyright 1990, Gaussian, Inc.),
 the Gaussian 88(TM) system (copyright 1988, Gaussian, Inc.),
 the Gaussian 86(TM) system (copyright 1986, Carnegie Mellon
 University), and the Gaussian 82(TM) system (copyright 1983,
 Carnegie Mellon University). Gaussian is a federally registered
 trademark of Gaussian, Inc.
  
 This software contains proprietary and confidential information,
 including trade secrets, belonging to Gaussian, Inc.
  
 This software is provided under written license and may be
 used, copied, transmitted, or stored only in accord with that
 written license.
  
 The following legend is applicable only to US Government
 contracts under FAR:
  
                    RESTRICTED RIGHTS LEGEND
  
 Use, reproduction and disclosure by the US Government is
 subject to restrictions as set forth in subparagraphs (a)
 and (c) of the Commercial Computer Software - Restricted
 Rights clause in FAR 52.227-19.
  
 Gaussian, Inc.
 340 Quinnipiac St., Bldg. 40, Wallingford CT 06492
  
  
 ---------------------------------------------------------------
 Warning -- This program may not be used in any manner that
 competes with the business of Gaussian, Inc. or will provide
 assistance to any competitor of Gaussian, Inc.  The licensee
 of this program is prohibited from giving any competitor of
 Gaussian, Inc. access to this program.  By using this program,
 the user acknowledges that Gaussian, Inc. is engaged in the
 business of creating and licensing software in the field of
 computational chemistry and represents and warrants to the
 licensee that it is not a competitor of Gaussian, Inc. and that
 it will not use this program in any manner prohibited above.
 ---------------------------------------------------------------
  

 Cite this work as:
 Gaussian 16, Revision A.03,
 M. J. Frisch, G. W. Trucks, H. B. Schlegel, G. E. Scuseria, 
 M. A. Robb, J. R. Cheeseman, G. Scalmani, V. Barone, 
 G. A. Petersson, H. Nakatsuji, X. Li, M. Caricato, A. V. Marenich, 
 J. Bloino, B. G. Janesko, R. Gomperts, B. Mennucci, H. P. Hratchian, 
 J. V. Ortiz, A. F. Izmaylov, J. L. Sonnenberg, D. Williams-Young, 
 F. Ding, F. Lipparini, F. Egidi, J. Goings, B. Peng, A. Petrone, 
 T. Henderson, D. Ranasinghe, V. G. Zakrzewski, J. Gao, N. Rega, 
 G. Zheng, W. Liang, M. Hada, M. Ehara, K. Toyota, R. Fukuda, 
 J. Hasegawa, M. Ishida, T. Nakajima, Y. Honda, O. Kitao, H. Nakai, 
 T. Vreven, K. Throssell, J. A. Montgomery, Jr., J. E. Peralta, 
 F. Ogliaro, M. J. Bearpark, J. J. Heyd, E. N. Brothers, K. N. Kudin, 
 V. N. Staroverov, T. A. Keith, R. Kobayashi, J. Normand, 
 K. Raghavachari, A. P. Rendell, J. C. Burant, S. S. Iyengar, 
 J. Tomasi, M. Cossi, J. M. Millam, M. Klene, C. Adamo, R. Cammi, 
 J. W. Ochterski, R. L. Martin, K. Morokuma, O. Farkas, 
 J. B. Foresman, and D. J. Fox, Gaussian, Inc., Wallingford CT, 2016.
 
 ******************************************
 Gaussian 16:  ES64L-G16RevA.03 25-Dec-2016
                10-Jun-2022 
 ******************************************
 %nprocshared=12
 Will use up to   12 processors via shared memory.
 %chk=checkpoint.chk
 %mem=12GB
 ----------------------------------------------------------------------
 # Opt=(Z-matrix, MaxStep=10) B3LYP/Def2TZVP geom=allcheckpoint guess=r
 ead Field=read NoSymm freq=noraman pop=none
 ----------------------------------------------------------------------
 1/8=10,10=7,18=40,26=3,29=7,38=1/1,3;
 2/12=2,15=1,29=3,40=1/2;
 3/5=44,7=101,11=2,14=-6,25=1,30=1,71=1,74=-5,116=-2/1,2,3;
 4/5=1/1;
 5/5=2,38=6/2;
 7/29=1,30=1/1,2,3,16;
 1/8=10,10=7,18=40,26=3/3(2);
 2/15=1,29=3/2;
 99//99;
 2/15=1,29=3/2;
 3/5=44,7=101,11=2,14=-2,25=1,30=1,71=1,74=-5/1,2,3;
 4/5=5,16=3,69=1/1;
 5/5=2,38=5/2;
 7/30=1/1,2,3,16;
 1/8=10,18=40,26=3/3(-5);
 2/15=1,29=3/2;
 99/9=1/99;
 Structure from the checkpoint file:  "checkpoint.chk"
 ------------------
 int_zmat_initalOpt
 ------------------
 Charge =  0 Multiplicity = 1
 Z-Matrix found in chk file.
 H
 C,1,R2
 H,2,R3,1,A3
 C,2,R4,1,A4,3,D4,0
 H,4,R5,2,A5,1,D5,0
 C,4,R6,2,A6,5,D6,0
 H,6,R7,4,A7,2,D7,0
 C,6,R8,4,A8,7,D8,0
 C,6,R9,4,A9,7,D9,0
 H,8,R10,6,A10,4,D10,0
 H,8,R11,6,A11,10,D11,0
 H,9,R12,6,A12,4,D12,0
 H,9,R13,6,A13,12,D13,0
      Variables:
 R2=1.08324716
 R3=1.08315192
 R4=1.32977747
 R5=1.08855425
 R6=1.48036945
 R7=1.08495203
 R8=1.50149847
 R9=1.51885523
 R10=1.08127892
 R11=1.08127251
 R12=1.08146745
 R13=1.08196259
 A3=116.63183733
 A4=121.33948743
 A5=118.33850092
 A6=126.9897908
 A7=113.6034087
 A8=123.02500359
 A9=120.29423268
 A10=117.69896308
 A11=118.48591204
 A12=118.0988402
 A13=117.04242954
 D4=179.48160209
 D5=-0.67251028
 D6=179.36789798
 D7=135.3807651
 D8=-148.19892342
 D9=140.42579034
 D10=143.0298156
 D11=-143.98476047
 D12=-138.58455249
 D13=143.85518361
 Recover connectivity data from disk.

 GradGradGradGradGradGradGradGradGradGradGradGradGradGradGradGradGradGrad
 Berny optimization.
 Initialization pass.
                       ----------------------------
                       !    Initial Parameters    !
                       ! (Angstroms and Degrees)  !
 ----------------------                            ----------------------
 !      Name          Value   Derivative information (Atomic Units)     !
 ------------------------------------------------------------------------
 !       R2          1.0832   estimate D2E/DX2                          !
 !       R3          1.0832   estimate D2E/DX2                          !
 !       R4          1.3298   estimate D2E/DX2                          !
 !       R5          1.0886   estimate D2E/DX2                          !
 !       R6          1.4804   estimate D2E/DX2                          !
 !       R7          1.085    estimate D2E/DX2                          !
 !       R8          1.5015   estimate D2E/DX2                          !
 !       R9          1.5189   estimate D2E/DX2                          !
 !       R10         1.0813   estimate D2E/DX2                          !
 !       R11         1.0813   estimate D2E/DX2                          !
 !       R12         1.0815   estimate D2E/DX2                          !
 !       R13         1.082    estimate D2E/DX2                          !
 !       A3        116.6318   estimate D2E/DX2                          !
 !       A4        121.3395   estimate D2E/DX2                          !
 !       A5        118.3385   estimate D2E/DX2                          !
 !       A6        126.9898   estimate D2E/DX2                          !
 !       A7        113.6034   estimate D2E/DX2                          !
 !       A8        123.025    estimate D2E/DX2                          !
 !       A9        120.2942   estimate D2E/DX2                          !
 !       A10       117.699    estimate D2E/DX2                          !
 !       A11       118.4859   estimate D2E/DX2                          !
 !       A12       118.0988   estimate D2E/DX2                          !
 !       A13       117.0424   estimate D2E/DX2                          !
 !       D4        179.4816   estimate D2E/DX2                          !
 !       D5         -0.6725   estimate D2E/DX2                          !
 !       D6        179.3679   estimate D2E/DX2                          !
 !       D7        135.3808   estimate D2E/DX2                          !
 !       D8       -148.1989   estimate D2E/DX2                          !
 !       D9        140.4258   estimate D2E/DX2                          !
 !       D10       143.0298   estimate D2E/DX2                          !
 !       D11      -143.9848   estimate D2E/DX2                          !
 !       D12      -138.5846   estimate D2E/DX2                          !
 !       D13       143.8552   estimate D2E/DX2                          !
 ------------------------------------------------------------------------
 Trust Radius=1.00D-01 FncErr=1.00D-07 GrdErr=1.00D-06 EigMax=2.50D+02 EigMin=1.00D-04
 Number of steps in this run=     43 maximum allowed number of steps=    100.
 GradGradGradGradGradGradGradGradGradGradGradGradGradGradGradGradGradGrad

 ---------------------------------------------------------------------------------------------------
                            Z-MATRIX (ANGSTROMS AND DEGREES)
   CD    Cent   Atom    N1       Length/X        N2       Alpha/Y        N3        Beta/Z          J
 ---------------------------------------------------------------------------------------------------
      1      1  H 
      2      2  C        1   1.083247(     1)
      3      3  H        2   1.083152(     2)      1  116.632(    13)
      4      4  C        2   1.329777(     3)      1  121.339(    14)      3  179.482(    24)      0
      5      5  H        4   1.088554(     4)      2  118.339(    15)      1   -0.673(    25)      0
      6      6  C        4   1.480369(     5)      2  126.990(    16)      5  179.368(    26)      0
      7      7  H        6   1.084952(     6)      4  113.603(    17)      2  135.381(    27)      0
      8      8  C        6   1.501498(     7)      4  123.025(    18)      7 -148.199(    28)      0
      9      9  C        6   1.518855(     8)      4  120.294(    19)      7  140.426(    29)      0
     10     10  H        8   1.081279(     9)      6  117.699(    20)      4  143.030(    30)      0
     11     11  H        8   1.081273(    10)      6  118.486(    21)     10 -143.985(    31)      0
     12     12  H        9   1.081467(    11)      6  118.099(    22)      4 -138.585(    32)      0
     13     13  H        9   1.081963(    12)      6  117.042(    23)     12  143.855(    33)      0
 ---------------------------------------------------------------------------------------------------
                         Z-Matrix orientation:                         
 ---------------------------------------------------------------------
 Center     Atomic      Atomic             Coordinates (Angstroms)
 Number     Number       Type             X           Y           Z
 ---------------------------------------------------------------------
      1          1           0        0.000000    0.000000    0.000000
      2          6           0        0.000000    0.000000    1.083247
      3          1           0        0.968235    0.000000    1.568776
      4          6           0       -1.135717    0.010276    1.774875
      5          1           0       -2.075185    0.030022    1.225365
      6          6           0       -1.281866   -0.015324    3.247790
      7          1           0       -2.014207    0.691250    3.624022
      8          6           0       -0.147222   -0.336526    4.177257
      9          6           0       -1.252755   -1.335775    3.997778
     10          1           0       -0.094389    0.204824    5.111770
     11          1           0        0.817319   -0.574740    3.750567
     12          1           0       -1.958782   -1.479127    4.804344
     13          1           0       -1.035057   -2.224643    3.420574
 ---------------------------------------------------------------------
                    Distance matrix (angstroms):
                    1          2          3          4          5
     1  H    0.000000
     2  C    1.083247   0.000000
     3  H    1.843513   1.083152   0.000000
     4  C    2.107164   1.329777   2.114048   0.000000
     5  H    2.410147   2.080262   3.062880   1.088554   0.000000
     6  C    3.491641   2.515683   2.807540   1.480369   2.172928
     7  H    4.203379   3.315176   3.687387   2.157502   2.488875
     8  C    4.193376   3.115738   2.856863   2.620846   3.544724
     9  C    4.397263   3.442119   3.552062   2.601317   3.198135
    10  H    5.116742   4.034830   3.704582   3.501011   4.365576
    11  H    3.881377   2.848320   2.261263   2.839005   3.887024
    12  H    5.395032   4.457713   4.606967   3.474686   3.885895
    13  H    4.209597   3.388728   3.520138   2.777286   3.314260
                    6          7          8          9         10
     6  C    0.000000
     7  H    1.084952   0.000000
     8  C    1.501498   2.201823   0.000000
     9  C    1.518855   2.197347   1.500972   0.000000
    10  H    2.221033   2.477036   1.081279   2.226260   0.000000
    11  H    2.229867   3.104236   1.081273   2.219346   1.814333
    12  H    2.241383   2.471188   2.231709   1.081467   2.531039
    13  H    2.229766   3.082622   2.219416   1.081963   3.106012
                   11         12         13
    11  H    0.000000
    12  H    3.104046   0.000000
    13  H    2.502474   1.823152   0.000000
 Symmetry turned off by external request.
 Stoichiometry    C5H8
 Framework group  C1[X(C5H8)]
 Deg. of freedom    33
 Full point group                 C1      NOp   1
 Rotational constants (GHZ):          11.6336277           3.6609166           3.3212198
 Standard basis: def2TZVP (5D, 7F)
 The following finite field(s) will be applied:
 An electric field of              0.0001 -0.0002 -0.0075
   203 basis functions,   319 primitive gaussians,   228 cartesian basis functions
    19 alpha electrons       19 beta electrons
       nuclear repulsion energy       165.0754926733 Hartrees.
 NAtoms=   13 NActive=   13 NUniq=   13 SFac= 1.00D+00 NAtFMM=   60 NAOKFM=F Big=F
 Integral buffers will be    131072 words long.
 Raffenetti 2 integral format.
 Two-electron integral symmetry is turned off.
 One-electron integrals computed using PRISM.
   1 Symmetry operations used in ECPInt.
 ECPInt:  NShTT=    3828 NPrTT=   11160 LenC2=    3810 LenP2D=    9473.
 LDataN:  DoStor=T MaxTD1= 6 Len=  172
 NBasis=   203 RedAO= T EigKep=  1.50D-04  NBF=   203
 NBsUse=   203 1.00D-06 EigRej= -1.00D+00 NBFU=   203
 The nuclear repulsion energy is now       163.5311218283 hartrees.
 Initial guess from the checkpoint file:  "checkpoint.chk"
 B after Tr=     0.000000   -0.000000    0.000000
         Rot=    1.000000    0.000000    0.000000   -0.000000 Ang=   0.00 deg.
 Requested convergence on RMS density matrix=1.00D-08 within 128 cycles.
 Requested convergence on MAX density matrix=1.00D-06.
 Requested convergence on             energy=1.00D-06.
 No special actions if energy rises.
 SCF Done:  E(RB3LYP) =  -195.370347929     A.U. after   10 cycles
            NFock= 10  Conv=0.22D-08     -V/T= 2.0057
   1 Symmetry operations used in ECPInt.
 ECPInt:  NShTT=    3828 NPrTT=   11160 LenC2=    3810 LenP2D=    9473.
 LDataN:  DoStor=T MaxTD1= 7 Len=  274
 Calling FoFJK, ICntrl=      2127 FMM=F ISym2X=0 I1Cent= 0 IOpClX= 0 NMat=1 NMatS=1 NMatT=0.
 -------------------------------------------------------------------
 Center     Atomic                   Forces (Hartrees/Bohr)
 Number     Number              X              Y              Z
 -------------------------------------------------------------------
      1        1          -0.000376552   -0.000194373   -0.000450599
      2        6           0.000921568    0.000211440   -0.000252383
      3        1          -0.000080182   -0.000058507    0.000048886
      4        6          -0.000278283   -0.000116501    0.001247127
      5        1          -0.000233492    0.000082017   -0.000174276
      6        6          -0.000148671    0.000601181   -0.000535461
      7        1          -0.000036820   -0.000029854   -0.000115141
      8        6          -0.000234018   -0.000242599   -0.000001606
      9        6           0.000291790   -0.000038555    0.000275543
     10        1          -0.000070478   -0.000115004   -0.000061893
     11        1           0.000031823   -0.000074765    0.000067524
     12        1           0.000109205    0.000052832   -0.000064205
     13        1           0.000104108   -0.000077312    0.000016486
 -------------------------------------------------------------------
 Cartesian Forces:  Max     0.001247127 RMS     0.000325085
 -----------------------------------------------------------------------------------------------
                       Internal Coordinate Forces (Hartree/Bohr or radian)
  Cent   Atom   N1       Length/X         N2         Alpha/Y        N3         Beta/Z          J
 -----------------------------------------------------------------------------------------------
      1  H 
      2  C        1   0.000451(     1)
      3  H        2  -0.000050(     2)      1   0.000163(    13)
      4  C        2   0.000738(     3)      1   0.000467(    14)      3   0.000060(    24)     0
      5  H        4   0.000291(     4)      2  -0.000067(    15)      1   0.000150(    25)     0
      6  C        4  -0.000423(     5)      2   0.000259(    16)      5   0.000289(    26)     0
      7  H        6  -0.000035(     6)      4  -0.000216(    17)      2   0.000297(    27)     0
      8  C        6  -0.000111(     7)      4   0.000584(    18)      7  -0.001215(    28)     0
      9  C        6   0.000177(     8)      4   0.000461(    19)      7   0.001405(    29)     0
     10  H        8  -0.000115(     9)      6  -0.000032(    20)      4   0.000056(    30)     0
     11  H        8   0.000018(    10)      6   0.000170(    21)     10  -0.000112(    31)     0
     12  H        9  -0.000126(    11)      6  -0.000037(    22)      4   0.000081(    32)     0
     13  H        9   0.000076(    12)      6   0.000099(    23)     12   0.000173(    33)     0
 -----------------------------------------------------------------------------------------------
 Internal  Forces:  Max     0.001405347 RMS     0.000417470

 GradGradGradGradGradGradGradGradGradGradGradGradGradGradGradGradGradGrad
 Berny optimization.
 Search for a local minimum.
 Step number   1 out of a maximum of   43
 All quantities printed in internal units (Hartrees-Bohrs-Radians)
 Second derivative matrix not updated -- first step.
 ITU=  0
     Eigenvalues ---    0.03454   0.04980   0.07252   0.07666   0.10809
     Eigenvalues ---    0.12712   0.16293   0.18331   0.18789   0.23334
     Eigenvalues ---    0.25637   0.30056   0.33352   0.34528   0.34980
     Eigenvalues ---    0.35403   0.35605   0.35616   0.35759   0.35818
     Eigenvalues ---    0.35840   0.35841   0.39317   0.43056   0.43511
     Eigenvalues ---    0.51352   0.51861   0.52191   0.59559   0.72944
     Eigenvalues ---    0.82324   1.31863   3.91086
 RFO step:  Lambda=-6.80713913D-06 EMin= 3.45404120D-02
 Linear search not attempted -- first point.
 Variable       Old X    -DE/DX   Delta X   Delta X   Delta X     New X
                                 (Linear)    (Quad)   (Total)
    R2        2.04704   0.00045   0.00000   0.00127   0.00127   2.04831
    R3        2.04686  -0.00005   0.00000  -0.00014  -0.00014   2.04672
    R4        2.51292   0.00074   0.00000   0.00124   0.00124   2.51416
    R5        2.05707   0.00029   0.00000   0.00084   0.00084   2.05790
    R6        2.79749  -0.00042   0.00000  -0.00123  -0.00123   2.79627
    R7        2.05026  -0.00003   0.00000  -0.00010  -0.00010   2.05016
    R8        2.83742  -0.00011   0.00000   0.00050   0.00050   2.83792
    R9        2.87022   0.00018   0.00000   0.00117   0.00117   2.87139
   R10        2.04332  -0.00011   0.00000  -0.00032  -0.00032   2.04300
   R11        2.04331   0.00002   0.00000   0.00005   0.00005   2.04336
   R12        2.04368  -0.00013   0.00000  -0.00035  -0.00035   2.04333
   R13        2.04461   0.00008   0.00000   0.00021   0.00021   2.04483
    A3        2.03561   0.00016   0.00000  -0.00036  -0.00036   2.03525
    A4        2.11777   0.00047   0.00000   0.00175   0.00175   2.11953
    A5        2.06540  -0.00007   0.00000  -0.00057  -0.00057   2.06483
    A6        2.21639   0.00026   0.00000   0.00067   0.00067   2.21706
    A7        1.98275  -0.00022   0.00000  -0.00042  -0.00042   1.98234
    A8        2.14719   0.00058   0.00000   0.00053   0.00053   2.14772
    A9        2.09953   0.00046   0.00000  -0.00039  -0.00039   2.09914
   A10        2.05423  -0.00003   0.00000  -0.00001  -0.00001   2.05423
   A11        2.06797   0.00017   0.00000   0.00081   0.00081   2.06878
   A12        2.06121  -0.00004   0.00000  -0.00030  -0.00030   2.06092
   A13        2.04278   0.00010   0.00000   0.00055   0.00055   2.04333
    D4        3.13254   0.00006   0.00000  -0.00106  -0.00106   3.13149
    D5       -0.01174   0.00015   0.00000   0.00058   0.00058  -0.01116
    D6        3.13056   0.00029   0.00000   0.00108   0.00108   3.13164
    D7        2.36284   0.00030   0.00000   0.00273   0.00273   2.36557
    D8       -2.58656  -0.00121   0.00000  -0.00121  -0.00121  -2.58777
    D9        2.45089   0.00141   0.00000  -0.00009  -0.00009   2.45080
   D10        2.49634   0.00006   0.00000   0.00173   0.00173   2.49807
   D11       -2.51301  -0.00011   0.00000  -0.00138  -0.00138  -2.51438
   D12       -2.41876   0.00008   0.00000   0.00038   0.00038  -2.41837
   D13        2.51075   0.00017   0.00000   0.00079   0.00079   2.51154
         Item               Value     Threshold  Converged?
 Maximum Force            0.001405     0.000450     NO 
 RMS     Force            0.000417     0.000300     NO 
 Maximum Displacement     0.002734     0.001800     NO 
 RMS     Displacement     0.000955     0.001200     YES
 Predicted change in Energy=-3.403570D-06
 GradGradGradGradGradGradGradGradGradGradGradGradGradGradGradGradGradGrad

 ---------------------------------------------------------------------------------------------------
                            Z-MATRIX (ANGSTROMS AND DEGREES)
   CD    Cent   Atom    N1       Length/X        N2       Alpha/Y        N3        Beta/Z          J
 ---------------------------------------------------------------------------------------------------
      1      1  H 
      2      2  C        1   1.083917(     1)
      3      3  H        2   1.083078(     2)      1  116.611(    13)
      4      4  C        2   1.330435(     3)      1  121.440(    14)      3  179.421(    24)      0
      5      5  H        4   1.088996(     4)      2  118.306(    15)      1   -0.640(    25)      0
      6      6  C        4   1.479720(     5)      2  127.028(    16)      5  179.430(    26)      0
      7      7  H        6   1.084899(     6)      4  113.580(    17)      2  135.537(    27)      0
      8      8  C        6   1.501763(     7)      4  123.055(    18)      7 -148.268(    28)      0
      9      9  C        6   1.519474(     8)      4  120.272(    19)      7  140.421(    29)      0
     10     10  H        8   1.081110(     9)      6  117.699(    20)      4  143.129(    30)      0
     11     11  H        8   1.081300(    10)      6  118.532(    21)     10 -144.064(    31)      0
     12     12  H        9   1.081281(    11)      6  118.082(    22)      4 -138.563(    32)      0
     13     13  H        9   1.082076(    12)      6  117.074(    23)     12  143.901(    33)      0
 ---------------------------------------------------------------------------------------------------
                         Z-Matrix orientation:                         
 ---------------------------------------------------------------------
 Center     Atomic      Atomic             Coordinates (Angstroms)
 Number     Number       Type             X           Y           Z
 ---------------------------------------------------------------------
      1          1           0        0.000000    0.000000    0.000000
      2          6           0        0.000000    0.000000    1.083917
      3          1           0        0.968342    0.000000    1.569066
      4          6           0       -1.135052    0.011472    1.777878
      5          1           0       -2.075538    0.031679    1.229251
      6          6           0       -1.279531   -0.012015    3.250341
      7          1           0       -2.013299    0.693452    3.625719
      8          6           0       -0.143758   -0.330246    4.179880
      9          6           0       -1.246351   -1.331966    4.002291
     10          1           0       -0.092041    0.211497    5.114031
     11          1           0        0.821290   -0.567724    3.753856
     12          1           0       -1.951391   -1.475840    4.809378
     13          1           0       -1.026011   -2.221318    3.426625
 ---------------------------------------------------------------------
                    Distance matrix (angstroms):
                    1          2          3          4          5
     1  H    0.000000
     2  C    1.083917   0.000000
     3  H    1.843816   1.083078   0.000000
     4  C    2.109343   1.330435   2.113765   0.000000
     5  H    2.412451   2.080861   3.062954   1.088996   0.000000
     6  C    3.493145   2.516096   2.807092   1.479720   2.172634
     7  H    4.204769   3.315871   3.687937   2.156601   2.486941
     8  C    4.195369   3.116844   2.856952   2.620886   3.545274
     9  C    4.398393   3.441575   3.549590   2.601005   3.199505
    10  H    5.119230   4.036709   3.706200   3.501114   4.365559
    11  H    3.884361   2.850509   2.262132   2.840287   3.889026
    12  H    5.395938   4.457027   4.604624   3.473974   3.886558
    13  H    4.210548   3.387511   3.515995   2.777698   3.317522
                    6          7          8          9         10
     6  C    0.000000
     7  H    1.084899   0.000000
     8  C    1.501763   2.202324   0.000000
     9  C    1.519474   2.198257   1.500231   0.000000
    10  H    2.221133   2.477617   1.081110   2.225012   0.000000
    11  H    2.230647   3.105137   1.081300   2.218316   1.814231
    12  H    2.241601   2.471984   2.230737   1.081281   2.529249
    13  H    2.230777   3.083870   2.218539   1.082076   3.104550
                   11         12         13
    11  H    0.000000
    12  H    3.102670   0.000000
    13  H    2.500795   1.823204   0.000000
 Symmetry turned off by external request.
 Stoichiometry    C5H8
 Framework group  C1[X(C5H8)]
 Deg. of freedom    33
 Full point group                 C1      NOp   1
 Rotational constants (GHZ):          11.6322685           3.6597209           3.3214392
 Standard basis: def2TZVP (5D, 7F)
 The following finite field(s) will be applied:
 An electric field of              0.0001 -0.0002 -0.0075
   203 basis functions,   319 primitive gaussians,   228 cartesian basis functions
    19 alpha electrons       19 beta electrons
       nuclear repulsion energy       165.0660037150 Hartrees.
 NAtoms=   13 NActive=   13 NUniq=   13 SFac= 1.00D+00 NAtFMM=   60 NAOKFM=F Big=F
 Integral buffers will be    131072 words long.
 Raffenetti 2 integral format.
 Two-electron integral symmetry is turned off.
 One-electron integrals computed using PRISM.
   1 Symmetry operations used in ECPInt.
 ECPInt:  NShTT=    3828 NPrTT=   11160 LenC2=    3810 LenP2D=    9474.
 LDataN:  DoStor=T MaxTD1= 6 Len=  172
 NBasis=   203 RedAO= T EigKep=  1.50D-04  NBF=   203
 NBsUse=   203 1.00D-06 EigRej= -1.00D+00 NBFU=   203
 The nuclear repulsion energy is now       163.5201405316 hartrees.
 Initial guess from the checkpoint file:  "checkpoint.chk"
 B after Tr=    -0.001822   -0.001296    0.002504
         Rot=    0.999999    0.000831   -0.000534   -0.000775 Ang=   0.14 deg.
 Requested convergence on RMS density matrix=1.00D-08 within 128 cycles.
 Requested convergence on MAX density matrix=1.00D-06.
 Requested convergence on             energy=1.00D-06.
 No special actions if energy rises.
 SCF Done:  E(RB3LYP) =  -195.370352127     A.U. after    7 cycles
            NFock=  7  Conv=0.96D-08     -V/T= 2.0057
   1 Symmetry operations used in ECPInt.
 ECPInt:  NShTT=    3828 NPrTT=   11160 LenC2=    3810 LenP2D=    9474.
 LDataN:  DoStor=T MaxTD1= 7 Len=  274
 Calling FoFJK, ICntrl=      2127 FMM=F ISym2X=0 I1Cent= 0 IOpClX= 0 NMat=1 NMatS=1 NMatT=0.
 -------------------------------------------------------------------
 Center     Atomic                   Forces (Hartrees/Bohr)
 Number     Number              X              Y              Z
 -------------------------------------------------------------------
      1        1          -0.000522111   -0.000248730    0.000037460
      2        6           0.000463858    0.000260254   -0.000130026
      3        1           0.000015988   -0.000060584    0.000024107
      4        6           0.000046359   -0.000012650    0.000224450
      5        1          -0.000005089    0.000060723   -0.000021974
      6        6           0.000009715    0.000239974   -0.000236524
      7        1          -0.000043956   -0.000070846   -0.000022182
      8        6          -0.000080775   -0.000154171   -0.000034319
      9        6           0.000127994   -0.000089407    0.000138053
     10        1          -0.000033036    0.000020370    0.000002080
     11        1           0.000024157    0.000030478    0.000019430
     12        1           0.000003513    0.000006767    0.000012150
     13        1          -0.000006618    0.000017823   -0.000012706
 -------------------------------------------------------------------
 Cartesian Forces:  Max     0.000522111 RMS     0.000151672
 -----------------------------------------------------------------------------------------------
                       Internal Coordinate Forces (Hartree/Bohr or radian)
  Cent   Atom   N1       Length/X         N2         Alpha/Y        N3         Beta/Z          J
 -----------------------------------------------------------------------------------------------
      1  H 
      2  C        1  -0.000037(     1)
      3  H        2   0.000025(     2)      1   0.000029(    13)
      4  C        2   0.000000(     3)      1   0.000032(    14)      3   0.000065(    24)     0
      5  H        4   0.000017(     4)      2  -0.000034(    15)      1   0.000059(    25)     0
      6  C        4  -0.000133(     5)      2   0.000132(    16)      5   0.000169(    26)     0
      7  H        6  -0.000024(     6)      4  -0.000016(    17)      2   0.000282(    27)     0
      8  C        6  -0.000054(     7)      4   0.000202(    18)      7  -0.000185(    28)     0
      9  C        6   0.000127(     8)      4   0.000176(    19)      7   0.000313(    29)     0
     10  H        8   0.000010(     9)      6  -0.000076(    20)      4   0.000074(    30)     0
     11  H        8   0.000007(    10)      6   0.000047(    21)     10   0.000065(    31)     0
     12  H        9   0.000006(    11)      6  -0.000006(    22)      4  -0.000035(    32)     0
     13  H        9  -0.000009(    12)      6  -0.000041(    23)     12  -0.000012(    33)     0
 -----------------------------------------------------------------------------------------------
 Internal  Forces:  Max     0.000312868 RMS     0.000110289

 GradGradGradGradGradGradGradGradGradGradGradGradGradGradGradGradGradGrad
 Berny optimization.
 Search for a local minimum.
 Step number   2 out of a maximum of   43
 All quantities printed in internal units (Hartrees-Bohrs-Radians)
 Update second derivatives using D2CorN and points    1    2
 DE= -4.20D-06 DEPred=-3.40D-06 R= 1.23D+00
 TightC=F SS=  1.41D+00  RLast= 5.49D-03 DXNew= 1.6818D-01 1.6465D-02
 Trust test= 1.23D+00 RLast= 5.49D-03 DXMaxT set to 1.00D-01
 ITU=  1  0
     Eigenvalues ---    0.02443   0.04763   0.07282   0.07677   0.10071
     Eigenvalues ---    0.12577   0.16236   0.18008   0.18649   0.23332
     Eigenvalues ---    0.25621   0.29922   0.32402   0.34161   0.34976
     Eigenvalues ---    0.35398   0.35607   0.35732   0.35775   0.35824
     Eigenvalues ---    0.35839   0.35884   0.38661   0.42956   0.43501
     Eigenvalues ---    0.51330   0.51772   0.52184   0.59580   0.72925
     Eigenvalues ---    0.82433   1.31858   3.90460
 RFO step:  Lambda=-1.46816260D-06 EMin= 2.44337763D-02
 Quartic linear search produced a step of  0.30510.
 Variable       Old X    -DE/DX   Delta X   Delta X   Delta X     New X
                                 (Linear)    (Quad)   (Total)
    R2        2.04831  -0.00004   0.00039  -0.00047  -0.00008   2.04822
    R3        2.04672   0.00003  -0.00004   0.00014   0.00010   2.04682
    R4        2.51416   0.00000   0.00038  -0.00033   0.00005   2.51421
    R5        2.05790   0.00002   0.00025  -0.00012   0.00013   2.05804
    R6        2.79627  -0.00013  -0.00037  -0.00032  -0.00069   2.79557
    R7        2.05016  -0.00002  -0.00003  -0.00008  -0.00011   2.05005
    R8        2.83792  -0.00005   0.00015   0.00003   0.00018   2.83811
    R9        2.87139   0.00013   0.00036   0.00052   0.00087   2.87226
   R10        2.04300   0.00001  -0.00010   0.00012   0.00003   2.04303
   R11        2.04336   0.00001   0.00002   0.00002   0.00004   2.04340
   R12        2.04333   0.00001  -0.00011   0.00011   0.00000   2.04333
   R13        2.04483  -0.00001   0.00007  -0.00009  -0.00003   2.04480
    A3        2.03525   0.00003  -0.00011  -0.00016  -0.00027   2.03499
    A4        2.11953   0.00003   0.00054   0.00025   0.00078   2.12031
    A5        2.06483  -0.00003  -0.00017  -0.00023  -0.00041   2.06442
    A6        2.21706   0.00013   0.00021   0.00017   0.00038   2.21744
    A7        1.98234  -0.00002  -0.00013   0.00007  -0.00006   1.98228
    A8        2.14772   0.00020   0.00016   0.00014   0.00030   2.14802
    A9        2.09914   0.00018  -0.00012  -0.00003  -0.00014   2.09900
   A10        2.05423  -0.00008  -0.00000  -0.00014  -0.00014   2.05409
   A11        2.06878   0.00005   0.00025   0.00004   0.00029   2.06907
   A12        2.06092  -0.00001  -0.00009  -0.00001  -0.00010   2.06081
   A13        2.04333  -0.00004   0.00017  -0.00043  -0.00026   2.04307
    D4        3.13149   0.00006  -0.00032  -0.00141  -0.00173   3.12976
    D5       -0.01116   0.00006   0.00018   0.00056   0.00074  -0.01042
    D6        3.13164   0.00017   0.00033   0.00016   0.00048   3.13212
    D7        2.36557   0.00028   0.00083   0.00444   0.00527   2.37085
    D8       -2.58777  -0.00019  -0.00037  -0.00119  -0.00156  -2.58933
    D9        2.45080   0.00031  -0.00003  -0.00105  -0.00108   2.44972
   D10        2.49807   0.00007   0.00053   0.00038   0.00091   2.49898
   D11       -2.51438   0.00006  -0.00042   0.00023  -0.00019  -2.51457
   D12       -2.41837  -0.00003   0.00012  -0.00006   0.00006  -2.41832
   D13        2.51154  -0.00001   0.00024  -0.00052  -0.00028   2.51126
         Item               Value     Threshold  Converged?
 Maximum Force            0.000313     0.000450     YES
 RMS     Force            0.000110     0.000300     YES
 Maximum Displacement     0.005274     0.001800     NO 
 RMS     Displacement     0.001084     0.001200     YES
 Predicted change in Energy=-8.929104D-07
 GradGradGradGradGradGradGradGradGradGradGradGradGradGradGradGradGradGrad

 ---------------------------------------------------------------------------------------------------
                            Z-MATRIX (ANGSTROMS AND DEGREES)
   CD    Cent   Atom    N1       Length/X        N2       Alpha/Y        N3        Beta/Z          J
 ---------------------------------------------------------------------------------------------------
      1      1  H 
      2      2  C        1   1.083873(     1)
      3      3  H        2   1.083131(     2)      1  116.596(    13)
      4      4  C        2   1.330463(     3)      1  121.485(    14)      3  179.322(    24)      0
      5      5  H        4   1.089066(     4)      2  118.283(    15)      1   -0.597(    25)      0
      6      6  C        4   1.479354(     5)      2  127.050(    16)      5  179.457(    26)      0
      7      7  H        6   1.084839(     6)      4  113.576(    17)      2  135.840(    27)      0
      8      8  C        6   1.501861(     7)      4  123.073(    18)      7 -148.358(    28)      0
      9      9  C        6   1.519936(     8)      4  120.264(    19)      7  140.359(    29)      0
     10     10  H        8   1.081124(     9)      6  117.691(    20)      4  143.181(    30)      0
     11     11  H        8   1.081320(    10)      6  118.549(    21)     10 -144.074(    31)      0
     12     12  H        9   1.081283(    11)      6  118.076(    22)      4 -138.559(    32)      0
     13     13  H        9   1.082062(    12)      6  117.059(    23)     12  143.885(    33)      0
 ---------------------------------------------------------------------------------------------------
                         Z-Matrix orientation:                         
 ---------------------------------------------------------------------
 Center     Atomic      Atomic             Coordinates (Angstroms)
 Number     Number       Type             X           Y           Z
 ---------------------------------------------------------------------
      1          1           0        0.000000    0.000000    0.000000
      2          6           0        0.000000    0.000000    1.083873
      3          1           0        0.968519    0.000000    1.568789
      4          6           0       -1.134512    0.013428    1.778735
      5          1           0       -2.075239    0.034558    1.230419
      6          6           0       -1.278370   -0.008359    3.250917
      7          1           0       -2.014907    0.694620    3.625363
      8          6           0       -0.141647   -0.322301    4.180910
      9          6           0       -1.240823   -1.327617    4.004811
     10          1           0       -0.091882    0.220422    5.114615
     11          1           0        0.824290   -0.557290    3.755472
     12          1           0       -1.945203   -1.472531    4.812289
     13          1           0       -1.018128   -2.216897    3.429967
 ---------------------------------------------------------------------
                    Distance matrix (angstroms):
                    1          2          3          4          5
     1  H    0.000000
     2  C    1.083873   0.000000
     3  H    1.843672   1.083131   0.000000
     4  C    2.109786   1.330463   2.113527   0.000000
     5  H    2.412829   2.080694   3.062703   1.089066   0.000000
     6  C    3.493245   2.516025   2.806802   1.479354   2.172384
     7  H    4.205425   3.316854   3.689556   2.156189   2.484970
     8  C    4.195706   3.116983   2.856488   2.620866   3.545634
     9  C    4.397808   3.440071   3.546542   2.600984   3.201409
    10  H    5.120187   4.037810   3.707549   3.501146   4.365229
    11  H    3.885048   2.850871   2.261185   2.840794   3.890173
    12  H    5.395395   4.455699   4.602002   3.473866   3.888190
    13  H    4.209025   3.384579   3.510753   2.777492   3.320323
                    6          7          8          9         10
     6  C    0.000000
     7  H    1.084839   0.000000
     8  C    1.501861   2.202695   0.000000
     9  C    1.519936   2.198324   1.499953   0.000000
    10  H    2.221141   2.478057   1.081124   2.224445   0.000000
    11  H    2.230937   3.105680   1.081320   2.218167   1.814243
    12  H    2.241953   2.471882   2.230354   1.081283   2.528298
    13  H    2.231014   3.083615   2.218474   1.082062   3.104270
                   11         12         13
    11  H    0.000000
    12  H    3.102357   0.000000
    13  H    2.500950   1.823283   0.000000
 Symmetry turned off by external request.
 Stoichiometry    C5H8
 Framework group  C1[X(C5H8)]
 Deg. of freedom    33
 Full point group                 C1      NOp   1
 Rotational constants (GHZ):          11.6288424           3.6598210           3.3228061
 Standard basis: def2TZVP (5D, 7F)
 The following finite field(s) will be applied:
 An electric field of              0.0001 -0.0002 -0.0075
   203 basis functions,   319 primitive gaussians,   228 cartesian basis functions
    19 alpha electrons       19 beta electrons
       nuclear repulsion energy       165.0702410891 Hartrees.
 NAtoms=   13 NActive=   13 NUniq=   13 SFac= 1.00D+00 NAtFMM=   60 NAOKFM=F Big=F
 Integral buffers will be    131072 words long.
 Raffenetti 2 integral format.
 Two-electron integral symmetry is turned off.
 One-electron integrals computed using PRISM.
   1 Symmetry operations used in ECPInt.
 ECPInt:  NShTT=    3828 NPrTT=   11160 LenC2=    3810 LenP2D=    9474.
 LDataN:  DoStor=T MaxTD1= 6 Len=  172
 NBasis=   203 RedAO= T EigKep=  1.50D-04  NBF=   203
 NBsUse=   203 1.00D-06 EigRej= -1.00D+00 NBFU=   203
 The nuclear repulsion energy is now       163.5237761233 hartrees.
 Initial guess from the checkpoint file:  "checkpoint.chk"
 B after Tr=    -0.000419   -0.000596   -0.000018
         Rot=    0.999999    0.000946   -0.000248   -0.000997 Ang=   0.16 deg.
 Requested convergence on RMS density matrix=1.00D-08 within 128 cycles.
 Requested convergence on MAX density matrix=1.00D-06.
 Requested convergence on             energy=1.00D-06.
 No special actions if energy rises.
 SCF Done:  E(RB3LYP) =  -195.370353519     A.U. after    7 cycles
            NFock=  7  Conv=0.57D-08     -V/T= 2.0057
   1 Symmetry operations used in ECPInt.
 ECPInt:  NShTT=    3828 NPrTT=   11160 LenC2=    3810 LenP2D=    9474.
 LDataN:  DoStor=T MaxTD1= 7 Len=  274
 Calling FoFJK, ICntrl=      2127 FMM=F ISym2X=0 I1Cent= 0 IOpClX= 0 NMat=1 NMatS=1 NMatT=0.
 -------------------------------------------------------------------
 Center     Atomic                   Forces (Hartrees/Bohr)
 Number     Number              X              Y              Z
 -------------------------------------------------------------------
      1        1          -0.000583735   -0.000296697    0.000025801
      2        6           0.000588360    0.000356915   -0.000003420
      3        1           0.000010429   -0.000092129   -0.000009921
      4        6           0.000007066    0.000030055   -0.000054251
      5        1           0.000014944    0.000034542    0.000022604
      6        6          -0.000023107    0.000026347   -0.000022451
      7        1          -0.000010296   -0.000021312    0.000013127
      8        6          -0.000051553   -0.000111755   -0.000002923
      9        6           0.000064245   -0.000046565    0.000060320
     10        1          -0.000012669    0.000047435   -0.000018867
     11        1           0.000010178    0.000058113    0.000004369
     12        1          -0.000011642    0.000001359   -0.000004444
     13        1          -0.000002219    0.000013692   -0.000009943
 -------------------------------------------------------------------
 Cartesian Forces:  Max     0.000588360 RMS     0.000156221
 -----------------------------------------------------------------------------------------------
                       Internal Coordinate Forces (Hartree/Bohr or radian)
  Cent   Atom   N1       Length/X         N2         Alpha/Y        N3         Beta/Z          J
 -----------------------------------------------------------------------------------------------
      1  H 
      2  C        1  -0.000026(     1)
      3  H        2   0.000005(     2)      1  -0.000028(    13)
      4  C        2   0.000007(     3)      1  -0.000151(    14)      3   0.000124(    24)     0
      5  H        4  -0.000024(     4)      2   0.000025(    15)      1   0.000028(    25)     0
      6  C        4   0.000023(     5)      2   0.000124(    16)      5   0.000091(    26)     0
      7  H        6  -0.000002(     6)      4   0.000034(    17)      2   0.000250(    27)     0
      8  C        6  -0.000050(     7)      4   0.000097(    18)      7   0.000087(    28)     0
      9  C        6   0.000051(     8)      4   0.000022(    19)      7   0.000123(    29)     0
     10  H        8   0.000007(     9)      6  -0.000079(    20)      4   0.000043(    30)     0
     11  H        8  -0.000005(    10)      6   0.000002(    21)     10   0.000106(    31)     0
     12  H        9   0.000004(    11)      6  -0.000013(    22)      4   0.000014(    32)     0
     13  H        9  -0.000006(    12)      6  -0.000032(    23)     12  -0.000004(    33)     0
 -----------------------------------------------------------------------------------------------
 Internal  Forces:  Max     0.000249900 RMS     0.000075532

 GradGradGradGradGradGradGradGradGradGradGradGradGradGradGradGradGradGrad
 Berny optimization.
 Search for a local minimum.
 Step number   3 out of a maximum of   43
 All quantities printed in internal units (Hartrees-Bohrs-Radians)
 Update second derivatives using D2CorN and points    1    2    3
 DE= -1.39D-06 DEPred=-8.93D-07 R= 1.56D+00
 TightC=F SS=  1.41D+00  RLast= 6.22D-03 DXNew= 1.6818D-01 1.8673D-02
 Trust test= 1.56D+00 RLast= 6.22D-03 DXMaxT set to 1.00D-01
 ITU=  1  1  0
     Eigenvalues ---    0.01498   0.04812   0.07218   0.07889   0.09337
     Eigenvalues ---    0.12479   0.16300   0.17976   0.18668   0.23340
     Eigenvalues ---    0.25598   0.29732   0.32375   0.34134   0.34986
     Eigenvalues ---    0.35396   0.35606   0.35742   0.35784   0.35826
     Eigenvalues ---    0.35840   0.35922   0.38372   0.42927   0.43496
     Eigenvalues ---    0.51324   0.51801   0.52206   0.59618   0.72926
     Eigenvalues ---    0.82423   1.31856   3.90321
 RFO step:  Lambda=-1.15620241D-06 EMin= 1.49791554D-02
 Quartic linear search produced a step of  0.95449.
 Variable       Old X    -DE/DX   Delta X   Delta X   Delta X     New X
                                 (Linear)    (Quad)   (Total)
    R2        2.04822  -0.00003  -0.00008  -0.00002  -0.00010   2.04812
    R3        2.04682   0.00000   0.00010  -0.00003   0.00006   2.04688
    R4        2.51421   0.00001   0.00005   0.00005   0.00010   2.51431
    R5        2.05804  -0.00002   0.00013  -0.00015  -0.00003   2.05801
    R6        2.79557   0.00002  -0.00066   0.00040  -0.00026   2.79532
    R7        2.05005  -0.00000  -0.00011   0.00004  -0.00007   2.04998
    R8        2.83811  -0.00005   0.00018  -0.00021  -0.00004   2.83807
    R9        2.87226   0.00005   0.00083   0.00003   0.00086   2.87312
   R10        2.04303   0.00001   0.00003   0.00001   0.00003   2.04306
   R11        2.04340  -0.00001   0.00003  -0.00005  -0.00001   2.04339
   R12        2.04333   0.00000   0.00000  -0.00001  -0.00000   2.04332
   R13        2.04480  -0.00001  -0.00002  -0.00001  -0.00003   2.04477
    A3        2.03499  -0.00003  -0.00025  -0.00004  -0.00030   2.03469
    A4        2.12031  -0.00015   0.00075  -0.00050   0.00025   2.12056
    A5        2.06442   0.00002  -0.00039   0.00023  -0.00016   2.06426
    A6        2.21744   0.00012   0.00036  -0.00002   0.00034   2.21778
    A7        1.98228   0.00003  -0.00006   0.00020   0.00014   1.98242
    A8        2.14802   0.00010   0.00029  -0.00010   0.00019   2.14821
    A9        2.09900   0.00002  -0.00014   0.00008  -0.00006   2.09893
   A10        2.05409  -0.00008  -0.00014  -0.00029  -0.00042   2.05366
   A11        2.06907   0.00000   0.00028  -0.00018   0.00010   2.06917
   A12        2.06081  -0.00001  -0.00010  -0.00029  -0.00039   2.06042
   A13        2.04307  -0.00003  -0.00025  -0.00005  -0.00030   2.04277
    D4        3.12976   0.00012  -0.00165  -0.00042  -0.00207   3.12769
    D5       -0.01042   0.00003   0.00071   0.00033   0.00104  -0.00938
    D6        3.13212   0.00009   0.00046  -0.00077  -0.00030   3.13182
    D7        2.37085   0.00025   0.00503   0.00314   0.00817   2.37902
    D8       -2.58933   0.00009  -0.00149   0.00033  -0.00116  -2.59049
    D9        2.44972   0.00012  -0.00103   0.00022  -0.00080   2.44892
   D10        2.49898   0.00004   0.00087  -0.00074   0.00013   2.49911
   D11       -2.51457   0.00011  -0.00018   0.00101   0.00083  -2.51374
   D12       -2.41832   0.00001   0.00005   0.00007   0.00013  -2.41819
   D13        2.51126  -0.00000  -0.00027  -0.00042  -0.00068   2.51058
         Item               Value     Threshold  Converged?
 Maximum Force            0.000250     0.000450     YES
 RMS     Force            0.000076     0.000300     YES
 Maximum Displacement     0.008172     0.001800     NO 
 RMS     Displacement     0.001528     0.001200     NO 
 Predicted change in Energy=-7.955759D-07
 GradGradGradGradGradGradGradGradGradGradGradGradGradGradGradGradGradGrad

 ---------------------------------------------------------------------------------------------------
                            Z-MATRIX (ANGSTROMS AND DEGREES)
   CD    Cent   Atom    N1       Length/X        N2       Alpha/Y        N3        Beta/Z          J
 ---------------------------------------------------------------------------------------------------
      1      1  H 
      2      2  C        1   1.083820(     1)
      3      3  H        2   1.083165(     2)      1  116.579(    13)
      4      4  C        2   1.330518(     3)      1  121.499(    14)      3  179.203(    24)      0
      5      5  H        4   1.089052(     4)      2  118.274(    15)      1   -0.538(    25)      0
      6      6  C        4   1.479219(     5)      2  127.069(    16)      5  179.440(    26)      0
      7      7  H        6   1.084802(     6)      4  113.584(    17)      2  136.308(    27)      0
      8      8  C        6   1.501841(     7)      4  123.084(    18)      7 -148.424(    28)      0
      9      9  C        6   1.520391(     8)      4  120.260(    19)      7  140.313(    29)      0
     10     10  H        8   1.081141(     9)      6  117.666(    20)      4  143.189(    30)      0
     11     11  H        8   1.081314(    10)      6  118.554(    21)     10 -144.027(    31)      0
     12     12  H        9   1.081281(    11)      6  118.054(    22)      4 -138.552(    32)      0
     13     13  H        9   1.082043(    12)      6  117.042(    23)     12  143.846(    33)      0
 ---------------------------------------------------------------------------------------------------
                         Z-Matrix orientation:                         
 ---------------------------------------------------------------------
 Center     Atomic      Atomic             Coordinates (Angstroms)
 Number     Number       Type             X           Y           Z
 ---------------------------------------------------------------------
      1          1           0        0.000000    0.000000    0.000000
      2          6           0        0.000000    0.000000    1.083820
      3          1           0        0.968693    0.000000    1.568463
      4          6           0       -1.134355    0.015772    1.778994
      5          1           0       -2.075095    0.037851    1.230765
      6          6           0       -1.278356   -0.004840    3.251043
      7          1           0       -2.019429    0.693842    3.624473
      8          6           0       -0.140351   -0.311512    4.181862
      9          6           0       -1.233482   -1.323287    4.006868
     10          1           0       -0.094244    0.232879    5.114804
     11          1           0        0.827224   -0.541102    3.757214
     12          1           0       -1.937420   -1.470807    4.814257
     13          1           0       -1.006158   -2.211911    3.432857
 ---------------------------------------------------------------------
                    Distance matrix (angstroms):
                    1          2          3          4          5
     1  H    0.000000
     2  C    1.083820   0.000000
     3  H    1.843487   1.083165   0.000000
     4  C    2.109936   1.330518   2.113619   0.000000
     5  H    2.412931   2.080636   3.062698   1.089052   0.000000
     6  C    3.493351   2.516163   2.807193   1.479219   2.172128
     7  H    4.206699   3.318799   3.692895   2.156137   2.482591
     8  C    4.195797   3.116826   2.856025   2.620865   3.546021
     9  C    4.396312   3.437554   3.542102   2.601216   3.204334
    10  H    5.120970   4.038805   3.709528   3.500941   4.364351
    11  H    3.885067   2.850285   2.259079   2.840995   3.891219
    12  H    5.393880   4.453429   4.598255   3.473852   3.890555
    13  H    4.205878   3.379775   3.502649   2.777457   3.324645
                    6          7          8          9         10
     6  C    0.000000
     7  H    1.084802   0.000000
     8  C    1.501841   2.202806   0.000000
     9  C    1.520391   2.198352   1.499749   0.000000
    10  H    2.220864   2.477885   1.081141   2.224194   0.000000
    11  H    2.230976   3.105824   1.081314   2.218254   1.814166
    12  H    2.242111   2.471440   2.230099   1.081281   2.527879
    13  H    2.231213   3.083316   2.218591   1.082043   3.104437
                   11         12         13
    11  H    0.000000
    12  H    3.102410   0.000000
    13  H    2.501619   1.823391   0.000000
 Symmetry turned off by external request.
 Stoichiometry    C5H8
 Framework group  C1[X(C5H8)]
 Deg. of freedom    33
 Full point group                 C1      NOp   1
 Rotational constants (GHZ):          11.6206038           3.6602047           3.3251260
 Standard basis: def2TZVP (5D, 7F)
 The following finite field(s) will be applied:
 An electric field of              0.0001 -0.0002 -0.0075
   203 basis functions,   319 primitive gaussians,   228 cartesian basis functions
    19 alpha electrons       19 beta electrons
       nuclear repulsion energy       165.0745549857 Hartrees.
 NAtoms=   13 NActive=   13 NUniq=   13 SFac= 1.00D+00 NAtFMM=   60 NAOKFM=F Big=F
 Integral buffers will be    131072 words long.
 Raffenetti 2 integral format.
 Two-electron integral symmetry is turned off.
 One-electron integrals computed using PRISM.
   1 Symmetry operations used in ECPInt.
 ECPInt:  NShTT=    3828 NPrTT=   11160 LenC2=    3810 LenP2D=    9474.
 LDataN:  DoStor=T MaxTD1= 6 Len=  172
 NBasis=   203 RedAO= T EigKep=  1.50D-04  NBF=   203
 NBsUse=   203 1.00D-06 EigRej= -1.00D+00 NBFU=   203
 The nuclear repulsion energy is now       163.5276549977 hartrees.
 Initial guess from the checkpoint file:  "checkpoint.chk"
 B after Tr=     0.000203    0.000390   -0.000465
         Rot=    0.999998    0.001194   -0.000072   -0.001874 Ang=   0.25 deg.
 Requested convergence on RMS density matrix=1.00D-08 within 128 cycles.
 Requested convergence on MAX density matrix=1.00D-06.
 Requested convergence on             energy=1.00D-06.
 No special actions if energy rises.
 SCF Done:  E(RB3LYP) =  -195.370354913     A.U. after    7 cycles
            NFock=  7  Conv=0.92D-08     -V/T= 2.0057
   1 Symmetry operations used in ECPInt.
 ECPInt:  NShTT=    3828 NPrTT=   11160 LenC2=    3810 LenP2D=    9474.
 LDataN:  DoStor=T MaxTD1= 7 Len=  274
 Calling FoFJK, ICntrl=      2127 FMM=F ISym2X=0 I1Cent= 0 IOpClX= 0 NMat=1 NMatS=1 NMatT=0.
 -------------------------------------------------------------------
 Center     Atomic                   Forces (Hartrees/Bohr)
 Number     Number              X              Y              Z
 -------------------------------------------------------------------
      1        1          -0.000615311   -0.000343284    0.000000382
      2        6           0.000627845    0.000490600    0.000063197
      3        1          -0.000007916   -0.000134821   -0.000015983
      4        6           0.000019649    0.000016196   -0.000115844
      5        1           0.000014998    0.000013992    0.000019547
      6        6          -0.000080778   -0.000106874    0.000034322
      7        1           0.000025254    0.000015874    0.000009929
      8        6          -0.000024605   -0.000069702    0.000040359
      9        6           0.000025368    0.000040508   -0.000007834
     10        1          -0.000001036    0.000034460   -0.000017682
     11        1           0.000007462    0.000046387   -0.000004497
     12        1          -0.000008629   -0.000015325   -0.000005130
     13        1           0.000017698    0.000011990   -0.000000766
 -------------------------------------------------------------------
 Cartesian Forces:  Max     0.000627845 RMS     0.000175613
 -----------------------------------------------------------------------------------------------
                       Internal Coordinate Forces (Hartree/Bohr or radian)
  Cent   Atom   N1       Length/X         N2         Alpha/Y        N3         Beta/Z          J
 -----------------------------------------------------------------------------------------------
      1  H 
      2  C        1  -0.000000(     1)
      3  H        2  -0.000014(     2)      1  -0.000022(    13)
      4  C        2  -0.000021(     3)      1  -0.000209(    14)      3   0.000203(    24)     0
      5  H        4  -0.000023(     4)      2   0.000019(    15)      1   0.000019(    25)     0
      6  C        4   0.000053(     5)      2   0.000117(    16)      5   0.000045(    26)     0
      7  H        6  -0.000004(     6)      4   0.000019(    17)      2   0.000196(    27)     0
      8  C        6  -0.000005(     7)      4   0.000080(    18)      7   0.000113(    28)     0
      9  C        6  -0.000038(     8)      4  -0.000035(    19)      7   0.000139(    29)     0
     10  H        8   0.000002(     9)      6  -0.000046(    20)      4   0.000027(    30)     0
     11  H        8  -0.000001(    10)      6  -0.000014(    21)     10   0.000084(    31)     0
     12  H        9   0.000004(    11)      6   0.000020(    22)      4   0.000061(    32)     0
     13  H        9  -0.000006(    12)      6  -0.000018(    23)     12   0.000034(    33)     0
 -----------------------------------------------------------------------------------------------
 Internal  Forces:  Max     0.000209366 RMS     0.000078143

 GradGradGradGradGradGradGradGradGradGradGradGradGradGradGradGradGradGrad
 Berny optimization.
 Search for a local minimum.
 Step number   4 out of a maximum of   43
 All quantities printed in internal units (Hartrees-Bohrs-Radians)
 Update second derivatives using D2CorN and points    1    2    3    4
 DE= -1.39D-06 DEPred=-7.96D-07 R= 1.75D+00
 TightC=F SS=  1.41D+00  RLast= 8.78D-03 DXNew= 1.6818D-01 2.6331D-02
 Trust test= 1.75D+00 RLast= 8.78D-03 DXMaxT set to 1.00D-01
 ITU=  1  1  1  0
     Eigenvalues ---    0.00936   0.04840   0.07189   0.07948   0.09089
     Eigenvalues ---    0.12485   0.16317   0.17988   0.18677   0.23342
     Eigenvalues ---    0.25584   0.29648   0.32443   0.34127   0.34987
     Eigenvalues ---    0.35396   0.35607   0.35742   0.35785   0.35826
     Eigenvalues ---    0.35839   0.35922   0.38262   0.42928   0.43509
     Eigenvalues ---    0.51323   0.51822   0.52212   0.59633   0.72902
     Eigenvalues ---    0.82394   1.31854   3.90297
 RFO step:  Lambda=-8.31273263D-07 EMin= 9.36319656D-03
 Quartic linear search produced a step of  1.18650.
 Variable       Old X    -DE/DX   Delta X   Delta X   Delta X     New X
                                 (Linear)    (Quad)   (Total)
    R2        2.04812  -0.00000  -0.00012   0.00011  -0.00001   2.04811
    R3        2.04688  -0.00001   0.00008  -0.00011  -0.00003   2.04685
    R4        2.51431  -0.00002   0.00012  -0.00008   0.00004   2.51436
    R5        2.05801  -0.00002  -0.00003  -0.00005  -0.00008   2.05793
    R6        2.79532   0.00005  -0.00030   0.00024  -0.00006   2.79526
    R7        2.04998  -0.00000  -0.00008  -0.00001  -0.00010   2.04988
    R8        2.83807  -0.00000  -0.00004   0.00008   0.00004   2.83810
    R9        2.87312  -0.00004   0.00102  -0.00037   0.00065   2.87377
   R10        2.04306   0.00000   0.00004  -0.00002   0.00002   2.04308
   R11        2.04339  -0.00000  -0.00001   0.00001  -0.00000   2.04338
   R12        2.04332   0.00000  -0.00000   0.00000  -0.00000   2.04332
   R13        2.04477  -0.00001  -0.00004  -0.00001  -0.00005   2.04471
    A3        2.03469  -0.00002  -0.00035   0.00018  -0.00017   2.03452
    A4        2.12056  -0.00021   0.00030  -0.00051  -0.00021   2.12034
    A5        2.06426   0.00002  -0.00019   0.00004  -0.00015   2.06412
    A6        2.21778   0.00012   0.00040  -0.00002   0.00038   2.21816
    A7        1.98242   0.00002   0.00017  -0.00004   0.00013   1.98255
    A8        2.14821   0.00008   0.00022  -0.00002   0.00020   2.14841
    A9        2.09893  -0.00003  -0.00007   0.00011   0.00004   2.09897
   A10        2.05366  -0.00005  -0.00050   0.00009  -0.00041   2.05326
   A11        2.06917  -0.00001   0.00011  -0.00013  -0.00002   2.06915
   A12        2.06042   0.00002  -0.00046   0.00001  -0.00046   2.05997
   A13        2.04277  -0.00002  -0.00036   0.00009  -0.00027   2.04251
    D4        3.12769   0.00020  -0.00245   0.00098  -0.00147   3.12622
    D5       -0.00938   0.00002   0.00123  -0.00015   0.00108  -0.00830
    D6        3.13182   0.00005  -0.00036  -0.00062  -0.00098   3.13084
    D7        2.37902   0.00020   0.00970   0.00061   0.01031   2.38933
    D8       -2.59049   0.00011  -0.00138   0.00076  -0.00062  -2.59111
    D9        2.44892   0.00014  -0.00095   0.00063  -0.00032   2.44860
   D10        2.49911   0.00003   0.00015  -0.00045  -0.00029   2.49882
   D11       -2.51374   0.00008   0.00099   0.00015   0.00114  -2.51260
   D12       -2.41819   0.00006   0.00015   0.00008   0.00023  -2.41796
   D13        2.51058   0.00003  -0.00081   0.00012  -0.00069   2.50990
         Item               Value     Threshold  Converged?
 Maximum Force            0.000209     0.000450     YES
 RMS     Force            0.000078     0.000300     YES
 Maximum Displacement     0.010308     0.001800     NO 
 RMS     Displacement     0.001860     0.001200     NO 
 Predicted change in Energy=-7.563829D-07
 GradGradGradGradGradGradGradGradGradGradGradGradGradGradGradGradGradGrad

 ---------------------------------------------------------------------------------------------------
                            Z-MATRIX (ANGSTROMS AND DEGREES)
   CD    Cent   Atom    N1       Length/X        N2       Alpha/Y        N3        Beta/Z          J
 ---------------------------------------------------------------------------------------------------
      1      1  H 
      2      2  C        1   1.083816(     1)
      3      3  H        2   1.083148(     2)      1  116.569(    13)
      4      4  C        2   1.330540(     3)      1  121.487(    14)      3  179.119(    24)      0
      5      5  H        4   1.089012(     4)      2  118.265(    15)      1   -0.476(    25)      0
      6      6  C        4   1.479187(     5)      2  127.091(    16)      5  179.384(    26)      0
      7      7  H        6   1.084751(     6)      4  113.592(    17)      2  136.898(    27)      0
      8      8  C        6   1.501860(     7)      4  123.095(    18)      7 -148.460(    28)      0
      9      9  C        6   1.520735(     8)      4  120.262(    19)      7  140.294(    29)      0
     10     10  H        8   1.081153(     9)      6  117.643(    20)      4  143.172(    30)      0
     11     11  H        8   1.081313(    10)      6  118.553(    21)     10 -143.961(    31)      0
     12     12  H        9   1.081279(    11)      6  118.027(    22)      4 -138.539(    32)      0
     13     13  H        9   1.082016(    12)      6  117.027(    23)     12  143.806(    33)      0
 ---------------------------------------------------------------------------------------------------
                         Z-Matrix orientation:                         
 ---------------------------------------------------------------------
 Center     Atomic      Atomic             Coordinates (Angstroms)
 Number     Number       Type             X           Y           Z
 ---------------------------------------------------------------------
      1          1           0        0.000000    0.000000    0.000000
      2          6           0        0.000000    0.000000    1.083816
      3          1           0        0.968761    0.000000    1.568286
      4          6           0       -1.134499    0.017441    1.778759
      5          1           0       -2.074993    0.039864    1.230203
      6          6           0       -1.279400   -0.002819    3.250692
      7          1           0       -2.026833    0.689626    3.622914
      8          6           0       -0.139765   -0.299124    4.182903
      9          6           0       -1.223856   -1.320295    4.008193
     10          1           0       -0.099209    0.247063    5.115065
     11          1           0        0.830235   -0.520436    3.759395
     12          1           0       -1.927445   -1.472544    4.815006
     13          1           0       -0.988964   -2.207470    3.435039
 ---------------------------------------------------------------------
                    Distance matrix (angstroms):
                    1          2          3          4          5
     1  H    0.000000
     2  C    1.083816   0.000000
     3  H    1.843371   1.083148   0.000000
     4  C    2.109828   1.330540   2.113836   0.000000
     5  H    2.412589   2.080532   3.062732   1.089012   0.000000
     6  C    3.493404   2.516391   2.807975   1.479187   2.171904
     7  H    4.208224   3.321243   3.697386   2.156155   2.479835
     8  C    4.195913   3.116625   2.855613   2.620995   3.546612
     9  C    4.393929   3.434092   3.536085   2.601519   3.208068
    10  H    5.121989   4.040032   3.712310   3.500785   4.363349
    11  H    3.884997   2.849363   2.256325   2.841199   3.892442
    12  H    5.391448   4.450304   4.593211   3.473847   3.893580
    13  H    4.201246   3.373311   3.491472   2.777530   3.330356
                    6          7          8          9         10
     6  C    0.000000
     7  H    1.084751   0.000000
     8  C    1.501860   2.202780   0.000000
     9  C    1.520735   2.198408   1.499522   0.000000
    10  H    2.220626   2.477521   1.081153   2.224097   0.000000
    11  H    2.230979   3.105755   1.081313   2.218325   1.814046
    12  H    2.242127   2.471020   2.229859   1.081279   2.527753
    13  H    2.231327   3.083121   2.218608   1.082016   3.104655
                   11         12         13
    11  H    0.000000
    12  H    3.102519   0.000000
    13  H    2.502154   1.823505   0.000000
 Symmetry turned off by external request.
 Stoichiometry    C5H8
 Framework group  C1[X(C5H8)]
 Deg. of freedom    33
 Full point group                 C1      NOp   1
 Rotational constants (GHZ):          11.6093248           3.6607980           3.3282426
 Standard basis: def2TZVP (5D, 7F)
 The following finite field(s) will be applied:
 An electric field of              0.0001 -0.0002 -0.0075
   203 basis functions,   319 primitive gaussians,   228 cartesian basis functions
    19 alpha electrons       19 beta electrons
       nuclear repulsion energy       165.0810259805 Hartrees.
 NAtoms=   13 NActive=   13 NUniq=   13 SFac= 1.00D+00 NAtFMM=   60 NAOKFM=F Big=F
 Integral buffers will be    131072 words long.
 Raffenetti 2 integral format.
 Two-electron integral symmetry is turned off.
 One-electron integrals computed using PRISM.
   1 Symmetry operations used in ECPInt.
 ECPInt:  NShTT=    3828 NPrTT=   11160 LenC2=    3810 LenP2D=    9474.
 LDataN:  DoStor=T MaxTD1= 6 Len=  172
 NBasis=   203 RedAO= T EigKep=  1.50D-04  NBF=   203
 NBsUse=   203 1.00D-06 EigRej= -1.00D+00 NBFU=   203
 The nuclear repulsion energy is now       163.5338714595 hartrees.
 Initial guess from the checkpoint file:  "checkpoint.chk"
 B after Tr=     0.001051    0.001425   -0.000680
         Rot=    0.999995    0.001307    0.000115   -0.002941 Ang=   0.37 deg.
 Requested convergence on RMS density matrix=1.00D-08 within 128 cycles.
 Requested convergence on MAX density matrix=1.00D-06.
 Requested convergence on             energy=1.00D-06.
 No special actions if energy rises.
 SCF Done:  E(RB3LYP) =  -195.370356206     A.U. after    7 cycles
            NFock=  7  Conv=0.87D-08     -V/T= 2.0057
   1 Symmetry operations used in ECPInt.
 ECPInt:  NShTT=    3828 NPrTT=   11160 LenC2=    3810 LenP2D=    9474.
 LDataN:  DoStor=T MaxTD1= 7 Len=  274
 Calling FoFJK, ICntrl=      2127 FMM=F ISym2X=0 I1Cent= 0 IOpClX= 0 NMat=1 NMatS=1 NMatT=0.
 -------------------------------------------------------------------
 Center     Atomic                   Forces (Hartrees/Bohr)
 Number     Number              X              Y              Z
 -------------------------------------------------------------------
      1        1          -0.000611957   -0.000378505    0.000003073
      2        6           0.000629014    0.000601185    0.000023328
      3        1          -0.000006575   -0.000158270   -0.000003390
      4        6           0.000023875   -0.000040864   -0.000057070
      5        1           0.000007158    0.000009499    0.000007965
      6        6          -0.000107504   -0.000157400    0.000016716
      7        1           0.000040727    0.000040309    0.000004551
      8        6           0.000014127   -0.000028338    0.000052080
      9        6          -0.000016389    0.000102449   -0.000031069
     10        1          -0.000004154    0.000014503   -0.000009568
     11        1           0.000003899    0.000026898   -0.000008043
     12        1           0.000000058   -0.000038643    0.000001120
     13        1           0.000027723    0.000007177    0.000000308
 -------------------------------------------------------------------
 Cartesian Forces:  Max     0.000629014 RMS     0.000187083
 -----------------------------------------------------------------------------------------------
                       Internal Coordinate Forces (Hartree/Bohr or radian)
  Cent   Atom   N1       Length/X         N2         Alpha/Y        N3         Beta/Z          J
 -----------------------------------------------------------------------------------------------
      1  H 
      2  C        1  -0.000003(     1)
      3  H        2  -0.000007(     2)      1  -0.000000(    13)
      4  C        2  -0.000004(     3)      1  -0.000181(    14)      3   0.000248(    24)     0
      5  H        4  -0.000010(     4)      2   0.000007(    15)      1   0.000001(    25)     0
      6  C        4   0.000030(     5)      2   0.000124(    16)      5   0.000019(    26)     0
      7  H        6  -0.000001(     6)      4   0.000001(    17)      2   0.000122(    27)     0
      8  C        6   0.000029(     7)      4   0.000052(    18)      7   0.000098(    28)     0
      9  C        6  -0.000076(     8)      4  -0.000050(    19)      7   0.000133(    29)     0
     10  H        8  -0.000001(     9)      6  -0.000026(    20)      4   0.000026(    30)     0
     11  H        8   0.000001(    10)      6  -0.000018(    21)     10   0.000048(    31)     0
     12  H        9   0.000006(    11)      6   0.000072(    22)      4   0.000078(    32)     0
     13  H        9  -0.000000(    12)      6  -0.000012(    23)     12   0.000051(    33)     0
 -----------------------------------------------------------------------------------------------
 Internal  Forces:  Max     0.000247583 RMS     0.000074441

 GradGradGradGradGradGradGradGradGradGradGradGradGradGradGradGradGradGrad
 Berny optimization.
 Search for a local minimum.
 Step number   5 out of a maximum of   43
 All quantities printed in internal units (Hartrees-Bohrs-Radians)
 Update second derivatives using D2CorN and points    1    2    3    4    5

 DE= -1.29D-06 DEPred=-7.56D-07 R= 1.71D+00
 TightC=F SS=  1.41D+00  RLast= 1.07D-02 DXNew= 1.6818D-01 3.2049D-02
 Trust test= 1.71D+00 RLast= 1.07D-02 DXMaxT set to 1.00D-01
 ITU=  1  1  1  1  0
     Eigenvalues ---    0.00727   0.04840   0.07179   0.07954   0.09005
     Eigenvalues ---    0.12507   0.16323   0.17994   0.18674   0.23329
     Eigenvalues ---    0.25579   0.29609   0.32454   0.34123   0.34987
     Eigenvalues ---    0.35395   0.35606   0.35742   0.35784   0.35826
     Eigenvalues ---    0.35839   0.35921   0.38196   0.42931   0.43515
     Eigenvalues ---    0.51322   0.51821   0.52210   0.59636   0.72858
     Eigenvalues ---    0.82372   1.31853   3.90291
 RFO step:  Lambda=-5.67283684D-07 EMin= 7.26826970D-03
 Quartic linear search produced a step of  0.91101.
 Variable       Old X    -DE/DX   Delta X   Delta X   Delta X     New X
                                 (Linear)    (Quad)   (Total)
    R2        2.04811  -0.00000  -0.00001   0.00001   0.00000   2.04812
    R3        2.04685  -0.00001  -0.00003  -0.00000  -0.00003   2.04682
    R4        2.51436  -0.00000   0.00004   0.00002   0.00006   2.51442
    R5        2.05793  -0.00001  -0.00007   0.00002  -0.00005   2.05789
    R6        2.79526   0.00003  -0.00006   0.00002  -0.00003   2.79523
    R7        2.04988  -0.00000  -0.00009   0.00002  -0.00007   2.04981
    R8        2.83810   0.00003   0.00003   0.00012   0.00015   2.83826
    R9        2.87377  -0.00008   0.00059  -0.00033   0.00026   2.87403
   R10        2.04308  -0.00000   0.00002  -0.00002   0.00000   2.04309
   R11        2.04338   0.00000  -0.00000   0.00001   0.00001   2.04339
   R12        2.04332   0.00001  -0.00000   0.00001   0.00001   2.04333
   R13        2.04471  -0.00000  -0.00005   0.00002  -0.00002   2.04469
    A3        2.03452  -0.00000  -0.00016   0.00017   0.00001   2.03453
    A4        2.12034  -0.00018  -0.00020  -0.00019  -0.00039   2.11995
    A5        2.06412   0.00001  -0.00013  -0.00009  -0.00022   2.06390
    A6        2.21816   0.00012   0.00035   0.00011   0.00046   2.21862
    A7        1.98255   0.00000   0.00011  -0.00010   0.00002   1.98256
    A8        2.14841   0.00005   0.00018  -0.00002   0.00016   2.14857
    A9        2.09897  -0.00005   0.00004   0.00008   0.00012   2.09909
   A10        2.05326  -0.00003  -0.00037   0.00014  -0.00023   2.05303
   A11        2.06915  -0.00002  -0.00002  -0.00005  -0.00007   2.06908
   A12        2.05997   0.00007  -0.00041   0.00028  -0.00014   2.05983
   A13        2.04251  -0.00001  -0.00024   0.00003  -0.00022   2.04229
    D4        3.12622   0.00025  -0.00134   0.00138   0.00004   3.12626
    D5       -0.00830   0.00000   0.00098  -0.00066   0.00033  -0.00798
    D6        3.13084   0.00002  -0.00089  -0.00003  -0.00092   3.12992
    D7        2.38933   0.00012   0.00939  -0.00096   0.00843   2.39776
    D8       -2.59111   0.00010  -0.00056   0.00047  -0.00009  -2.59120
    D9        2.44860   0.00013  -0.00029   0.00035   0.00005   2.44865
   D10        2.49882   0.00003  -0.00027  -0.00011  -0.00038   2.49844
   D11       -2.51260   0.00005   0.00104  -0.00028   0.00076  -2.51184
   D12       -2.41796   0.00008   0.00021  -0.00002   0.00019  -2.41777
   D13        2.50990   0.00005  -0.00062   0.00026  -0.00036   2.50953
         Item               Value     Threshold  Converged?
 Maximum Force            0.000248     0.000450     YES
 RMS     Force            0.000074     0.000300     YES
 Maximum Displacement     0.008428     0.001800     NO 
 RMS     Displacement     0.001493     0.001200     NO 
 Predicted change in Energy=-4.900621D-07
 GradGradGradGradGradGradGradGradGradGradGradGradGradGradGradGradGradGrad

 ---------------------------------------------------------------------------------------------------
                            Z-MATRIX (ANGSTROMS AND DEGREES)
   CD    Cent   Atom    N1       Length/X        N2       Alpha/Y        N3        Beta/Z          J
 ---------------------------------------------------------------------------------------------------
      1      1  H 
      2      2  C        1   1.083817(     1)
      3      3  H        2   1.083129(     2)      1  116.570(    13)
      4      4  C        2   1.330572(     3)      1  121.464(    14)      3  179.122(    24)      0
      5      5  H        4   1.088987(     4)      2  118.253(    15)      1   -0.457(    25)      0
      6      6  C        4   1.479170(     5)      2  127.118(    16)      5  179.331(    26)      0
      7      7  H        6   1.084713(     6)      4  113.592(    17)      2  137.381(    27)      0
      8      8  C        6   1.501941(     7)      4  123.104(    18)      7 -148.465(    28)      0
      9      9  C        6   1.520874(     8)      4  120.269(    19)      7  140.297(    29)      0
     10     10  H        8   1.081155(     9)      6  117.630(    20)      4  143.150(    30)      0
     11     11  H        8   1.081317(    10)      6  118.549(    21)     10 -143.918(    31)      0
     12     12  H        9   1.081285(    11)      6  118.020(    22)      4 -138.528(    32)      0
     13     13  H        9   1.082003(    12)      6  117.014(    23)     12  143.786(    33)      0
 ---------------------------------------------------------------------------------------------------
                         Z-Matrix orientation:                         
 ---------------------------------------------------------------------
 Center     Atomic      Atomic             Coordinates (Angstroms)
 Number     Number       Type             X           Y           Z
 ---------------------------------------------------------------------
      1          1           0        0.000000    0.000000    0.000000
      2          6           0        0.000000    0.000000    1.083817
      3          1           0        0.968740    0.000000    1.568289
      4          6           0       -1.134798    0.017397    1.778334
      5          1           0       -2.074943    0.039462    1.229215
      6          6           0       -1.280962   -0.003546    3.250116
      7          1           0       -2.034318    0.682909    3.621379
      8          6           0       -0.139982   -0.290388    4.183771
      9          6           0       -1.215422   -1.320298    4.008355
     10          1           0       -0.104870    0.256820    5.115558
     11          1           0        0.832296   -0.503712    3.761377
     12          1           0       -1.918722   -1.477849    4.814409
     13          1           0       -0.972892   -2.205675    3.435627
 ---------------------------------------------------------------------
                    Distance matrix (angstroms):
                    1          2          3          4          5
     1  H    0.000000
     2  C    1.083817   0.000000
     3  H    1.843363   1.083129   0.000000
     4  C    2.109631   1.330572   2.114070   0.000000
     5  H    2.412036   2.080405   3.062766   1.088987   0.000000
     6  C    3.493441   2.516690   2.808863   1.479170   2.171703
     7  H    4.209418   3.323257   3.701338   2.156121   2.477524
     8  C    4.196172   3.116670   2.855579   2.621167   3.547151
     9  C    4.391736   3.431232   3.530959   2.601714   3.211128
    10  H    5.123074   4.041273   3.715066   3.500733   4.362579
    11  H    3.885151   2.848818   2.254324   2.841385   3.893446
    12  H    5.389254   4.447791   4.588983   3.473909   3.896184
    13  H    4.197029   3.367867   3.481650   2.777567   3.335178
                    6          7          8          9         10
     6  C    0.000000
     7  H    1.084713   0.000000
     8  C    1.501941   2.202749   0.000000
     9  C    1.520874   2.198450   1.499352   0.000000
    10  H    2.220553   2.477275   1.081155   2.224078   0.000000
    11  H    2.231012   3.105663   1.081317   2.218323   1.813972
    12  H    2.242168   2.470943   2.229728   1.081285   2.527810
    13  H    2.231299   3.083027   2.218510   1.082003   3.104756
                   11         12         13
    11  H    0.000000
    12  H    3.102566   0.000000
    13  H    2.502298   1.823558   0.000000
 Symmetry turned off by external request.
 Stoichiometry    C5H8
 Framework group  C1[X(C5H8)]
 Deg. of freedom    33
 Full point group                 C1      NOp   1
 Rotational constants (GHZ):          11.6001160           3.6611245           3.3307407
 Standard basis: def2TZVP (5D, 7F)
 The following finite field(s) will be applied:
 An electric field of              0.0001 -0.0002 -0.0075
   203 basis functions,   319 primitive gaussians,   228 cartesian basis functions
[...]
   A13        2.04193  -0.00002   0.00000  -0.00027  -0.00027   2.04166
    D4        3.12886   0.00011   0.00000   0.00312   0.00312   3.13198
    D5       -0.00925  -0.00002   0.00000  -0.00218  -0.00218  -0.01143
    D6        3.12931   0.00000   0.00000   0.00090   0.00090   3.13021
    D7        2.40696  -0.00001   0.00000  -0.00261  -0.00261   2.40435
    D8       -2.59082   0.00004   0.00000   0.00081   0.00081  -2.59001
    D9        2.44914   0.00005   0.00000   0.00090   0.00090   2.45004
   D10        2.49816   0.00004   0.00000   0.00033   0.00033   2.49849
   D11       -2.51121   0.00002   0.00000   0.00001   0.00001  -2.51120
   D12       -2.41741   0.00003   0.00000  -0.00003  -0.00003  -2.41745
   D13        2.50928   0.00002   0.00000   0.00011   0.00011   2.50939
         Item               Value     Threshold  Converged?
 Maximum Force            0.000113     0.000450     YES
 RMS     Force            0.000028     0.000300     YES
 Maximum Displacement     0.003123     0.001800     NO 
 RMS     Displacement     0.000858     0.001200     YES
 Predicted change in Energy=-2.854100D-07
                       ----------------------------
                       ! Non-Optimized Parameters !
                       ! (Angstroms and Degrees)  !
 ----------------------                            ----------------------
 !      Name          Value   Derivative information (Atomic Units)     !
 ------------------------------------------------------------------------
 !       R2          1.0838   -DE/DX =    0.0                           !
 !       R3          1.0831   -DE/DX =    0.0                           !
 !       R4          1.3306   -DE/DX =    0.0                           !
 !       R5          1.089    -DE/DX =    0.0                           !
 !       R6          1.4791   -DE/DX =    0.0                           !
 !       R7          1.0847   -DE/DX =    0.0                           !
 !       R8          1.5021   -DE/DX =    0.0                           !
 !       R9          1.5208   -DE/DX =    0.0                           !
 !       R10         1.0811   -DE/DX =    0.0                           !
 !       R11         1.0813   -DE/DX =    0.0                           !
 !       R12         1.0813   -DE/DX =    0.0                           !
 !       R13         1.082    -DE/DX =    0.0                           !
 !       A3        116.5923   -DE/DX =    0.0                           !
 !       A4        121.4136   -DE/DX =    0.0                           !
 !       A5        118.2282   -DE/DX =    0.0                           !
 !       A6        127.1609   -DE/DX =    0.0                           !
 !       A7        113.5963   -DE/DX =    0.0                           !
 !       A8        123.1068   -DE/DX =    0.0                           !
 !       A9        120.2642   -DE/DX =    0.0                           !
 !       A10       117.5973   -DE/DX =    0.0                           !
 !       A11       118.5544   -DE/DX =    0.0                           !
 !       A12       118.0618   -DE/DX =    0.0                           !
 !       A13       116.9784   -DE/DX =    0.0                           !
 !       D4        179.4492   -DE/DX =    0.0001                        !
 !       D5         -0.6549   -DE/DX =    0.0                           !
 !       D6        179.3478   -DE/DX =    0.0                           !
 !       D7        137.7589   -DE/DX =    0.0                           !
 !       D8       -148.3966   -DE/DX =    0.0                           !
 !       D9        140.377    -DE/DX =    0.0                           !
 !       D10       143.1527   -DE/DX =    0.0                           !
 !       D11      -143.8814   -DE/DX =    0.0                           !
 !       D12      -138.5095   -DE/DX =    0.0                           !
 !       D13       143.7777   -DE/DX =    0.0                           !
 ------------------------------------------------------------------------
 GradGradGradGradGradGradGradGradGradGradGradGradGradGradGradGradGradGrad


 ----------------------------------------------------------------------

 Electric dipole moment (input orientation):
 (Debye = 10**-18 statcoulomb cm , SI units = C m)
                  (au)            (Debye)         (10**-30 SI)
   Tot        0.691022D+00      0.175640D+01      0.585873D+01
   x         -0.150599D+00     -0.382783D+00     -0.127683D+01
   y         -0.441584D-01     -0.112240D+00     -0.374391D+00
   z          0.672965D+00      0.171051D+01      0.570563D+01

 Dipole polarizability, Alpha (input orientation).
 (esu units = cm**3 , SI units = C**2 m**2 J**-1)
 Alpha(0;0):
               (au)            (10**-24 esu)      (10**-40 SI)
   iso        0.585768D+02      0.868018D+01      0.965801D+01
   aniso      0.223957D+02      0.331870D+01      0.369255D+01
   xx         0.587869D+02      0.871132D+01      0.969265D+01
   yx         0.187375D+01      0.277661D+00      0.308940D+00
   yy         0.482508D+02      0.715003D+01      0.795548D+01
   zx        -0.626675D+01     -0.928636D+00     -0.103325D+01
   zy        -0.446162D+01     -0.661144D+00     -0.735622D+00
   zz         0.686926D+02      0.101792D+02      0.113259D+02

 ----------------------------------------------------------------------

 Dipole orientation:
     1          0.00000000          0.00000000          0.00000000
     6          0.44635156          0.13087903          1.99456732
     1          2.43235011          0.17649284          2.48761216
     6         -1.36190433          0.25707205          3.73724891
     1         -3.32158851          0.24247413          3.10937278
     6         -1.02873997          0.39243670          6.50914208
     1         -2.28906737          1.72601039          7.42270584
     6          1.46752136         -0.02787603          7.79334478
     6         -0.55310872         -1.99954432          8.02987596
     1          1.89443697          1.11652310          9.43110201
     1          3.09557522         -0.47247919          6.64129296
     1         -1.51559459         -2.20660999          9.82041650
     1         -0.30996744         -3.73553923          6.97726418

 Electric dipole moment (dipole orientation):
 (Debye = 10**-18 statcoulomb cm , SI units = C m)
                  (au)            (Debye)         (10**-30 SI)
   Tot        0.691022D+00      0.175640D+01      0.585873D+01
   x          0.000000D+00      0.000000D+00      0.000000D+00
   y          0.000000D+00      0.000000D+00      0.000000D+00
   z          0.691022D+00      0.175640D+01      0.585873D+01

 Dipole polarizability, Alpha (dipole orientation).
 (esu units = cm**3 , SI units = C**2 m**2 J**-1)
 Alpha(0;0):
               (au)            (10**-24 esu)      (10**-40 SI)
   iso        0.585768D+02      0.868018D+01      0.965801D+01
   aniso      0.223957D+02      0.331870D+01      0.369255D+01
   xx         0.565790D+02      0.838415D+01      0.932862D+01
   yx         0.687595D+00      0.101891D+00      0.113369D+00
   yy         0.477450D+02      0.707508D+01      0.787209D+01
   zx        -0.358202D+01     -0.530801D+00     -0.590596D+00
   zy        -0.330580D+01     -0.489868D+00     -0.545052D+00
   zz         0.714063D+02      0.105813D+02      0.117733D+02

 ----------------------------------------------------------------------
 1\1\GINC-BHC0105\Freq\RB3LYP\def2TZVP\C5H8\DHANAWAY\10-Jun-2022\1\\#N 
 Geom=AllCheck Guess=TCheck SCRF=Check GenChk RB3LYP/def2TZVP Freq\\int
 _zmat_initalOpt\\0,1\H\C,1,R2\H,2,R3,1,A3\C,2,R4,1,A4,3,D4,0\H,4,R5,2,
 A5,1,D5,0\C,4,R6,2,A6,5,D6,0\H,6,R7,4,A7,2,D7,0\C,6,R8,4,A8,7,D8,0\C,6
 ,R9,4,A9,7,D9,0\H,8,R10,6,A10,4,D10,0\H,8,R11,6,A11,10,D11,0\H,9,R12,6
 ,A12,4,D12,0\H,9,R13,6,A13,12,D13,0\\R2=1.08380064\R3=1.08311654\R4=1.
 33061009\R5=1.08897465\R6=1.47911551\R7=1.08467681\R8=1.50207676\R9=1.
 52090629\R10=1.08114867\R11=1.08131698\R12=1.08129574\R13=1.08200728\A
 3=116.58202441\A4=121.42805017\A5=118.22987991\A6=127.15759474\A7=113.
 59139307\A8=123.11441471\A9=120.2742832\A10=117.61236202\A11=118.54313
 244\A12=118.03685914\A13=116.99369129\D4=179.27023143\D5=-0.5297736\D6
 =179.29613429\D7=137.90851203\D8=-148.44310121\D9=140.32550976\D10=143
 .13385022\D11=-143.88193356\D12=-138.50762371\D13=143.77117126\\Versio
 n=ES64L-G16RevA.03\HF=-195.370358\RMSD=3.082e-09\RMSF=1.572e-04\ZeroPo
 int=0.1142486\Thermal=0.1196644\Dipole=-0.1505985,-0.0441584,0.6729647
 \DipoleDeriv=0.0444938,-0.004218,-0.0161689,-0.0044223,0.1492802,-0.00
 75704,0.0347168,0.0097093,-0.1965845,-0.1229438,-0.0338664,0.2495858,0
 .0115795,-0.3482104,-0.0319511,0.1193404,0.0587934,-0.10753,-0.0523278
 ,0.0018899,-0.0308862,0.0052551,0.1440835,-0.0005743,-0.0854557,-0.003
 3804,0.0176583,0.2015086,0.0445439,-0.1283759,0.0549404,-0.2107591,-0.
 0116039,-0.0988874,-0.1124917,0.5342235,-0.1068763,0.0127655,-0.099722
 ,-0.0113514,0.1203275,0.0250425,-0.104162,0.0223896,-0.074117,0.032293
 ,0.0758352,-0.0554325,-0.0077871,0.0216644,0.2762791,-0.0019109,0.1543
 415,-0.250633,0.004062,0.0979431,-0.0327434,0.094208,0.0141828,-0.0244
 111,0.0359935,0.0070875,-0.044746,-0.0707893,-0.0473882,-0.0947151,-0.
 041243,0.098466,-0.1153138,-0.0612372,-0.0090005,-0.0010214,0.0199031,
 -0.1276396,0.1416007,-0.0472165,-0.0445238,-0.0338865,-0.0058496,0.008
 2949,0.1196172,0.0462083,0.0037736,-0.0233402,-0.0272996,0.0493177,-0.
 0444861,-0.0257399,-0.0576912,-0.0137053,-0.0784581,-0.0039511,0.01344
 64,0.0113285,0.0605051,-0.0346237,0.0773018,-0.028792,0.0277933,0.0338
 034,-0.0364344,0.0377684,-0.0239316,0.0181853,0.0313416,0.0870962,0.04
 17138,-0.0209212,0.0491232,0.0167464,0.0389828,-0.0140599,-0.0725193,-
 0.0282423,0.0287941,-0.0909743,0.0099661\Polar=58.7869116,1.8737494,48
 .250815,-6.266746,-4.4616212,68.6926367\PG=C01 [X(C5H8)]\NImag=0\\0.05
 283718,-0.00010306,0.02155275,0.00122758,-0.00000131,0.35295304,-0.055
 98503,0.00078659,-0.00371185,0.77762889,0.00002195,-0.02980326,0.00041
 854,-0.00476815,0.09972197,-0.00852570,0.00049397,-0.33011195,-0.08802
 433,0.00118227,0.68444581,0.00290173,-0.00000407,0.00192905,-0.2746450
 4,-0.00011984,-0.11036681,0.29563511,0.00002005,0.00140539,-0.00003053
 ,-0.00091035,-0.03392043,-0.00039280,-0.00001969,0.02268148,-0.0245738
 3,0.00012683,-0.00998232,-0.11447351,-0.00008968,-0.11518324,0.1216075
 0,-0.00049415,0.11475017,0.00217823,-0.00075558,-0.00317995,-0.4261217
 4,0.00511218,0.18949257,-0.02318842,0.00118041,0.01393581,0.78740808,-
 0.00019622,0.00208870,-0.00000674,0.00521307,-0.05068161,-0.00259753,0
 .00007402,0.00596047,-0.00009756,-0.01680330,0.15401449,0.03103663,0.0
 0013336,-0.01502360,0.17947562,-0.00127789,-0.22098649,-0.01426771,-0.
 00023558,0.01302956,-0.09998192,-0.00491007,0.61388992,0.00137311,-0.0
 0033440,0.00056035,-0.02470282,0.00038275,-0.01591374,-0.00305857,0.00
 063420,0.00324783,-0.24830492,0.00520907,-0.11161454,0.26940244,-0.000
 11292,-0.00780688,-0.00005257,-0.00063588,0.00682504,0.00132185,0.0001
 2884,0.01166469,-0.00009546,0.00538491,-0.04180748,0.00121617,-0.00567
 019,0.02568652,-0.00012436,-0.00008497,0.00132014,0.01651969,-0.000067
 80,0.01012546,0.00302869,0.00009801,-0.00089019,-0.11572417,0.00320723
 ,-0.12270692,0.12191601,-0.00373977,0.13106178,-0.00369530,-0.00084064
 ,0.00224153,0.00122332,-0.00147793,0.02924228,0.00087496,0.00009463,0.
 00018187,-0.08864864,0.00865895,0.01550684,0.00350986,0.00252969,-0.02
 867236,0.45753196,0.00032896,0.01274821,-0.00051522,-0.00438241,0.0082
 8869,0.00385695,-0.00001762,-0.00735323,0.00062898,0.01156832,-0.06947
 148,-0.01225920,-0.00017946,0.00244224,0.00090174,-0.19219311,0.402890
 47,0.00000751,-0.00049140,0.00126167,0.01561968,-0.00202504,-0.0245227
 5,-0.00208624,0.00051231,-0.00014513,0.00878622,-0.00077147,-0.2255950
 1,0.00184819,0.00237617,-0.01601969,-0.02435244,-0.00153650,0.55909684
 ,-0.00010330,-0.00001094,0.00027865,0.00207450,0.00039223,-0.00031665,
 0.00008826,0.00037767,-0.00027607,-0.00269307,-0.00001011,0.00379014,0
 .00060105,-0.00048505,0.00075476,-0.18027438,0.12874841,0.06481169,0.1
 9059942,-0.00004475,-0.00025932,0.00030444,0.00043897,-0.00015278,-0.0
 0041372,-0.00003883,0.00019753,-0.00010343,-0.00315156,0.00218900,0.00
 370336,-0.00002789,0.00033594,-0.00026992,0.12623979,-0.14468447,-0.06
 371152,-0.13676983,0.15862345,0.00097117,0.00178517,-0.00073604,-0.001
 73786,0.00016689,-0.00440782,0.00007891,-0.00074070,0.00009207,0.02456
 902,-0.01968407,-0.01150830,-0.00058331,0.00051592,0.00099478,0.069492
 01,-0.06357404,-0.08449424,-0.07159797,0.06114748,0.09429127,-0.000157
 52,0.00027698,0.00017636,0.00075303,0.00040558,0.00112756,0.00028567,-
 0.00114970,0.00056526,0.00594383,0.00288489,-0.00318616,0.00101499,-0.
 00020723,0.00287797,-0.15062963,0.05913543,-0.07867101,-0.01748321,-0.
 00671806,-0.01188458,0.63080692,0.00033130,-0.00001937,-0.00027141,0.0
 0066295,-0.00048393,-0.00217998,0.00024004,-0.00053540,-0.00012459,-0.
 00141756,-0.00428179,0.00813062,-0.00054681,0.00311807,-0.00211596,0.0
 1812015,-0.03158916,-0.01356836,0.01461719,0.00269000,0.01057484,0.007
 72719,0.33068473,-0.00032730,0.00084265,0.00058543,0.00060325,0.001227
 35,0.00230623,0.00008382,-0.00061807,-0.00046347,-0.03030379,-0.005553
 39,-0.01556687,0.00110381,-0.00016001,-0.00385426,-0.05492522,0.016588
 36,-0.12431284,0.00927306,0.00617515,0.00400370,-0.02671009,0.18861938
 ,0.54418177,-0.00031302,0.00136727,0.00041800,-0.00141742,0.00092421,0
 .00500842,-0.00012933,-0.00052246,0.00020652,-0.00569111,-0.00529198,-
 0.00732272,0.00013304,-0.00156545,-0.00005402,-0.02388677,-0.00367940,
 0.03250508,0.00632864,0.02050887,-0.00712490,-0.13603731,-0.06637245,-
 0.00706669,0.39763974,0.00018750,-0.00004249,-0.00003418,0.00450748,-0
 .00082250,-0.00325335,0.00006245,-0.00012722,-0.00020391,-0.00294143,0
 .00094934,0.00986694,0.00035291,0.00037735,0.00047900,0.03981807,-0.15
 324664,0.06581297,-0.00737243,-0.01984283,0.00715778,-0.10879070,-0.12
 245768,-0.05046407,0.04997753,0.59022797,0.00001291,-0.00249598,-0.000
 42051,-0.00391165,0.00088876,-0.00002974,-0.00025755,0.00164104,0.0003
 6826,0.01369754,0.02772033,-0.01921630,-0.00059402,-0.00210438,0.00059
 546,0.00536992,0.04398514,-0.07859072,-0.00490768,-0.00783764,0.001412
 85,0.01755489,-0.01929257,-0.05258189,-0.21256136,0.06835547,0.4828876
 0,0.00024835,0.00007337,0.00008758,0.00039020,-0.00014417,-0.00016686,
 0.00034502,0.00001700,-0.00022726,-0.00292100,-0.00151117,0.00167256,0
 .00010412,0.00038066,-0.00061019,-0.00303447,-0.00938920,-0.01572157,0
 .00142897,0.00096994,-0.00063036,-0.04984376,0.00069571,0.00279950,-0.
 00270332,-0.00718033,-0.01344001,0.05254927,-0.00002987,-0.00003587,0.
 00003386,0.00003709,0.00005529,0.00013641,-0.00009605,0.00009416,-0.00
 014944,0.00359518,0.00083070,0.00099725,0.00014424,-0.00045851,0.00125
 685,-0.00305296,0.00867855,0.01736341,-0.00163265,-0.00011529,-0.00094
 739,-0.00112646,-0.11308598,-0.13283620,0.00186578,-0.01395870,-0.0228
 5689,0.00299461,0.11952702,-0.00002630,-0.00005598,-0.00008608,-0.0000
 7097,0.00000111,-0.00000461,-0.00002928,-0.00007534,0.00017400,-0.0028
 3798,-0.00075996,-0.00004770,0.00004441,0.00029898,-0.00092519,0.00139
 412,-0.00929629,-0.01455099,0.00115690,0.00075978,0.00147337,-0.000822
 95,-0.13336700,-0.26325109,-0.00212458,0.00522253,0.00715733,0.0037148
 8,0.13999556,0.27576728,0.00050804,-0.00024713,0.00007737,0.00028412,-
 0.00032800,-0.00026463,0.00083852,0.00025068,-0.00002908,0.00058764,0.
 00076881,0.00272525,0.00004856,0.00003396,0.00000215,-0.01386670,0.001
 29126,0.00448033,-0.00146480,-0.00195195,-0.00079889,-0.27627226,0.050
 11034,0.10268361,-0.01157983,0.00248830,0.00287145,0.00347679,-0.00044
 469,-0.00096468,0.29707055,-0.00027724,-0.00009366,-0.00008442,0.00015
 887,-0.00014246,0.00000367,-0.00025081,0.00033969,0.00058875,-0.001943
 79,0.00072748,-0.00126813,-0.00010205,0.00002626,-0.00026930,0.0131709
 8,-0.00691176,-0.00915649,0.00287484,0.00097448,0.00224247,0.05260901,
 -0.04954155,-0.03022820,-0.02627034,0.00556543,0.01306746,0.01374800,-
 0.00215297,-0.00374853,-0.05194809,0.05144035,0.00019417,0.00015942,0.
 00024203,-0.00042604,0.00000524,-0.00108676,0.00014845,0.00007081,-0.0
 0168422,0.00187578,0.00105577,0.00092962,0.00018801,0.00006584,0.00045
 279,-0.01958690,0.00392815,0.01070627,-0.00312538,-0.00133097,-0.00160
 931,0.10557675,-0.02988911,-0.09490558,0.00189634,-0.00131652,-0.00443
 513,0.02329827,-0.00269524,-0.00692152,-0.10971782,0.02975905,0.096693
 74,0.00021761,-0.00048530,-0.00004966,0.00028351,-0.00007855,-0.001047
 47,0.00014778,0.00026302,-0.00012202,0.00116362,0.00271784,0.00070343,
 -0.00008951,0.00004367,-0.00001981,0.00741467,0.00030792,-0.01333445,0
 .00002267,-0.00187588,0.00047012,-0.01543305,-0.00125919,0.01854820,-0
 .16380681,-0.02711697,0.14786374,0.00168695,0.00234088,-0.00092641,-0.
 00096528,-0.00442150,0.00088946,0.17241157,-0.00007628,0.00049189,0.00
 020056,-0.00041935,0.00038732,0.00133479,0.00007267,-0.00038864,0.0000
 3652,-0.00184763,-0.00232717,-0.00183870,0.00011924,-0.00010995,0.0001
 1172,-0.01338487,-0.00572162,0.01423702,0.00107812,0.00209910,0.000885
 78,-0.00726595,-0.00480115,0.00926842,-0.02455713,-0.05493723,0.023639
 89,-0.00085546,0.00153354,-0.00027423,0.00023571,-0.00130098,0.0008209
 4,0.03071834,0.05825776,0.00014780,-0.00051187,-0.00004374,-0.00017293
 ,0.00023918,-0.00087820,0.00007952,0.00026870,-0.00010059,0.00158516,0
 .00290432,0.00042020,-0.00008189,0.00005993,-0.00010077,0.00961147,-0.
 00007413,-0.01201112,-0.00085170,-0.00168135,0.00135333,-0.01031441,0.
 00023849,0.01134686,0.14931338,0.02684979,-0.20804057,0.00041432,0.001
 58756,0.00023287,-0.00160151,-0.00263268,0.00069508,-0.15561884,-0.030
 67712,0.21566767,-0.00001007,0.00027690,-0.00005502,0.00023449,-0.0003
 2227,-0.00024463,-0.00009567,-0.00023545,-0.00004302,0.00028750,-0.001
 71388,0.00146259,-0.00003134,0.00017501,0.00010566,-0.00651888,0.00846
 090,0.00610701,0.00087526,0.00242118,-0.00122335,0.00705232,-0.0229088
 7,-0.01576218,-0.05853649,0.05600761,0.04830181,-0.00172712,-0.0045951
 0,0.00149285,0.00133465,0.00265211,-0.00121109,-0.00305370,0.01618259,
 0.00748963,0.06018905,-0.00004942,-0.00022609,0.00003898,-0.00068888,0
 .00072867,0.00050746,-0.00003110,-0.00001848,-0.00002286,0.00201983,0.
 00180937,-0.00225813,0.00001839,-0.00029329,0.00049316,0.00231726,-0.0
 1606980,-0.00904110,-0.00180744,-0.00205482,0.00046987,0.00221901,-0.0
 0969679,-0.00286138,0.05361554,-0.23168480,-0.12471063,0.00020103,-0.0
 0091195,0.00129938,-0.00025919,0.00106968,-0.00063338,-0.00115428,0.00
 681713,0.00342918,-0.05640074,0.25053116,-0.00002025,0.00010011,0.0000
 4192,0.00031091,-0.00066894,0.00033406,0.00005163,-0.00000369,0.000035
 10,-0.00191430,-0.00050686,0.00238188,-0.00012113,0.00029733,-0.000053
 37,-0.00550310,0.01736605,0.00917771,0.00101025,0.00325833,-0.00086566
 ,0.00371041,-0.00675435,-0.00748800,0.04690653,-0.12847245,-0.12910663
 ,-0.00119086,-0.00188573,0.00098233,0.00053645,0.00172634,0.00092301,0
 .00264371,-0.01774558,-0.00854100,-0.04642025,0.13328944,0.13217865\\0
 .00054314,0.00032887,-0.00000476,-0.00054619,-0.00048421,-0.00000252,0
 .00000047,0.00008451,-0.00000109,-0.00001595,0.00009605,0.00001495,-0.
 00000190,-0.00001312,-0.00000345,0.00006237,0.00003773,0.00000112,-0.0
 0003768,-0.00003748,-0.00000694,-0.00001490,0.00001219,0.00000842,0.00
 001145,-0.00002639,-0.00000835,0.00001397,0.00000014,-0.00000120,-0.00
 000189,-0.00001225,-0.00000131,-0.00000349,0.00002006,-0.00000124,-0.0
 0000940,-0.00000610,0.00000637\\\@


 THERE IS NOTHING NOBLE IN BEING SUPERIOR TO SOME OTHER MAN.
 TRUE NOBILITY IS BEING SUPERIOR TO YOUR FORMER SELF.

                                                   -- HINDU PROVERB
 Job cpu time:       0 days  0 hours 26 minutes 17.4 seconds.
 Elapsed time:       0 days  0 hours  2 minutes 12.0 seconds.
 File lengths (MBytes):  RWF=     52 Int=      0 D2E=      0 Chk=     32 Scr=      1
 Normal termination of Gaussian 16 at Fri Jun 10 23:42:40 2022.
