 Entering Gaussian System, Link 0=g16
 Input=int_initalOpt_zmat_sp.gjf
 Output=int_initalOpt_zmat_sp.out
 Initial command:
 /software/gaussian/g16-a03/l1.exe "/local_scratch/11171779/Gau-28923.inp" -scrdir="/local_scratch/11171779/"
 Entering Link 1 = /software/gaussian/g16-a03/l1.exe PID=     28924.
  
 Copyright (c) 1988,1990,1992,1993,1995,1998,2003,2009,2016,
            Gaussian, Inc.  All Rights Reserved.
  
 This is part of the Gaussian(R) 16 program.  It is based on
 the Gaussian(R) 09 system (copyright 2009, Gaussian, Inc.),
 the Gaussian(R) 03 system (copyright 2003, Gaussian, Inc.),
 the Gaussian(R) 98 system (copyright 1998, Gaussian, Inc.),
 the Gaussian(R) 94 system (copyright 1995, Gaussian, Inc.),
 the Gaussian 92(TM) system (copyright 1992, Gaussian, Inc.),
 the Gaussian 90(TM) system (copyright 1990, Gaussian, Inc.),
 the Gaussian 88(TM) system (copyright 1988, Gaussian, Inc.),
 the Gaussian 86(TM) system (copyright 1986, Carnegie Mellon
 University), and the Gaussian 82(TM) system (copyright 1983,
 Carnegie Mellon University). Gaussian is a federally registered
 trademark of Gaussian, Inc.
  
 This software contains proprietary and confidential information,
 including trade secrets, belonging to Gaussian, Inc.
  
 This software is provided under written license and may be
 used, copied, transmitted, or stored only in accord with that
 written license.
  
 The following legend is applicable only to US Government
 contracts under FAR:
  
                    RESTRICTED RIGHTS LEGEND
  
 Use, reproduction and disclosure by the US Government is
 subject to restrictions as set forth in subparagraphs (a)
 and (c) of the Commercial Computer Software - Restricted
 Rights clause in FAR 52.227-19.
  
 Gaussian, Inc.
 340 Quinnipiac St., Bldg. 40, Wallingford CT 06492
  
  
 ---------------------------------------------------------------
 Warning -- This program may not be used in any manner that
 competes with the business of Gaussian, Inc. or will provide
 assistance to any competitor of Gaussian, Inc.  The licensee
 of this program is prohibited from giving any competitor of
 Gaussian, Inc. access to this program.  By using this program,
 the user acknowledges that Gaussian, Inc. is engaged in the
 business of creating and licensing software in the field of
 computational chemistry and represents and warrants to the
 licensee that it is not a competitor of Gaussian, Inc. and that
 it will not use this program in any manner prohibited above.
 ---------------------------------------------------------------
  

 Cite this work as:
 Gaussian 16, Revision A.03,
 M. J. Frisch, G. W. Trucks, H. B. Schlegel, G. E. Scuseria, 
 M. A. Robb, J. R. Cheeseman, G. Scalmani, V. Barone, 
 G. A. Petersson, H. Nakatsuji, X. Li, M. Caricato, A. V. Marenich, 
 J. Bloino, B. G. Janesko, R. Gomperts, B. Mennucci, H. P. Hratchian, 
 J. V. Ortiz, A. F. Izmaylov, J. L. Sonnenberg, D. Williams-Young, 
 F. Ding, F. Lipparini, F. Egidi, J. Goings, B. Peng, A. Petrone, 
 T. Henderson, D. Ranasinghe, V. G. Zakrzewski, J. Gao, N. Rega, 
 G. Zheng, W. Liang, M. Hada, M. Ehara, K. Toyota, R. Fukuda, 
 J. Hasegawa, M. Ishida, T. Nakajima, Y. Honda, O. Kitao, H. Nakai, 
 T. Vreven, K. Throssell, J. A. Montgomery, Jr., J. E. Peralta, 
 F. Ogliaro, M. J. Bearpark, J. J. Heyd, E. N. Brothers, K. N. Kudin, 
 V. N. Staroverov, T. A. Keith, R. Kobayashi, J. Normand, 
 K. Raghavachari, A. P. Rendell, J. C. Burant, S. S. Iyengar, 
 J. Tomasi, M. Cossi, J. M. Millam, M. Klene, C. Adamo, R. Cammi, 
 J. W. Ochterski, R. L. Martin, K. Morokuma, O. Farkas, 
 J. B. Foresman, and D. J. Fox, Gaussian, Inc., Wallingford CT, 2016.
 
 ******************************************
 Gaussian 16:  ES64L-G16RevA.03 25-Dec-2016
                10-Jun-2022 
 ******************************************
 %nprocshared=12
 Will use up to   12 processors via shared memory.
 %chk=checkpoint.chk
 %mem=12GB
 --------------------------
 # sp B3LYP/Def2TZVP NoSymm
 --------------------------
 1/38=1,172=1/1;
 2/12=2,15=1,17=6,18=5,40=1/2;
 3/5=44,7=101,11=2,25=1,30=1,74=-5/1,2,3;
 4//1;
 5/5=2,38=5/2;
 6/7=2,8=2,9=2,10=2,28=1/1;
 99/5=1,9=1/99;
 ----------------------------
 int_initalOpt_zmat_AlignedSp
 ----------------------------
 Symbolic Z-matrix:
 Charge =  0 Multiplicity = 1
 C
 C                    1    R2
 C                    1    R3       2    A3
 N                    1    R4       2    A4       3    D4       0
 C                    3    R5       1    A5       2    D5       0
 H                    2    R6       1    A6       3    D6       0
 H                    3    R7       1    A7       5    D7       0
 C                    2    R8       1    A8       6    D8       0
 C                    4    R9       1    A9       2    D9       0
 H                    4    R10      1    A10      9    D10      0
 C                    5    R11      3    A11      1    D11      0
 H                    5    R12      3    A12      11   D12      0
 H                    8    R13      2    A13      1    D13      0
 H                    9    R14      4    A14      1    D14      0
 C                    11   R15      5    A15      3    D15      0
 H                    11   R16      5    A16      15   D16      0
 O                    15   R17      11   A17      5    D17      0
       Variables:
  R2                    1.38864                  
  R3                    1.44481                  
  R4                    1.38161                  
  R5                    1.34727                  
  R6                    1.07576                  
  R7                    1.08623                  
  R8                    1.41452                  
  R9                    1.36598                  
  R10                   1.00484                  
  R11                   1.45401                  
  R12                   1.0832                   
  R13                   1.07724                  
  R14                   1.07652                  
  R15                   1.31998                  
  R16                   1.08514                  
  R17                   1.15845                  
  A3                  134.06789                  
  A4                  106.10832                  
  A5                  130.23634                  
  A6                  125.97988                  
  A7                  114.48898                  
  A8                  108.13984                  
  A9                  110.6512                   
  A10                 124.15012                  
  A11                 131.31083                  
  A12                 116.2077                   
  A13                 126.67419                  
  A14                 121.39736                  
  A15                 129.55523                  
  A16                 118.04393                  
  A17                 176.33459                  
  D4                  175.85879                  
  D5                  -24.54261                  
  D6                    0.50037                  
  D7                  179.21949                  
  D8                 -176.85455                  
  D9                    0.83637                  
  D10                 176.13526                  
  D11                  -5.10918                  
  D12                -179.16984                  
  D13                 179.52434                  
  D14                 179.02346                  
  D15                 -17.85921                  
  D16                -173.38427                  
  D17                 176.91116                  
 
                          Input orientation:                          
 ---------------------------------------------------------------------
 Center     Atomic      Atomic             Coordinates (Angstroms)
 Number     Number       Type             X           Y           Z
 ---------------------------------------------------------------------
      1          6           0        0.000000    0.000000    0.000000
      2          6           0        0.000000    0.000000    1.388644
      3          6           0        1.038119    0.000000   -1.004879
      4          7           0       -1.323901   -0.095856   -0.383333
      5          6           0        2.314106    0.427202   -0.937933
      6          1           0        0.870501    0.007602    2.020657
      7          1           0        0.740181   -0.422811   -1.960057
      8          6           0       -1.341502   -0.085477    1.829038
      9          6           0       -2.140559   -0.136278    0.710898
     10          1           0       -1.637792   -0.074535   -1.337652
     11          6           0        3.042961    1.111901    0.117571
     12          1           0        2.923634    0.252901   -1.816234
     13          1           0       -1.682786   -0.114410    2.850372
     14          1           0       -3.210732   -0.195125    0.610137
     15          6           0        2.583773    1.775044    1.162430
     16          1           0        4.120685    1.195199    0.022131
     17          8           0        2.250971    2.366964    2.100978
 ---------------------------------------------------------------------
                    Distance matrix (angstroms):
                    1          2          3          4          5
     1  C    0.000000
     2  C    1.388644   0.000000
     3  C    1.444809   2.608954   0.000000
     4  N    1.381610   2.214002   2.444308   0.000000
     5  C    2.533240   3.309161   1.347266   3.717023   0.000000
     6  H    2.200200   1.075765   3.030185   3.256573   3.318631
     7  H    2.137396   3.455493   1.086232   2.617898   2.060217
     8  C    2.269871   1.414525   3.701484   2.212466   4.613289
     9  C    2.259633   2.249423   3.614755   1.365982   4.783324
    10  H    2.115947   3.181290   2.697553   1.004841   4.003625
    11  C    3.241876   3.480167   2.552570   4.558406   1.454006
    12  H    3.451130   4.345438   2.068193   4.496263   1.083197
    13  H    3.312021   2.231929   4.720104   3.253613   5.533511
    14  H    3.274010   3.309524   4.549625   2.134706   5.771278
    15  C    3.343337   3.142902   3.199540   4.599952   2.510164
    16  H    4.290575   4.502877   3.462003   5.610235   2.185239
    17  O    3.883748   3.343174   4.088995   5.001699   3.605780
                    6          7          8          9         10
     6  H    0.000000
     7  H    4.006035   0.000000
     8  C    2.222237   4.336408   0.000000
     9  C    3.286738   3.938879   1.375249   0.000000
    10  H    4.192435   2.482628   3.180539   2.110247   0.000000
    11  C    3.092054   3.460444   4.856578   5.364594   5.043288
    12  H    4.358584   2.290139   5.620844   5.673086   4.598137
    13  H    2.687487   5.395008   1.077236   2.188009   4.188456
    14  H    4.322861   4.718840   2.234226   1.076516   2.506504
    15  C    2.606857   4.240203   4.394733   5.116282   5.243373
    16  H    3.996021   4.239673   5.894109   6.438199   6.051553
    17  O    2.734728   5.153381   4.358243   5.242526   5.736512
                   11         12         13         14         15
    11  C    0.000000
    12  H    2.119367   0.000000
    13  H    5.595063   6.567437   0.000000
    14  H    6.407778   6.611993   2.712893   0.000000
    15  C    1.319979   3.362270   4.962127   6.145151   0.000000
    16  H    1.085143   2.387560   6.587435   7.485214   1.999650
    17  O    2.477163   4.501809   4.710972   6.214267   1.158447
                   16         17
    16  H    0.000000
    17  O    3.031579   0.000000
 Symmetry turned off by external request.
 Stoichiometry    C8H7NO
 Framework group  C1[X(C8H7NO)]
 Deg. of freedom    45
 Full point group                 C1      NOp   1
 Rotational constants (GHZ):           2.4040287           0.9754096           0.7267254
 Standard basis: def2TZVP (5D, 7F)
   352 basis functions,   566 primitive gaussians,   402 cartesian basis functions
    35 alpha electrons       35 beta electrons
       nuclear repulsion energy       459.9971060164 Hartrees.
 NAtoms=   17 NActive=   17 NUniq=   17 SFac= 1.00D+00 NAtFMM=   60 NAOKFM=F Big=F
 Integral buffers will be    131072 words long.
 Raffenetti 2 integral format.
 Two-electron integral symmetry is turned off.
 One-electron integrals computed using PRISM.
   1 Symmetry operations used in ECPInt.
 ECPInt:  NShTT=    9591 NPrTT=   29644 LenC2=    9221 LenP2D=   22129.
 LDataN:  DoStor=T MaxTD1= 6 Len=  172
 NBasis=   352 RedAO= T EigKep=  3.29D-05  NBF=   352
 NBsUse=   352 1.00D-06 EigRej= -1.00D+00 NBFU=   352
 ExpMin= 9.52D-02 ExpMax= 2.70D+04 ExpMxC= 9.22D+02 IAcc=3 IRadAn=         5 AccDes= 0.00D+00
 Harris functional with IExCor=  402 and IRadAn=       5 diagonalized for initial guess.
 HarFok:  IExCor=  402 AccDes= 0.00D+00 IRadAn=         5 IDoV= 1 UseB2=F ITyADJ=14
 ICtDFT=  3500011 ScaDFX=  1.000000  1.000000  1.000000  1.000000
 FoFCou: FMM=F IPFlag=           0 FMFlag=      100000 FMFlg1=           0
         NFxFlg=           0 DoJE=T BraDBF=F KetDBF=T FulRan=T
         wScrn=  0.000000 ICntrl=       500 IOpCl=  0 I1Cent=   200000004 NGrid=           0
         NMat0=    1 NMatS0=      1 NMatT0=    0 NMatD0=    1 NMtDS0=    0 NMtDT0=    0
 Symmetry not used in FoFCou.
 Requested convergence on RMS density matrix=1.00D-08 within 128 cycles.
 Requested convergence on MAX density matrix=1.00D-06.
 Requested convergence on             energy=1.00D-06.
 No special actions if energy rises.
 Integral accuracy reduced to 1.0D-05 until final iterations.
 Initial convergence to 1.0D-05 achieved.  Increase integral accuracy.
 SCF Done:  E(RB3LYP) =  -439.153854493     A.U. after   15 cycles
            NFock= 15  Conv=0.63D-08     -V/T= 2.0049

 **********************************************************************

            Population analysis using the SCF density.

 **********************************************************************

 Alpha  occ. eigenvalues --  -19.19830 -14.36149 -10.29963 -10.20234 -10.19481
 Alpha  occ. eigenvalues --  -10.19328 -10.19086 -10.17933 -10.15786 -10.15722
 Alpha  occ. eigenvalues --   -1.12788  -0.98269  -0.82669  -0.77797  -0.76941
 Alpha  occ. eigenvalues --   -0.71156  -0.62152  -0.59481  -0.57514  -0.54441
 Alpha  occ. eigenvalues --   -0.51928  -0.50766  -0.46470  -0.45926  -0.45741
 Alpha  occ. eigenvalues --   -0.43171  -0.41975  -0.40733  -0.39720  -0.38854
 Alpha  occ. eigenvalues --   -0.36368  -0.32507  -0.25328  -0.25187  -0.19186
 Alpha virt. eigenvalues --   -0.04578  -0.03416   0.02747   0.03968   0.05137
 Alpha virt. eigenvalues --    0.06106   0.07072   0.08264   0.09145   0.09873
 Alpha virt. eigenvalues --    0.11641   0.12120   0.12408   0.15061   0.16411
 Alpha virt. eigenvalues --    0.18013   0.19143   0.20311   0.21482   0.21598
 Alpha virt. eigenvalues --    0.22758   0.23083   0.24554   0.25098   0.26244
 Alpha virt. eigenvalues --    0.26724   0.27604   0.28387   0.29054   0.30582
 Alpha virt. eigenvalues --    0.32643   0.33031   0.33617   0.35740   0.36062
 Alpha virt. eigenvalues --    0.37193   0.37906   0.38435   0.39165   0.39602
 Alpha virt. eigenvalues --    0.41023   0.41336   0.42647   0.43224   0.43705
 Alpha virt. eigenvalues --    0.44554   0.46453   0.46519   0.48106   0.49180
 Alpha virt. eigenvalues --    0.49798   0.52359   0.52905   0.55013   0.55539
 Alpha virt. eigenvalues --    0.56835   0.58420   0.59313   0.60349   0.61751
 Alpha virt. eigenvalues --    0.63488   0.63997   0.65596   0.67053   0.68907
 Alpha virt. eigenvalues --    0.69200   0.70929   0.72699   0.75234   0.76458
 Alpha virt. eigenvalues --    0.77471   0.80014   0.81888   0.83317   0.86103
 Alpha virt. eigenvalues --    0.87397   0.88102   0.88707   0.90411   0.92814
 Alpha virt. eigenvalues --    0.95178   0.96835   0.98048   0.99660   1.00716
 Alpha virt. eigenvalues --    1.04594   1.06619   1.07307   1.09304   1.10673
 Alpha virt. eigenvalues --    1.12175   1.14710   1.15993   1.17375   1.18943
 Alpha virt. eigenvalues --    1.19772   1.21475   1.22226   1.24480   1.27002
 Alpha virt. eigenvalues --    1.28228   1.29279   1.32702   1.34214   1.36665
 Alpha virt. eigenvalues --    1.37133   1.37649   1.39446   1.41937   1.42709
 Alpha virt. eigenvalues --    1.45273   1.45487   1.46882   1.48492   1.49469
 Alpha virt. eigenvalues --    1.50565   1.51948   1.52624   1.53699   1.57456
 Alpha virt. eigenvalues --    1.57766   1.59740   1.60726   1.62878   1.63368
 Alpha virt. eigenvalues --    1.65200   1.66778   1.69904   1.72222   1.74077
 Alpha virt. eigenvalues --    1.74770   1.80159   1.81275   1.84220   1.85950
 Alpha virt. eigenvalues --    1.86456   1.90922   1.92717   1.94636   1.95945
 Alpha virt. eigenvalues --    1.97391   2.01442   2.02327   2.04652   2.07590
 Alpha virt. eigenvalues --    2.08379   2.11836   2.13838   2.15270   2.17632
 Alpha virt. eigenvalues --    2.20880   2.22302   2.22772   2.26026   2.27401
 Alpha virt. eigenvalues --    2.27865   2.29747   2.32148   2.33372   2.40742
 Alpha virt. eigenvalues --    2.42063   2.43696   2.46456   2.51097   2.52931
 Alpha virt. eigenvalues --    2.54694   2.55169   2.56518   2.58062   2.59481
 Alpha virt. eigenvalues --    2.61118   2.62231   2.64962   2.65517   2.66796
 Alpha virt. eigenvalues --    2.68284   2.69891   2.70711   2.72204   2.72555
 Alpha virt. eigenvalues --    2.73233   2.74160   2.75844   2.79641   2.80158
 Alpha virt. eigenvalues --    2.82202   2.82946   2.84265   2.86014   2.88366
 Alpha virt. eigenvalues --    2.89161   2.90479   2.91547   2.93020   2.94668
 Alpha virt. eigenvalues --    2.95723   2.98240   3.00835   3.02072   3.02434
 Alpha virt. eigenvalues --    3.04033   3.04722   3.06277   3.06795   3.07561
 Alpha virt. eigenvalues --    3.08421   3.10299   3.12518   3.13555   3.14646
 Alpha virt. eigenvalues --    3.17502   3.18480   3.18941   3.19377   3.20979
 Alpha virt. eigenvalues --    3.23481   3.24334   3.26173   3.28423   3.28593
 Alpha virt. eigenvalues --    3.30702   3.32171   3.34589   3.35875   3.37723
 Alpha virt. eigenvalues --    3.39268   3.40215   3.43459   3.47972   3.48166
 Alpha virt. eigenvalues --    3.48741   3.50169   3.52684   3.53029   3.56653
 Alpha virt. eigenvalues --    3.57937   3.60349   3.63489   3.64128   3.66283
 Alpha virt. eigenvalues --    3.70709   3.72826   3.74077   3.79014   3.81208
 Alpha virt. eigenvalues --    3.84930   3.87417   3.90970   3.94379   3.95473
 Alpha virt. eigenvalues --    3.98107   4.01355   4.01518   4.04742   4.06886
 Alpha virt. eigenvalues --    4.17218   4.19206   4.21407   4.22628   4.24575
 Alpha virt. eigenvalues --    4.29928   4.31876   4.34870   4.37527   4.41905
 Alpha virt. eigenvalues --    4.48809   4.51325   4.56321   4.61747   4.64542
 Alpha virt. eigenvalues --    4.67199   4.70156   4.74268   4.77770   4.79002
 Alpha virt. eigenvalues --    4.82181   4.83116   4.88372   4.93674   4.95655
 Alpha virt. eigenvalues --    4.98070   5.02738   5.09855   5.10273   5.10501
 Alpha virt. eigenvalues --    5.10980   5.16490   5.21885   5.24376   5.26938
 Alpha virt. eigenvalues --    5.36689   5.43432   5.52428   5.58075   5.60161
 Alpha virt. eigenvalues --    5.61537   5.72584   5.91606   6.01016   6.27415
 Alpha virt. eigenvalues --    6.29498   6.51650   6.57505   6.62847   6.78895
 Alpha virt. eigenvalues --    6.83058   7.17694  22.29544  22.48791  22.64633
 Alpha virt. eigenvalues --   22.66874  22.76181  22.87210  23.20479  23.51770
 Alpha virt. eigenvalues --   32.32616  43.94848
          Condensed to atoms (all electrons):
               1          2          3          4          5          6
     1  C    5.034281   0.507429   0.319497   0.369742  -0.083636  -0.060941
     2  C    0.507429   5.074449  -0.110065  -0.059595  -0.028714   0.446042
     3  C    0.319497  -0.110065   5.087581  -0.046011   0.636125  -0.003595
     4  N    0.369742  -0.059595  -0.046011   6.332243   0.000428   0.005183
     5  C   -0.083636  -0.028714   0.636125   0.000428   4.880723  -0.002097
     6  H   -0.060941   0.446042  -0.003595   0.005183  -0.002097   0.533501
     7  H   -0.084963   0.001518   0.413938   0.001697  -0.021215  -0.000297
     8  C   -0.044490   0.436542   0.019745  -0.110029   0.002769  -0.048721
     9  C   -0.143718  -0.041401  -0.000341   0.410098  -0.000853   0.013527
    10  H   -0.052309   0.012295   0.001098   0.381422   0.000031  -0.000202
    11  C   -0.040093   0.006996  -0.025952   0.000559   0.333723  -0.004260
    12  H    0.013756  -0.000310  -0.032786  -0.000279   0.407485  -0.000016
    13  H    0.011980  -0.047398  -0.000292   0.004677  -0.000007  -0.004522
    14  H    0.006614   0.005324  -0.000679  -0.034225   0.000038  -0.000090
    15  C    0.004638   0.003052  -0.015459  -0.000786  -0.034240  -0.005124
    16  H    0.000706   0.000230   0.004344   0.000005  -0.020899   0.000200
    17  O   -0.002142  -0.006278   0.000965  -0.000026   0.002597   0.004102
               7          8          9         10         11         12
     1  C   -0.084963  -0.044490  -0.143718  -0.052309  -0.040093   0.013756
     2  C    0.001518   0.436542  -0.041401   0.012295   0.006996  -0.000310
     3  C    0.413938   0.019745  -0.000341   0.001098  -0.025952  -0.032786
     4  N    0.001697  -0.110029   0.410098   0.381422   0.000559  -0.000279
     5  C   -0.021215   0.002769  -0.000853   0.000031   0.333723   0.407485
     6  H   -0.000297  -0.048721   0.013527  -0.000202  -0.004260  -0.000016
     7  H    0.592751  -0.000872   0.000825   0.003107   0.012072  -0.013638
     8  C   -0.000872   4.936520   0.556371   0.005891  -0.000267   0.000048
     9  C    0.000825   0.556371   4.947024  -0.038326  -0.000242   0.000022
    10  H    0.003107   0.005891  -0.038326   0.479697   0.000050  -0.000038
    11  C    0.012072  -0.000267  -0.000242   0.000050   5.139198  -0.057048
    12  H   -0.013638   0.000048   0.000022  -0.000038  -0.057048   0.574465
    13  H    0.000024   0.433400  -0.049517  -0.000257   0.000013  -0.000000
    14  H   -0.000026  -0.024530   0.409863  -0.004327  -0.000006  -0.000001
    15  C    0.000528   0.002368  -0.000339  -0.000038   0.557322   0.004609
    16  H   -0.000206  -0.000016   0.000001   0.000001   0.396407  -0.005564
    17  O   -0.000018  -0.000552   0.000037   0.000000  -0.042076  -0.000091
              13         14         15         16         17
     1  C    0.011980   0.006614   0.004638   0.000706  -0.002142
     2  C   -0.047398   0.005324   0.003052   0.000230  -0.006278
     3  C   -0.000292  -0.000679  -0.015459   0.004344   0.000965
     4  N    0.004677  -0.034225  -0.000786   0.000005  -0.000026
     5  C   -0.000007   0.000038  -0.034240  -0.020899   0.002597
     6  H   -0.004522  -0.000090  -0.005124   0.000200   0.004102
     7  H    0.000024  -0.000026   0.000528  -0.000206  -0.000018
     8  C    0.433400  -0.024530   0.002368  -0.000016  -0.000552
     9  C   -0.049517   0.409863  -0.000339   0.000001   0.000037
    10  H   -0.000257  -0.004327  -0.000038   0.000001   0.000000
    11  C    0.000013  -0.000006   0.557322   0.396407  -0.042076
    12  H   -0.000000  -0.000001   0.004609  -0.005564  -0.000091
    13  H    0.544562  -0.001981   0.000034   0.000000  -0.000023
    14  H   -0.001981   0.512669  -0.000001  -0.000000   0.000001
    15  C    0.000034  -0.000001   4.663036  -0.037710   0.624502
    16  H    0.000000  -0.000000  -0.037710   0.514852  -0.000289
    17  O   -0.000023   0.000001   0.624502  -0.000289   7.549338
 Mulliken charges:
               1
     1  C    0.243649
     2  C   -0.200116
     3  C   -0.248115
     4  N   -0.255103
     5  C   -0.072258
     6  H    0.127310
     7  H    0.094778
     8  C   -0.164177
     9  C   -0.063031
    10  H    0.211906
    11  C   -0.276397
    12  H    0.109386
    13  H    0.109307
    14  H    0.131358
    15  C    0.233607
    16  H    0.147940
    17  O   -0.130044
 Sum of Mulliken charges =  -0.00000
 Mulliken charges with hydrogens summed into heavy atoms:
               1
     1  C    0.243649
     2  C   -0.072806
     3  C   -0.153336
     4  N   -0.043197
     5  C    0.037128
     8  C   -0.054870
     9  C    0.068326
    11  C   -0.128457
    15  C    0.233607
    17  O   -0.130044
 Electronic spatial extent (au):  <R**2>=           1747.4226
 Charge=             -0.0000 electrons
 Dipole moment (field-independent basis, Debye):
    X=             -0.3017    Y=             -0.5314    Z=             -2.3094  Tot=              2.3889
 Quadrupole moment (field-independent basis, Debye-Ang):
   XX=            -47.2753   YY=            -64.8647   ZZ=            -56.5945
   XY=              1.2005   XZ=              0.3404   YZ=             -1.5088
 Traceless Quadrupole moment (field-independent basis, Debye-Ang):
   XX=              8.9695   YY=             -8.6199   ZZ=             -0.3496
   XY=              1.2005   XZ=              0.3404   YZ=             -1.5088
 Octapole moment (field-independent basis, Debye-Ang**2):
  XXX=            -87.7182  YYY=            -94.8390  ZZZ=            -87.8744  XYY=            -37.9036
  XXY=            -20.7169  XXZ=            -32.9893  XZZ=            -44.3192  YZZ=            -39.3870
  YYZ=            -35.7469  XYZ=             -2.7347
 Hexadecapole moment (field-independent basis, Debye-Ang**3):
 XXXX=          -1163.8373 YYYY=           -427.0653 ZZZZ=           -568.7356 XXXY=           -193.6455
 XXXZ=             -6.9454 YYYX=           -267.2776 YYYZ=           -121.3559 ZZZX=            -23.4058
 ZZZY=           -121.4014 XXYY=           -306.4660 XXZZ=           -316.8459 YYZZ=           -195.1883
 XXYZ=            -36.5432 YYXZ=             -5.1860 ZZXY=            -99.9900
 N-N= 4.599971060164D+02 E-N=-1.942475234472D+03  KE= 4.370010392347D+02
 1\1\GINC-BHC0029\SP\RB3LYP\def2TZVP\C8H7N1O1\DHANAWAY\10-Jun-2022\0\\#
  sp B3LYP/Def2TZVP NoSymm\\int_initalOpt_zmat_AlignedSp\\0,1\C\C,1,1.3
 8864366\C,1,1.44480889,2,134.06788837\N,1,1.38160983,2,106.10831967,3,
 175.8587909,0\C,3,1.34726609,1,130.23634164,2,-24.54261199,0\H,2,1.075
 76465,1,125.97987791,3,0.50036917,0\H,3,1.08623191,1,114.48898494,5,17
 9.21948788,0\C,2,1.41452459,1,108.13983687,6,-176.85455485,0\C,4,1.365
 98234,1,110.65120306,2,0.83636645,0\H,4,1.00484123,1,124.15012208,9,17
 6.13526142,0\C,5,1.45400568,3,131.31082666,1,-5.10918147,0\H,5,1.08319
 725,3,116.20770265,11,-179.16984336,0\H,8,1.07723553,2,126.6741883,1,1
 79.52434318,0\H,9,1.07651633,4,121.39735624,1,179.02346221,0\C,11,1.31
 997888,5,129.55522772,3,-17.85920896,0\H,11,1.08514286,5,118.04392854,
 15,-173.38427133,0\O,15,1.15844692,11,176.33459459,5,176.91115793,0\\V
 ersion=ES64L-G16RevA.03\HF=-439.1538545\RMSD=6.340e-09\Dipole=-0.11868
 52,-0.2090795,-0.9085801\Quadrupole=6.6686066,-6.4086545,-0.2599521,0.
 8925665,0.2530615,-1.1217341\PG=C01 [X(C8H7N1O1)]\\@


 UNLESS WE CHANGE DIRECTIONS, WE WILL WIND UP WHERE WE ARE HEADED.
     -- CONFUCIUS
 Job cpu time:       0 days  0 hours 15 minutes 56.3 seconds.
 Elapsed time:       0 days  0 hours  1 minutes 19.9 seconds.
 File lengths (MBytes):  RWF=     71 Int=      0 D2E=      0 Chk=     32 Scr=      1
 Normal termination of Gaussian 16 at Fri Jun 10 11:14:25 2022.
