 Entering Gaussian System, Link 0=g16
 Input=ts_zmat_field_N100.gjf
 Output=ts_zmat_field_N100.out
 Initial command:
 /software/gaussian/g16-a03/l1.exe "/local_scratch/11172032/Gau-30614.inp" -scrdir="/local_scratch/11172032/"
 Entering Link 1 = /software/gaussian/g16-a03/l1.exe PID=     30615.
  
 Copyright (c) 1988,1990,1992,1993,1995,1998,2003,2009,2016,
            Gaussian, Inc.  All Rights Reserved.
  
 This is part of the Gaussian(R) 16 program.  It is based on
 the Gaussian(R) 09 system (copyright 2009, Gaussian, Inc.),
 the Gaussian(R) 03 system (copyright 2003, Gaussian, Inc.),
 the Gaussian(R) 98 system (copyright 1998, Gaussian, Inc.),
 the Gaussian(R) 94 system (copyright 1995, Gaussian, Inc.),
 the Gaussian 92(TM) system (copyright 1992, Gaussian, Inc.),
 the Gaussian 90(TM) system (copyright 1990, Gaussian, Inc.),
 the Gaussian 88(TM) system (copyright 1988, Gaussian, Inc.),
 the Gaussian 86(TM) system (copyright 1986, Carnegie Mellon
 University), and the Gaussian 82(TM) system (copyright 1983,
 Carnegie Mellon University). Gaussian is a federally registered
 trademark of Gaussian, Inc.
  
 This software contains proprietary and confidential information,
 including trade secrets, belonging to Gaussian, Inc.
  
 This software is provided under written license and may be
 used, copied, transmitted, or stored only in accord with that
 written license.
  
 The following legend is applicable only to US Government
 contracts under FAR:
  
                    RESTRICTED RIGHTS LEGEND
  
 Use, reproduction and disclosure by the US Government is
 subject to restrictions as set forth in subparagraphs (a)
 and (c) of the Commercial Computer Software - Restricted
 Rights clause in FAR 52.227-19.
  
 Gaussian, Inc.
 340 Quinnipiac St., Bldg. 40, Wallingford CT 06492
  
  
 ---------------------------------------------------------------
 Warning -- This program may not be used in any manner that
 competes with the business of Gaussian, Inc. or will provide
 assistance to any competitor of Gaussian, Inc.  The licensee
 of this program is prohibited from giving any competitor of
 Gaussian, Inc. access to this program.  By using this program,
 the user acknowledges that Gaussian, Inc. is engaged in the
 business of creating and licensing software in the field of
 computational chemistry and represents and warrants to the
 licensee that it is not a competitor of Gaussian, Inc. and that
 it will not use this program in any manner prohibited above.
 ---------------------------------------------------------------
  

 Cite this work as:
 Gaussian 16, Revision A.03,
 M. J. Frisch, G. W. Trucks, H. B. Schlegel, G. E. Scuseria, 
 M. A. Robb, J. R. Cheeseman, G. Scalmani, V. Barone, 
 G. A. Petersson, H. Nakatsuji, X. Li, M. Caricato, A. V. Marenich, 
 J. Bloino, B. G. Janesko, R. Gomperts, B. Mennucci, H. P. Hratchian, 
 J. V. Ortiz, A. F. Izmaylov, J. L. Sonnenberg, D. Williams-Young, 
 F. Ding, F. Lipparini, F. Egidi, J. Goings, B. Peng, A. Petrone, 
 T. Henderson, D. Ranasinghe, V. G. Zakrzewski, J. Gao, N. Rega, 
 G. Zheng, W. Liang, M. Hada, M. Ehara, K. Toyota, R. Fukuda, 
 J. Hasegawa, M. Ishida, T. Nakajima, Y. Honda, O. Kitao, H. Nakai, 
 T. Vreven, K. Throssell, J. A. Montgomery, Jr., J. E. Peralta, 
 F. Ogliaro, M. J. Bearpark, J. J. Heyd, E. N. Brothers, K. N. Kudin, 
 V. N. Staroverov, T. A. Keith, R. Kobayashi, J. Normand, 
 K. Raghavachari, A. P. Rendell, J. C. Burant, S. S. Iyengar, 
 J. Tomasi, M. Cossi, J. M. Millam, M. Klene, C. Adamo, R. Cammi, 
 J. W. Ochterski, R. L. Martin, K. Morokuma, O. Farkas, 
 J. B. Foresman, and D. J. Fox, Gaussian, Inc., Wallingford CT, 2016.
 
 ******************************************
 Gaussian 16:  ES64L-G16RevA.03 25-Dec-2016
                10-Jun-2022 
 ******************************************
 %nprocshared=12
 Will use up to   12 processors via shared memory.
 %chk=checkpoint.chk
 %mem=12GB
 ----------------------------------------------------------------------
 # Opt=(TS, CalcFC, noeigentest, Z-matrix, MaxStep=10) geom=allcheckpoi
 nt guess=read Field=read NoSymm B3LYP/Def2TZVP freq=noraman pop=none
 ----------------------------------------------------------------------
 1/5=1,8=10,10=4,11=1,18=40,26=3,29=7,38=1/1,3;
 2/12=2,15=1,29=3,40=1/2;
 3/5=44,7=101,11=2,14=-6,25=1,30=1,71=2,74=-5,116=-2,140=1/1,2,3;
 4/5=1/1;
 5/5=2,38=6/2;
 8/6=4,10=90,11=11/1;
 11/6=1,8=1,9=11,15=111,16=1,31=1/1,2,10;
 10/6=1,13=1,31=1/2;
 7/10=1,18=20,25=1,30=1/1,2,3,16;
 1/5=1,8=10,10=4,11=1,18=40,26=3/3(2);
 2/15=1,29=3/2;
 99//99;
 2/15=1,29=3/2;
 3/5=44,7=101,11=2,14=-2,25=1,30=1,71=1,74=-5/1,2,3;
 4/5=5,16=3,69=1/1;
 5/5=2,38=5/2;
 7/30=1/1,2,3,16;
 1/5=1,8=10,11=1,18=40,26=3/3(-5);
 2/15=1,29=3/2;
 99/9=1/99;
 Structure from the checkpoint file:  "checkpoint.chk"
 -----------------
 ts_zmat_initalOpt
 -----------------
 Charge =  0 Multiplicity = 1
 Z-Matrix found in chk file.
 C
 C,1,R2
 C,1,R3,2,A3
 H,1,R4,2,A4,3,D4,0
 C,2,R5,1,A5,3,D5,0
 N,3,R6,1,A6,2,D6,0
 H,3,R7,1,A7,6,D7,0
 H,2,R8,1,A8,5,D8,0
 H,3,R9,1,A9,6,D9,0
 H,5,R10,2,A10,1,D10,0
      Variables:
 R2=1.39237306
 R3=1.39758165
 R4=1.07838352
 R5=1.39360917
 R6=1.45916412
 R7=1.07908694
 R8=1.07946833
 R9=1.29419368
 R10=1.08057254
 A3=106.6661932
 A4=127.32255873
 A5=107.57306389
 A6=109.43893554
 A7=129.61252269
 A8=126.05752346
 A9=114.60820005
 A10=127.7527741
 D4=179.92065861
 D5=1.09405553
 D6=0.89499374
 D7=162.90931931
 D8=177.74681718
 D9=-58.96172216
 D10=173.90086119
 Recover connectivity data from disk.

 GradGradGradGradGradGradGradGradGradGradGradGradGradGradGradGradGradGrad
 Berny optimization.
 Initialization pass.
                       ----------------------------
                       !    Initial Parameters    !
                       ! (Angstroms and Degrees)  !
 ----------------------                            ----------------------
 !      Name          Value   Derivative information (Atomic Units)     !
 ------------------------------------------------------------------------
 !       R2          1.3924   calculate D2E/DX2 analytically            !
 !       R3          1.3976   calculate D2E/DX2 analytically            !
 !       R4          1.0784   calculate D2E/DX2 analytically            !
 !       R5          1.3936   calculate D2E/DX2 analytically            !
 !       R6          1.4592   calculate D2E/DX2 analytically            !
 !       R7          1.0791   calculate D2E/DX2 analytically            !
 !       R8          1.0795   calculate D2E/DX2 analytically            !
 !       R9          1.2942   calculate D2E/DX2 analytically            !
 !       R10         1.0806   calculate D2E/DX2 analytically            !
 !       A3        106.6662   calculate D2E/DX2 analytically            !
 !       A4        127.3226   calculate D2E/DX2 analytically            !
 !       A5        107.5731   calculate D2E/DX2 analytically            !
 !       A6        109.4389   calculate D2E/DX2 analytically            !
 !       A7        129.6125   calculate D2E/DX2 analytically            !
 !       A8        126.0575   calculate D2E/DX2 analytically            !
 !       A9        114.6082   calculate D2E/DX2 analytically            !
 !       A10       127.7528   calculate D2E/DX2 analytically            !
 !       D4        179.9207   calculate D2E/DX2 analytically            !
 !       D5          1.0941   calculate D2E/DX2 analytically            !
 !       D6          0.895    calculate D2E/DX2 analytically            !
 !       D7        162.9093   calculate D2E/DX2 analytically            !
 !       D8        177.7468   calculate D2E/DX2 analytically            !
 !       D9        -58.9617   calculate D2E/DX2 analytically            !
 !       D10       173.9009   calculate D2E/DX2 analytically            !
 ------------------------------------------------------------------------
 Trust Radius=1.00D-01 FncErr=1.00D-07 GrdErr=1.00D-06 EigMax=2.50D+02 EigMin=1.00D-04
 Number of steps in this run=     34 maximum allowed number of steps=    100.
 Search for a saddle point of order  1.
 GradGradGradGradGradGradGradGradGradGradGradGradGradGradGradGradGradGrad

 ---------------------------------------------------------------------------------------------------
                            Z-MATRIX (ANGSTROMS AND DEGREES)
   CD    Cent   Atom    N1       Length/X        N2       Alpha/Y        N3        Beta/Z          J
 ---------------------------------------------------------------------------------------------------
      1      1  C 
      2      2  C        1   1.392373(     1)
      3      3  C        1   1.397582(     2)      2  106.666(    10)
      4      4  H        1   1.078384(     3)      2  127.323(    11)      3  179.921(    18)      0
      5      5  C        2   1.393609(     4)      1  107.573(    12)      3    1.094(    19)      0
      6      6  N        3   1.459164(     5)      1  109.439(    13)      2    0.895(    20)      0
      7      7  H        3   1.079087(     6)      1  129.613(    14)      6  162.909(    21)      0
      8      8  H        2   1.079468(     7)      1  126.058(    15)      5  177.747(    22)      0
      9      9  H        3   1.294194(     8)      1  114.608(    16)      6  -58.962(    23)      0
     10     10  H        5   1.080573(     9)      2  127.753(    17)      1  173.901(    24)      0
 ---------------------------------------------------------------------------------------------------
                         Z-Matrix orientation:                         
 ---------------------------------------------------------------------
 Center     Atomic      Atomic             Coordinates (Angstroms)
 Number     Number       Type             X           Y           Z
 ---------------------------------------------------------------------
      1          6           0        0.000000    0.000000    0.000000
      2          6           0        0.000000    0.000000    1.392373
      3          6           0        1.338872    0.000000   -0.400820
      4          1           0       -0.857567   -0.001188   -0.653826
      5          6           0        1.328331    0.025367    1.813134
      6          7           0        2.198663   -0.021493    0.777932
      7          1           0        1.769036   -0.231865   -1.362915
      8          1           0       -0.872492    0.017653    2.027745
      9          1           0        2.033641    0.998582    0.040844
     10          1           0        1.700750    0.123272    2.822765
 ---------------------------------------------------------------------
                    Distance matrix (angstroms):
                    1          2          3          4          5
     1  C    0.000000
     2  C    1.392373   0.000000
     3  C    1.397582   2.237883   0.000000
     4  H    1.078384   2.218637   2.210963   0.000000
     5  C    2.247790   1.393609   2.214124   3.296171   0.000000
     6  N    2.332330   2.283007   1.459164   3.375039   1.353262
     7  H    2.245169   3.282508   1.079087   2.730396   3.216780
     8  H    2.207556   1.079468   3.284565   2.681678   2.211276
     9  H    2.265950   2.638085   1.294194   3.137067   2.141406
    10  H    3.297841   2.225707   3.246175   4.318236   1.080573
                    6          7          8          9         10
     6  N    0.000000
     7  H    2.193641   0.000000
     8  H    3.315956   4.305404   0.000000
     9  H    1.269285   1.885353   3.654533   0.000000
    10  H    2.109554   4.201274   2.695327   2.935314   0.000000
 Symmetry turned off by external request.
 Stoichiometry    C4H5N
 Framework group  C1[X(C4H5N)]
 Deg. of freedom    24
 Full point group                 C1      NOp   1
 Rotational constants (GHZ):           9.1994579           8.8369530           4.5945866
 Standard basis: def2TZVP (5D, 7F)
 The following finite field(s) will be applied:
 An electric field of              0.0078 -0.0018  0.0059
   185 basis functions,   295 primitive gaussians,   210 cartesian basis functions
    18 alpha electrons       18 beta electrons
       nuclear repulsion energy       160.5192806209 Hartrees.
 NAtoms=   10 NActive=   10 NUniq=   10 SFac= 1.00D+00 NAtFMM=   60 NAOKFM=F Big=F
 Integral buffers will be    131072 words long.
 Raffenetti 2 integral format.
 Two-electron integral symmetry is turned off.
 One-electron integrals computed using PRISM.
   1 Symmetry operations used in ECPInt.
 ECPInt:  NShTT=    2850 NPrTT=    8640 LenC2=    2843 LenP2D=    7479.
 LDataN:  DoStor=T MaxTD1= 6 Len=  172
 NBasis=   185 RedAO= T EigKep=  5.69D-05  NBF=   185
 NBsUse=   185 1.00D-06 EigRej= -1.00D+00 NBFU=   185
 The nuclear repulsion energy is now       161.3187889260 hartrees.
 Initial guess from the checkpoint file:  "checkpoint.chk"
 B after Tr=     0.000000    0.000000   -0.000000
         Rot=    1.000000   -0.000000   -0.000000   -0.000000 Ang=   0.00 deg.
 Keep R1 ints in memory in canonical form, NReq=160464061.
 Requested convergence on RMS density matrix=1.00D-08 within 128 cycles.
 Requested convergence on MAX density matrix=1.00D-06.
 Requested convergence on             energy=1.00D-06.
 No special actions if energy rises.
 SCF Done:  E(RB3LYP) =  -210.184062011     A.U. after   10 cycles
            NFock= 10  Conv=0.26D-08     -V/T= 2.0052
 DoSCS=F DFT=T ScalE2(SS,OS)=  1.000000  1.000000
 Range of M.O.s used for correlation:     1   185
 NBasis=   185 NAE=    18 NBE=    18 NFC=     0 NFV=     0
 NROrb=    185 NOA=    18 NOB=    18 NVA=   167 NVB=   167

 **** Warning!!: The largest alpha MO coefficient is  0.24532845D+02

   1 Symmetry operations used in ECPInt.
 ECPInt:  NShTT=    2850 NPrTT=    8640 LenC2=    2843 LenP2D=    7479.
 LDataN:  DoStor=T MaxTD1= 7 Len=  274
 Symmetrizing basis deriv contribution to polar:
 IMax=3 JMax=2 DiffMx= 0.00D+00
 G2DrvN: will do    11 centers at a time, making    1 passes.
 Calling FoFCou, ICntrl=  3107 FMM=F I1Cent=   0 AccDes= 0.00D+00.
 End of G2Drv F.D. properties file   721 does not exist.
 End of G2Drv F.D. properties file   722 does not exist.
 End of G2Drv F.D. properties file   788 does not exist.
          IDoAtm=1111111111
          Differentiating once with respect to nuclear coordinates.
 Keep R1 ints in memory in canonical form, NReq=160431867.
          There are    33 degrees of freedom in the 1st order CPHF.  IDoFFX=6 NUNeed=     0.
     27 vectors produced by pass  0 Test12= 9.11D-15 3.03D-09 XBig12= 1.03D-01 1.14D-01.
 AX will form    27 AO Fock derivatives at one time.
     27 vectors produced by pass  1 Test12= 9.11D-15 3.03D-09 XBig12= 2.03D-02 5.27D-02.
     27 vectors produced by pass  2 Test12= 9.11D-15 3.03D-09 XBig12= 2.37D-04 2.17D-03.
     27 vectors produced by pass  3 Test12= 9.11D-15 3.03D-09 XBig12= 1.12D-06 1.74D-04.
     27 vectors produced by pass  4 Test12= 9.11D-15 3.03D-09 XBig12= 3.35D-09 9.97D-06.
     24 vectors produced by pass  5 Test12= 9.11D-15 3.03D-09 XBig12= 5.92D-12 4.13D-07.
      6 vectors produced by pass  6 Test12= 9.11D-15 3.03D-09 XBig12= 1.19D-14 1.49D-08.
 InvSVY:  IOpt=1 It=  1 EMax= 2.00D-15
 Solved reduced A of dimension   165 with    27 vectors.
 End of Minotr F.D. properties file   721 does not exist.
 End of Minotr F.D. properties file   722 does not exist.
 End of Minotr F.D. properties file   788 does not exist.
   1 Symmetry operations used in ECPInt.
 ECPInt:  NShTT=    2850 NPrTT=    8640 LenC2=    2843 LenP2D=    7479.
 LDataN:  DoStor=T MaxTD1= 8 Len=  415
 Calling FoFJK, ICntrl=    100147 FMM=F ISym2X=0 I1Cent= 0 IOpClX= 0 NMat=1 NMatS=1 NMatT=0.
 -------------------------------------------------------------------
 Center     Atomic                   Forces (Hartrees/Bohr)
 Number     Number              X              Y              Z
 -------------------------------------------------------------------
      1        6           0.000315766   -0.000621301   -0.000022075
      2        6          -0.000260131    0.000382974    0.000154096
      3        6          -0.000334582    0.000252886   -0.000019032
      4        1          -0.000073929    0.000089401   -0.000057595
      5        6          -0.000330941   -0.000367970   -0.000316485
      6        7           0.001397924   -0.000211681    0.000698970
      7        1          -0.000166030    0.000110118   -0.000102042
      8        1          -0.000132364    0.000052982   -0.000196144
      9        1          -0.000437351    0.000112265   -0.000416413
     10        1           0.000021638    0.000200327    0.000276722
 -------------------------------------------------------------------
 Cartesian Forces:  Max     0.001397924 RMS     0.000380934
 -----------------------------------------------------------------------------------------------
                       Internal Coordinate Forces (Hartree/Bohr or radian)
  Cent   Atom   N1       Length/X         N2         Alpha/Y        N3         Beta/Z          J
 -----------------------------------------------------------------------------------------------
      1  C 
      2  C        1  -0.000082(     1)
      3  C        1   0.000394(     2)      2   0.001788(    10)
      4  H        1   0.000094(     3)      2   0.000002(    11)      3   0.000145(    18)     0
      5  C        2  -0.000310(     4)      1   0.000296(    12)      3  -0.000352(    19)     0
      6  N        3   0.001391(     5)      1   0.001976(    13)      2  -0.000385(    20)     0
      7  H        3   0.000001(     6)      1  -0.000345(    14)      6   0.000230(    21)     0
      8  H        2  -0.000008(     7)      1  -0.000484(    15)      5  -0.000083(    22)     0
      9  H        3  -0.000290(     8)      1  -0.000481(    16)      6  -0.001122(    23)     0
     10  H        5   0.000284(     9)      2  -0.000171(    17)      1  -0.000277(    24)     0
 -----------------------------------------------------------------------------------------------
 Internal  Forces:  Max     0.001975682 RMS     0.000702845

 GradGradGradGradGradGradGradGradGradGradGradGradGradGradGradGradGradGrad
 Berny optimization.
 Search for a saddle point.
 Step number   1 out of a maximum of   34
 All quantities printed in internal units (Hartrees-Bohrs-Radians)
 Swapping is turned off.
 Second derivative matrix not updated -- analytic derivatives used.
 ITU=  0
     Eigenvalues ---   -0.26006   0.03448   0.04815   0.05541   0.06203
     Eigenvalues ---    0.13012   0.17356   0.18586   0.19938   0.21563
     Eigenvalues ---    0.24090   0.25056   0.29151   0.35505   0.36134
     Eigenvalues ---    0.36433   0.36874   0.37099   0.40945   0.47711
     Eigenvalues ---    0.58792   1.53593   2.17887  13.82845
 Eigenvectors required to have negative eigenvalues:
                          D9        R9        A9        D7        R6
   1                    0.75028   0.53299   0.20700   0.16210  -0.15074
                          R3        R2        R5        A6        A10
   1                   -0.14987   0.11749  -0.11595   0.08562   0.04331
 RFO step:  Lambda0=5.331810247D-06 Lambda=-1.59996687D-05.
 Linear search not attempted -- option 19 set.
 Variable       Old X    -DE/DX   Delta X   Delta X   Delta X     New X
                                 (Linear)    (Quad)   (Total)
    R2        2.63120  -0.00008   0.00000   0.00064   0.00064   2.63185
    R3        2.64105   0.00039   0.00000  -0.00169  -0.00169   2.63936
    R4        2.03785   0.00009   0.00000   0.00026   0.00026   2.03811
    R5        2.63354  -0.00031   0.00000  -0.00096  -0.00096   2.63258
    R6        2.75742   0.00139   0.00000   0.00342   0.00342   2.76085
    R7        2.03918   0.00000   0.00000  -0.00006  -0.00006   2.03912
    R8        2.03990  -0.00001   0.00000  -0.00003  -0.00003   2.03987
    R9        2.44567  -0.00029   0.00000   0.00256   0.00256   2.44823
   R10        2.04199   0.00028   0.00000   0.00081   0.00081   2.04279
    A3        1.86168   0.00179   0.00000   0.00013   0.00013   1.86181
    A4        2.22220   0.00000   0.00000   0.00001   0.00001   2.22220
    A5        1.87750   0.00030   0.00000   0.00014   0.00014   1.87765
    A6        1.91007   0.00198   0.00000   0.00110   0.00110   1.91117
    A7        2.26217  -0.00035   0.00000  -0.00044  -0.00044   2.26173
    A8        2.20012  -0.00048   0.00000  -0.00221  -0.00221   2.19791
    A9        2.00029  -0.00048   0.00000  -0.00316  -0.00316   1.99713
   A10        2.22971  -0.00017   0.00000  -0.00126  -0.00126   2.22844
    D4        3.14021   0.00015   0.00000   0.00144   0.00144   3.14165
    D5        0.01909  -0.00035   0.00000   0.00105   0.00105   0.02015
    D6        0.01562  -0.00038   0.00000  -0.00262  -0.00262   0.01300
    D7        2.84330   0.00023   0.00000   0.01020   0.01020   2.85351
    D8        3.10227  -0.00008   0.00000  -0.00238  -0.00238   3.09988
    D9       -1.02908  -0.00112   0.00000   0.00313   0.00313  -1.02595
   D10        3.03514  -0.00028   0.00000  -0.00546  -0.00546   3.02968
         Item               Value     Threshold  Converged?
 Maximum Force            0.001976     0.000450     NO 
 RMS     Force            0.000703     0.000300     NO 
 Maximum Displacement     0.010201     0.001800     NO 
 RMS     Displacement     0.002890     0.001200     NO 
 Predicted change in Energy=-5.333874D-06
 GradGradGradGradGradGradGradGradGradGradGradGradGradGradGradGradGradGrad

 ---------------------------------------------------------------------------------------------------
                            Z-MATRIX (ANGSTROMS AND DEGREES)
   CD    Cent   Atom    N1       Length/X        N2       Alpha/Y        N3        Beta/Z          J
 ---------------------------------------------------------------------------------------------------
      1      1  C 
      2      2  C        1   1.392714(     1)
      3      3  C        1   1.396688(     2)      2  106.674(    10)
      4      4  H        1   1.078522(     3)      2  127.323(    11)      3  180.003(    18)      0
      5      5  C        2   1.393104(     4)      1  107.581(    12)      3    1.154(    19)      0
      6      6  N        3   1.460976(     5)      1  109.502(    13)      2    0.745(    20)      0
      7      7  H        3   1.079057(     6)      1  129.587(    14)      6  163.494(    21)      0
      8      8  H        2   1.079454(     7)      1  125.931(    15)      5  177.610(    22)      0
      9      9  H        3   1.295548(     8)      1  114.427(    16)      6  -58.783(    23)      0
     10     10  H        5   1.081000(     9)      2  127.680(    17)      1  173.588(    24)      0
 ---------------------------------------------------------------------------------------------------
                         Z-Matrix orientation:                         
 ---------------------------------------------------------------------
 Center     Atomic      Atomic             Coordinates (Angstroms)
 Number     Number       Type             X           Y           Z
 ---------------------------------------------------------------------
      1          6           0        0.000000    0.000000    0.000000
      2          6           0        0.000000    0.000000    1.392714
      3          6           0        1.337962    0.000000   -0.400742
      4          1           0       -0.857674    0.000049   -0.653914
      5          6           0        1.327762    0.026752    1.813510
      6          7           0        2.200295   -0.017899    0.778458
      7          1           0        1.767055   -0.225885   -1.364703
      8          1           0       -0.873858    0.018847    2.026147
      9          1           0        2.030354    1.000753    0.043702
     10          1           0        1.698860    0.129793    2.823575
 ---------------------------------------------------------------------
                    Distance matrix (angstroms):
                    1          2          3          4          5
     1  C    0.000000
     2  C    1.392714   0.000000
     3  C    1.396688   2.237549   0.000000
     4  H    1.078522   2.219075   2.210185   0.000000
     5  C    2.247774   1.393104   2.214437   3.296215   0.000000
     6  N    2.334013   2.284498   1.460976   3.376861   1.354489
     7  H    2.244086   3.282812   1.079057   2.728639   3.218360
     8  H    2.206639   1.079454   3.283640   2.680176   2.211879
     9  H    2.264013   2.635086   1.295548   3.135090   2.138816
    10  H    3.297809   2.224934   3.247047   4.318058   1.081000
                    6          7          8          9         10
     6  N    0.000000
     7  H    2.196382   0.000000
     8  H    3.317905   4.304901   0.000000
     9  H    1.267438   1.886153   3.650846   0.000000
    10  H    2.110865   4.203906   2.695751   2.931920   0.000000
 Symmetry turned off by external request.
 Stoichiometry    C4H5N
 Framework group  C1[X(C4H5N)]
 Deg. of freedom    24
 Full point group                 C1      NOp   1
 Rotational constants (GHZ):           9.1982626           8.8301853           4.5922632
 Standard basis: def2TZVP (5D, 7F)
 The following finite field(s) will be applied:
 An electric field of              0.0078 -0.0018  0.0059
   185 basis functions,   295 primitive gaussians,   210 cartesian basis functions
    18 alpha electrons       18 beta electrons
       nuclear repulsion energy       160.4844446436 Hartrees.
 NAtoms=   10 NActive=   10 NUniq=   10 SFac= 1.00D+00 NAtFMM=   60 NAOKFM=F Big=F
 Integral buffers will be    131072 words long.
 Raffenetti 2 integral format.
 Two-electron integral symmetry is turned off.
 One-electron integrals computed using PRISM.
   1 Symmetry operations used in ECPInt.
 ECPInt:  NShTT=    2850 NPrTT=    8640 LenC2=    2843 LenP2D=    7478.
 LDataN:  DoStor=T MaxTD1= 6 Len=  172
 NBasis=   185 RedAO= T EigKep=  5.69D-05  NBF=   185
 NBsUse=   185 1.00D-06 EigRej= -1.00D+00 NBFU=   185
 The nuclear repulsion energy is now       161.2837831522 hartrees.
 Initial guess from the checkpoint file:  "checkpoint.chk"
 B after Tr=    -0.000155   -0.000098    0.000327
         Rot=    1.000000    0.000121    0.000038   -0.000659 Ang=   0.08 deg.
 Keep R1 ints in memory in canonical form, NReq=160464061.
 Requested convergence on RMS density matrix=1.00D-08 within 128 cycles.
 Requested convergence on MAX density matrix=1.00D-06.
 Requested convergence on             energy=1.00D-06.
 No special actions if energy rises.
 SCF Done:  E(RB3LYP) =  -210.184067347     A.U. after    9 cycles
            NFock=  9  Conv=0.36D-08     -V/T= 2.0052
   1 Symmetry operations used in ECPInt.
 ECPInt:  NShTT=    2850 NPrTT=    8640 LenC2=    2843 LenP2D=    7478.
 LDataN:  DoStor=T MaxTD1= 7 Len=  274
 Calling FoFJK, ICntrl=      2127 FMM=F ISym2X=0 I1Cent= 0 IOpClX= 0 NMat=1 NMatS=1 NMatT=0.
 -------------------------------------------------------------------
 Center     Atomic                   Forces (Hartrees/Bohr)
 Number     Number              X              Y              Z
 -------------------------------------------------------------------
      1        6           0.000316895   -0.000788742    0.000001261
      2        6          -0.000319594    0.000433460   -0.000000044
      3        6           0.000001276    0.000352540   -0.000007832
      4        1          -0.000000125    0.000000212   -0.000000035
      5        6           0.000003376   -0.000000183   -0.000000366
      6        7          -0.000002416    0.000001576    0.000008607
      7        1          -0.000001667    0.000000888   -0.000001862
      8        1          -0.000000143    0.000000092    0.000000010
      9        1           0.000002444    0.000000660   -0.000000456
     10        1          -0.000000046   -0.000000502    0.000000716
 -------------------------------------------------------------------
 Cartesian Forces:  Max     0.000788742 RMS     0.000194681
 -----------------------------------------------------------------------------------------------
                       Internal Coordinate Forces (Hartree/Bohr or radian)
  Cent   Atom   N1       Length/X         N2         Alpha/Y        N3         Beta/Z          J
 -----------------------------------------------------------------------------------------------
      1  C 
      2  C        1   0.000000(     1)
      3  C        1   0.000000(     2)      2  -0.000008(    10)
      4  H        1   0.000000(     3)      2  -0.000000(    11)      3   0.000000(    18)     0
      5  C        2   0.000003(     4)      1  -0.000001(    12)      3  -0.000002(    19)     0
      6  N        3   0.000006(     5)      1  -0.000019(    13)      2  -0.000002(    20)     0
      7  H        3   0.000001(     6)      1  -0.000004(    14)      6   0.000002(    21)     0
      8  H        2   0.000000(     7)      1  -0.000000(    15)      5  -0.000000(    22)     0
      9  H        3   0.000002(     8)      1   0.000005(    16)      6  -0.000000(    23)     0
     10  H        5   0.000001(     9)      2  -0.000001(    17)      1   0.000001(    24)     0
 -----------------------------------------------------------------------------------------------
 Internal  Forces:  Max     0.000019391 RMS     0.000004766

 GradGradGradGradGradGradGradGradGradGradGradGradGradGradGradGradGradGrad
 Berny optimization.
 Search for a saddle point.
 Step number   2 out of a maximum of   34
 All quantities printed in internal units (Hartrees-Bohrs-Radians)
 Swapping is turned off.
 Update second derivatives using D2CorN and points    1    2
 ITU=  0  0
     Eigenvalues ---   -0.26003   0.03452   0.04815   0.05541   0.06205
     Eigenvalues ---    0.13011   0.17356   0.18585   0.19937   0.21561
     Eigenvalues ---    0.24090   0.25055   0.29138   0.35506   0.36134
     Eigenvalues ---    0.36433   0.36874   0.37100   0.40946   0.47711
     Eigenvalues ---    0.58793   1.53592   2.17891  13.82846
 Eigenvectors required to have negative eigenvalues:
                          D9        R9        A9        D7        R6
   1                    0.75029   0.53303   0.20711   0.16206  -0.15062
                          R3        R2        R5        A6        A10
   1                   -0.14981   0.11748  -0.11592   0.08551   0.04331
 RFO step:  Lambda0=3.579886387D-12 Lambda= 0.00000000D+00.
 Linear search not attempted -- option 19 set.
 Variable       Old X    -DE/DX   Delta X   Delta X   Delta X     New X
                                 (Linear)    (Quad)   (Total)
    R2        2.63185   0.00000   0.00000  -0.00000  -0.00000   2.63185
    R3        2.63936   0.00000   0.00000   0.00001   0.00001   2.63937
    R4        2.03811   0.00000   0.00000   0.00000   0.00000   2.03811
    R5        2.63258   0.00000   0.00000   0.00000   0.00000   2.63259
    R6        2.76085   0.00001   0.00000   0.00002   0.00002   2.76087
    R7        2.03912   0.00000   0.00000   0.00000   0.00000   2.03912
    R8        2.03987   0.00000   0.00000   0.00000   0.00000   2.03987
    R9        2.44823   0.00000   0.00000   0.00001   0.00001   2.44824
   R10        2.04279   0.00000   0.00000   0.00000   0.00000   2.04280
    A3        1.86181  -0.00001   0.00000   0.00001   0.00001   1.86182
    A4        2.22220  -0.00000   0.00000  -0.00000  -0.00000   2.22220
    A5        1.87765  -0.00000   0.00000   0.00000   0.00000   1.87765
    A6        1.91117  -0.00002   0.00000  -0.00001  -0.00001   1.91116
    A7        2.26173  -0.00000   0.00000  -0.00001  -0.00001   2.26171
    A8        2.19791  -0.00000   0.00000  -0.00000  -0.00000   2.19791
    A9        1.99713   0.00000   0.00000   0.00001   0.00001   1.99715
   A10        2.22844  -0.00000   0.00000  -0.00000  -0.00000   2.22844
    D4        3.14165   0.00000   0.00000   0.00001   0.00001   3.14166
    D5        0.02015  -0.00000   0.00000  -0.00001  -0.00001   0.02014
    D6        0.01300  -0.00000   0.00000   0.00001   0.00001   0.01300
    D7        2.85351   0.00000   0.00000   0.00000   0.00000   2.85351
    D8        3.09988  -0.00000   0.00000   0.00000   0.00000   3.09989
    D9       -1.02595  -0.00000   0.00000   0.00000   0.00000  -1.02595
   D10        3.02968   0.00000   0.00000   0.00002   0.00002   3.02970
         Item               Value     Threshold  Converged?
 Maximum Force            0.000019     0.000450     YES
 RMS     Force            0.000005     0.000300     YES
 Maximum Displacement     0.000023     0.001800     YES
 RMS     Displacement     0.000009     0.001200     YES
 Predicted change in Energy=-2.581514D-10
 Optimization completed.
    -- Stationary point found.
                       ----------------------------
                       !   Optimized Parameters   !
                       ! (Angstroms and Degrees)  !
 ----------------------                            ----------------------
 !      Name          Value   Derivative information (Atomic Units)     !
 ------------------------------------------------------------------------
 !       R2          1.3927   -DE/DX =    0.0                           !
 !       R3          1.3967   -DE/DX =    0.0                           !
 !       R4          1.0785   -DE/DX =    0.0                           !
 !       R5          1.3931   -DE/DX =    0.0                           !
 !       R6          1.461    -DE/DX =    0.0                           !
 !       R7          1.0791   -DE/DX =    0.0                           !
 !       R8          1.0795   -DE/DX =    0.0                           !
 !       R9          1.2955   -DE/DX =    0.0                           !
 !       R10         1.081    -DE/DX =    0.0                           !
 !       A3        106.6738   -DE/DX =    0.0                           !
 !       A4        127.3229   -DE/DX =    0.0                           !
 !       A5        107.5812   -DE/DX =    0.0                           !
 !       A6        109.5021   -DE/DX =    0.0                           !
 !       A7        129.5874   -DE/DX =    0.0                           !
 !       A8        125.9309   -DE/DX =    0.0                           !
 !       A9        114.4273   -DE/DX =    0.0                           !
 !       A10       127.6803   -DE/DX =    0.0                           !
 !       D4        180.0033   -DE/DX =    0.0                           !
 !       D5          1.1542   -DE/DX =    0.0                           !
 !       D6          0.7447   -DE/DX =    0.0                           !
 !       D7        163.4938   -DE/DX =    0.0                           !
 !       D8        177.6102   -DE/DX =    0.0                           !
 !       D9        -58.7826   -DE/DX =    0.0                           !
 !       D10       173.588    -DE/DX =    0.0                           !
 ------------------------------------------------------------------------
 GradGradGradGradGradGradGradGradGradGradGradGradGradGradGradGradGradGrad

 ---------------------------------------------------------------------------------------------------
                            Z-MATRIX (ANGSTROMS AND DEGREES)
   CD    Cent   Atom    N1       Length/X        N2       Alpha/Y        N3        Beta/Z          J
 ---------------------------------------------------------------------------------------------------
      1      1  C 
      2      2  C        1   1.392714(     1)
      3      3  C        1   1.396688(     2)      2  106.674(    10)
      4      4  H        1   1.078522(     3)      2  127.323(    11)      3  180.003(    18)      0
      5      5  C        2   1.393104(     4)      1  107.581(    12)      3    1.154(    19)      0
      6      6  N        3   1.460976(     5)      1  109.502(    13)      2    0.745(    20)      0
      7      7  H        3   1.079057(     6)      1  129.587(    14)      6  163.494(    21)      0
      8      8  H        2   1.079454(     7)      1  125.931(    15)      5  177.610(    22)      0
      9      9  H        3   1.295548(     8)      1  114.427(    16)      6  -58.783(    23)      0
     10     10  H        5   1.081000(     9)      2  127.680(    17)      1  173.588(    24)      0
 ---------------------------------------------------------------------------------------------------
                         Z-Matrix orientation:                         
 ---------------------------------------------------------------------
 Center     Atomic      Atomic             Coordinates (Angstroms)
 Number     Number       Type             X           Y           Z
 ---------------------------------------------------------------------
      1          6           0        0.000000    0.000000    0.000000
      2          6           0        0.000000    0.000000    1.392714
      3          6           0        1.337962    0.000000   -0.400742
      4          1           0       -0.857674    0.000049   -0.653914
      5          6           0        1.327762    0.026752    1.813510
      6          7           0        2.200295   -0.017899    0.778458
      7          1           0        1.767055   -0.225885   -1.364703
      8          1           0       -0.873858    0.018847    2.026147
      9          1           0        2.030354    1.000753    0.043702
     10          1           0        1.698860    0.129793    2.823575
 ---------------------------------------------------------------------
                    Distance matrix (angstroms):
                    1          2          3          4          5
     1  C    0.000000
     2  C    1.392714   0.000000
     3  C    1.396688   2.237549   0.000000
     4  H    1.078522   2.219075   2.210185   0.000000
     5  C    2.247774   1.393104   2.214437   3.296215   0.000000
     6  N    2.334013   2.284498   1.460976   3.376861   1.354489
     7  H    2.244086   3.282812   1.079057   2.728639   3.218360
     8  H    2.206639   1.079454   3.283640   2.680176   2.211879
     9  H    2.264013   2.635086   1.295548   3.135090   2.138816
    10  H    3.297809   2.224934   3.247047   4.318058   1.081000
                    6          7          8          9         10
     6  N    0.000000
     7  H    2.196382   0.000000
     8  H    3.317905   4.304901   0.000000
     9  H    1.267438   1.886153   3.650846   0.000000
    10  H    2.110865   4.203906   2.695751   2.931920   0.000000
 Symmetry turned off by external request.
 Stoichiometry    C4H5N
 Framework group  C1[X(C4H5N)]
 Deg. of freedom    24
 Full point group                 C1      NOp   1
 Rotational constants (GHZ):           9.1982626           8.8301853           4.5922632
 1\1\GINC-BHC0106\FTS\RB3LYP\def2TZVP\C4H5N1\DHANAWAY\10-Jun-2022\1\\# 
 Opt=(TS, CalcFC, noeigentest, Z-matrix, MaxStep=10) geom=allcheckpoint
  guess=read Field=read NoSymm B3LYP/Def2TZVP freq=noraman pop=none\\ts
 _zmat_initalOpt\\0,1\C\C,1,R2\C,1,R3,2,A3\H,1,R4,2,A4,3,D4,0\C,2,R5,1,
 A5,3,D5,0\N,3,R6,1,A6,2,D6,0\H,3,R7,1,A7,6,D7,0\H,2,R8,1,A8,5,D8,0\H,3
 ,R9,1,A9,6,D9,0\H,5,R10,2,A10,1,D10,0\\R2=1.39271409\R3=1.3966878\R4=1
 .0785218\R5=1.3931037\R6=1.46097626\R7=1.0790574\R8=1.07945362\R9=1.29
 55479\R10=1.08099993\A3=106.67383692\A4=127.32287858\A5=107.58116449\A
 6=109.50213655\A7=129.58736471\A8=125.93086506\A9=114.42727406\A10=127
 .68030967\D4=180.00325498\D5=1.15424987\D6=0.74469735\D7=163.49382109\
 D8=177.61020219\D9=-58.78259242\D10=173.58797398\\Version=ES64L-G16Rev
 A.03\HF=-210.1840673\RMSD=3.613e-09\RMSF=1.947e-04\Dipole=-0.9156905,0
 .329245,-0.5851239\PG=C01 [X(C4H5N1)]\\@


 TWO ROADS DIVERGED IN A WOOD, AND I--
 I TOOK THE ONE LESS TRAVELED BY,
 AND THAT HAS MADE ALL THE DIFFERENCE.

                       -- ROBERT FROST
 Job cpu time:       0 days  0 hours 21 minutes 29.5 seconds.
 Elapsed time:       0 days  0 hours  1 minutes 55.5 seconds.
 File lengths (MBytes):  RWF=     34 Int=      0 D2E=      0 Chk=     32 Scr=      1
 Normal termination of Gaussian 16 at Fri Jun 10 11:57:02 2022.
 Link1:  Proceeding to internal job step number  2.
 --------------------------------------------------------------------
 #N Geom=AllCheck Guess=TCheck SCRF=Check GenChk RB3LYP/def2TZVP Freq
 --------------------------------------------------------------------
 1/5=1,8=10,10=4,11=1,29=7,30=1,38=1,40=1/1,3;
 2/12=2,15=1,40=1/2;
 3/5=44,7=101,11=2,14=-4,25=1,30=1,70=2,71=2,74=-5,116=1,140=1/1,2,3;
 4/5=101/1;
 5/5=2,38=6,98=1/2;
 8/6=4,10=90,11=11/1;
 11/6=1,8=1,9=11,15=111,16=1,31=1/1,2,10;
 10/6=1,31=1/2;
 7/8=1,10=1,25=1,30=1/1,2,3,16;
 1/5=1,8=10,10=4,11=1,30=1/3;
 99//99;
 Structure from the checkpoint file:  "checkpoint.chk"
 -----------------
 ts_zmat_initalOpt
 -----------------
 Charge =  0 Multiplicity = 1
 Z-Matrix found in chk file.
 C
 C,1,R2
 C,1,R3,2,A3
 H,1,R4,2,A4,3,D4,0
 C,2,R5,1,A5,3,D5,0
 N,3,R6,1,A6,2,D6,0
 H,3,R7,1,A7,6,D7,0
 H,2,R8,1,A8,5,D8,0
 H,3,R9,1,A9,6,D9,0
 H,5,R10,2,A10,1,D10,0
      Variables:
 R2=1.39271409
 R3=1.3966878
 R4=1.0785218
 R5=1.3931037
 R6=1.46097626
 R7=1.0790574
 R8=1.07945362
 R9=1.2955479
 R10=1.08099993
 A3=106.67383692
 A4=127.32287858
 A5=107.58116449
 A6=109.50213655
 A7=129.58736471
 A8=125.93086506
 A9=114.42727406
 A10=127.68030967
 D4=180.00325498
 D5=1.15424987
 D6=0.74469735
 D7=163.49382109
 D8=177.61020219
 D9=-58.78259242
 D10=173.58797398
 Recover connectivity data from disk.

 GradGradGradGradGradGradGradGradGradGradGradGradGradGradGradGradGradGrad
 Berny optimization.
 Initialization pass.
                       ----------------------------
                       !    Initial Parameters    !
                       ! (Angstroms and Degrees)  !
 ----------------------                            ----------------------
 !      Name          Value   Derivative information (Atomic Units)     !
 ------------------------------------------------------------------------
 !       R2          1.3927   calculate D2E/DX2 analytically            !
 !       R3          1.3967   calculate D2E/DX2 analytically            !
 !       R4          1.0785   calculate D2E/DX2 analytically            !
 !       R5          1.3931   calculate D2E/DX2 analytically            !
 !       R6          1.461    calculate D2E/DX2 analytically            !
 !       R7          1.0791   calculate D2E/DX2 analytically            !
 !       R8          1.0795   calculate D2E/DX2 analytically            !
 !       R9          1.2955   calculate D2E/DX2 analytically            !
 !       R10         1.081    calculate D2E/DX2 analytically            !
 !       A3        106.6738   calculate D2E/DX2 analytically            !
 !       A4        127.3229   calculate D2E/DX2 analytically            !
 !       A5        107.5812   calculate D2E/DX2 analytically            !
 !       A6        109.5021   calculate D2E/DX2 analytically            !
 !       A7        129.5874   calculate D2E/DX2 analytically            !
 !       A8        125.9309   calculate D2E/DX2 analytically            !
 !       A9        114.4273   calculate D2E/DX2 analytically            !
 !       A10       127.6803   calculate D2E/DX2 analytically            !
 !       D4        180.0033   calculate D2E/DX2 analytically            !
 !       D5          1.1542   calculate D2E/DX2 analytically            !
 !       D6          0.7447   calculate D2E/DX2 analytically            !
 !       D7        163.4938   calculate D2E/DX2 analytically            !
 !       D8        177.6102   calculate D2E/DX2 analytically            !
 !       D9        -58.7826   calculate D2E/DX2 analytically            !
 !       D10       173.588    calculate D2E/DX2 analytically            !
 ------------------------------------------------------------------------
 Trust Radius=1.00D-01 FncErr=1.00D-07 GrdErr=1.00D-07 EigMax=2.50D+02 EigMin=1.00D-04
 Number of steps in this run=      2 maximum allowed number of steps=      2.
 Search for a saddle point of order  1.
 GradGradGradGradGradGradGradGradGradGradGradGradGradGradGradGradGradGrad

                          Input orientation:                          
 ---------------------------------------------------------------------
 Center     Atomic      Atomic             Coordinates (Angstroms)
 Number     Number       Type             X           Y           Z
 ---------------------------------------------------------------------
      1          6           0        0.000000    0.000000    0.000000
      2          6           0        0.000000    0.000000    1.392714
      3          6           0        1.337962    0.000000   -0.400742
      4          1           0       -0.857674    0.000049   -0.653914
      5          6           0        1.327762    0.026752    1.813510
      6          7           0        2.200295   -0.017899    0.778458
      7          1           0        1.767055   -0.225885   -1.364703
      8          1           0       -0.873858    0.018847    2.026147
      9          1           0        2.030354    1.000753    0.043702
     10          1           0        1.698860    0.129793    2.823575
 ---------------------------------------------------------------------
                    Distance matrix (angstroms):
                    1          2          3          4          5
     1  C    0.000000
     2  C    1.392714   0.000000
     3  C    1.396688   2.237549   0.000000
     4  H    1.078522   2.219075   2.210185   0.000000
     5  C    2.247774   1.393104   2.214437   3.296215   0.000000
     6  N    2.334013   2.284498   1.460976   3.376861   1.354489
     7  H    2.244086   3.282812   1.079057   2.728639   3.218360
     8  H    2.206639   1.079454   3.283640   2.680176   2.211879
     9  H    2.264013   2.635086   1.295548   3.135090   2.138816
    10  H    3.297809   2.224934   3.247047   4.318058   1.081000
                    6          7          8          9         10
     6  N    0.000000
     7  H    2.196382   0.000000
     8  H    3.317905   4.304901   0.000000
     9  H    1.267438   1.886153   3.650846   0.000000
    10  H    2.110865   4.203906   2.695751   2.931920   0.000000
 Symmetry turned off by external request.
 Stoichiometry    C4H5N
 Framework group  C1[X(C4H5N)]
 Deg. of freedom    24
 Full point group                 C1      NOp   1
 Rotational constants (GHZ):           9.1982626           8.8301853           4.5922632
 Standard basis: def2TZVP (5D, 7F)
 The following finite field(s) will be applied:
 An electric field of              0.0078 -0.0018  0.0059
   185 basis functions,   295 primitive gaussians,   210 cartesian basis functions
    18 alpha electrons       18 beta electrons
       nuclear repulsion energy       160.4844446436 Hartrees.
 NAtoms=   10 NActive=   10 NUniq=   10 SFac= 1.00D+00 NAtFMM=   60 NAOKFM=F Big=F
 Integral buffers will be    131072 words long.
 Raffenetti 2 integral format.
 Two-electron integral symmetry is turned off.
 One-electron integrals computed using PRISM.
   1 Symmetry operations used in ECPInt.
 ECPInt:  NShTT=    2850 NPrTT=    8640 LenC2=    2843 LenP2D=    7478.
 LDataN:  DoStor=T MaxTD1= 6 Len=  172
 NBasis=   185 RedAO= T EigKep=  5.69D-05  NBF=   185
 NBsUse=   185 1.00D-06 EigRej= -1.00D+00 NBFU=   185
 The nuclear repulsion energy is now       161.2837831522 hartrees.
 Initial guess from the checkpoint file:  "checkpoint.chk"
 B after Tr=     0.000000    0.000000    0.000000
         Rot=    1.000000    0.000000    0.000000    0.000000 Ang=   0.00 deg.
 Keep R1 ints in memory in canonical form, NReq=160464061.
 Requested convergence on RMS density matrix=1.00D-08 within 128 cycles.
 Requested convergence on MAX density matrix=1.00D-06.
 Requested convergence on             energy=1.00D-06.
 No special actions if energy rises.
 SCF Done:  E(RB3LYP) =  -210.184067347     A.U. after    1 cycles
            NFock=  1  Conv=0.15D-08     -V/T= 2.0052
 DoSCS=F DFT=T ScalE2(SS,OS)=  1.000000  1.000000
 Range of M.O.s used for correlation:     1   185
 NBasis=   185 NAE=    18 NBE=    18 NFC=     0 NFV=     0
 NROrb=    185 NOA=    18 NOB=    18 NVA=   167 NVB=   167

 **** Warning!!: The largest alpha MO coefficient is  0.24552093D+02

   1 Symmetry operations used in ECPInt.
 ECPInt:  NShTT=    2850 NPrTT=    8640 LenC2=    2843 LenP2D=    7478.
 LDataN:  DoStor=T MaxTD1= 7 Len=  274
 Symmetrizing basis deriv contribution to polar:
 IMax=3 JMax=2 DiffMx= 0.00D+00
 G2DrvN: will do    11 centers at a time, making    1 passes.
 Calling FoFCou, ICntrl=  3107 FMM=F I1Cent=   0 AccDes= 0.00D+00.
 End of G2Drv F.D. properties file   721 does not exist.
 End of G2Drv F.D. properties file   722 does not exist.
 End of G2Drv F.D. properties file   788 does not exist.
          IDoAtm=1111111111
          Differentiating once with respect to electric field.
                with respect to dipole field.
          Differentiating once with respect to nuclear coordinates.
 Keep R1 ints in memory in canonical form, NReq=160431867.
          There are    33 degrees of freedom in the 1st order CPHF.  IDoFFX=6 NUNeed=     3.
     30 vectors produced by pass  0 Test12= 9.11D-15 3.03D-09 XBig12= 6.36D+01 4.56D+00.
 AX will form    30 AO Fock derivatives at one time.
     30 vectors produced by pass  1 Test12= 9.11D-15 3.03D-09 XBig12= 1.57D+01 6.95D-01.
     30 vectors produced by pass  2 Test12= 9.11D-15 3.03D-09 XBig12= 1.34D-01 7.55D-02.
     30 vectors produced by pass  3 Test12= 9.11D-15 3.03D-09 XBig12= 5.41D-04 3.42D-03.
     30 vectors produced by pass  4 Test12= 9.11D-15 3.03D-09 XBig12= 1.08D-06 1.17D-04.
     23 vectors produced by pass  5 Test12= 9.11D-15 3.03D-09 XBig12= 2.47D-09 6.70D-06.
      6 vectors produced by pass  6 Test12= 9.11D-15 3.03D-09 XBig12= 3.25D-12 3.44D-07.
      2 vectors produced by pass  7 Test12= 9.11D-15 3.03D-09 XBig12= 3.36D-15 1.10D-08.
 InvSVY:  IOpt=1 It=  1 EMax= 5.33D-15
 Solved reduced A of dimension   181 with    33 vectors.
 Isotropic polarizability for W=    0.000000       50.45 Bohr**3.
 End of Minotr F.D. properties file   721 does not exist.
 End of Minotr F.D. properties file   722 does not exist.
 End of Minotr F.D. properties file   788 does not exist.
   1 Symmetry operations used in ECPInt.
 ECPInt:  NShTT=    2850 NPrTT=    8640 LenC2=    2843 LenP2D=    7478.
 LDataN:  DoStor=T MaxTD1= 8 Len=  415
 Calling FoFJK, ICntrl=    100127 FMM=F ISym2X=0 I1Cent= 0 IOpClX= 0 NMat=1 NMatS=1 NMatT=0.
 Full mass-weighted force constant matrix:
 Low frequencies ----1484.7118   -9.5854    0.0003    0.0006    0.0007   18.1861
 Low frequencies ---   31.7301  589.7380  637.7210
 ******    1 imaginary frequencies (negative Signs) ****** 
 Diagonal vibrational polarizability:
        3.2600799       5.2035108       1.2370669
 Harmonic frequencies (cm**-1), IR intensities (KM/Mole), Raman scattering
 activities (A**4/AMU), depolarization ratios for plane and unpolarized
 incident light, reduced masses (AMU), force constants (mDyne/A),
 and normal coordinates:
                      1                      2                      3
                      A                      A                      A
 Frequencies --  -1484.7095               589.7371               637.7203
 Red. masses --      1.2145                 2.2552                 3.8899
 Frc consts  --      1.5774                 0.4621                 0.9321
 IR Inten    --     97.9118                 2.1285                 3.4993
  Atom  AN      X      Y      Z        X      Y      Z        X      Y      Z
     1   6     0.02  -0.00  -0.03     0.00  -0.19  -0.01    -0.00   0.15  -0.01
     2   6     0.02   0.00   0.02     0.00   0.22   0.00     0.00  -0.00  -0.00
     3   6    -0.06  -0.06  -0.01     0.00   0.05  -0.00     0.00  -0.31   0.03
     4   1     0.01  -0.00  -0.01    -0.00  -0.31  -0.00     0.02   0.51  -0.03
     5   6    -0.04   0.01   0.02     0.00  -0.15   0.01    -0.00  -0.19   0.01
     6   7    -0.00   0.05  -0.06     0.01   0.04  -0.01     0.03   0.30  -0.01
     7   1     0.01   0.16  -0.03     0.09   0.40  -0.05     0.05  -0.33   0.05
     8   1     0.01  -0.01   0.01     0.00   0.56  -0.01     0.01   0.13   0.00
     9   1     0.61  -0.14   0.75    -0.33   0.15   0.22    -0.44   0.09  -0.13
    10   1    -0.00  -0.01   0.01     0.03  -0.36   0.02    -0.03  -0.38   0.03
                      4                      5                      6
                      A                      A                      A
 Frequencies --    756.1123               831.4189               873.6086
 Red. masses --      1.1078                 1.4394                 4.6316
 Frc consts  --      0.3731                 0.5863                 2.0826
 IR Inten    --     94.7084                 3.1466                12.4696
  Atom  AN      X      Y      Z        X      Y      Z        X      Y      Z
     1   6    -0.01  -0.03  -0.01    -0.02   0.04  -0.00    -0.28   0.02  -0.15
     2   6     0.01  -0.07  -0.00    -0.01   0.02  -0.01     0.09   0.01  -0.16
     3   6    -0.01  -0.03  -0.01    -0.02   0.06   0.01    -0.17  -0.03   0.17
     4   1    -0.02   0.49   0.01    -0.01  -0.36  -0.02    -0.24  -0.21  -0.22
     5   6     0.00   0.00   0.00     0.00  -0.17  -0.01     0.06   0.06  -0.05
     6   7     0.03  -0.03   0.01     0.04   0.04   0.01     0.29  -0.02   0.14
     7   1     0.02   0.43  -0.10    -0.10  -0.43   0.09    -0.21   0.29   0.09
     8   1     0.02   0.38  -0.00     0.03   0.14   0.03     0.32  -0.18   0.16
     9   1    -0.27   0.02   0.15     0.19  -0.01   0.02    -0.01  -0.08   0.08
    10   1    -0.05   0.55  -0.03    -0.12   0.74  -0.05    -0.35  -0.30   0.15
                      7                      8                      9
                      A                      A                      A
 Frequencies --    886.3367               892.8004               940.6699
 Red. masses --      1.8645                 2.2518                 2.6434
 Frc consts  --      0.8630                 1.0575                 1.3781
 IR Inten    --     10.9736                 7.8823                26.6071
  Atom  AN      X      Y      Z        X      Y      Z        X      Y      Z
     1   6     0.06   0.09   0.08     0.01  -0.09   0.08    -0.05  -0.08  -0.03
     2   6    -0.13   0.05   0.07    -0.15  -0.05   0.07    -0.02   0.08  -0.03
     3   6     0.04  -0.09   0.02     0.03   0.08   0.04     0.06   0.01   0.29
     4   1     0.20  -0.44  -0.10     0.13   0.42  -0.08     0.18   0.43  -0.34
     5   6    -0.06  -0.01  -0.10    -0.07   0.03  -0.16     0.07  -0.04  -0.07
     6   7     0.10  -0.02  -0.04     0.15   0.02  -0.02    -0.10  -0.00  -0.13
     7   1    -0.17   0.54  -0.22    -0.18  -0.38   0.05     0.19   0.08   0.33
     8   1    -0.12  -0.43   0.09    -0.05   0.46   0.19     0.06  -0.42   0.09
     9   1    -0.22   0.01   0.02     0.35  -0.04  -0.06     0.14   0.11  -0.05
    10   1    -0.04   0.19  -0.13    -0.15  -0.32  -0.10     0.24   0.25  -0.16
                     10                     11                     12
                      A                      A                      A
 Frequencies --    957.4788              1068.9770              1094.5727
 Red. masses --      1.6009                 1.3758                 1.2347
 Frc consts  --      0.8647                 0.9263                 0.8716
 IR Inten    --     13.3494                12.2833                 1.0933
  Atom  AN      X      Y      Z        X      Y      Z        X      Y      Z
     1   6     0.00   0.11  -0.02    -0.05   0.02  -0.01    -0.06   0.01   0.07
     2   6     0.00  -0.13  -0.00     0.04   0.01   0.05    -0.04  -0.01  -0.06
     3   6     0.02  -0.02   0.11     0.08  -0.01  -0.06     0.06  -0.02   0.03
     4   1     0.14  -0.56  -0.19    -0.18  -0.05   0.15    -0.44  -0.07   0.57
     5   6     0.02   0.05  -0.02    -0.05  -0.00  -0.10     0.02  -0.01  -0.04
     6   7    -0.06  -0.01  -0.05    -0.05  -0.00   0.03     0.02   0.01  -0.01
     7   1     0.07   0.10   0.11     0.51   0.03   0.12     0.32   0.18   0.10
     8   1     0.05   0.71   0.05     0.44  -0.04   0.61    -0.27   0.07  -0.39
     9   1    -0.05   0.05   0.02    -0.00   0.00   0.06     0.23  -0.04  -0.09
    10   1     0.14  -0.15  -0.05    -0.24   0.02  -0.04     0.09   0.01  -0.08
                     13                     14                     15
                      A                      A                      A
 Frequencies --   1134.7943              1177.4463              1246.2709
 Red. masses --      2.1507                 1.1551                 1.8115
 Frc consts  --      1.6318                 0.9435                 1.6578
 IR Inten    --      1.6578                25.2204                 2.1059
  Atom  AN      X      Y      Z        X      Y      Z        X      Y      Z
     1   6    -0.13   0.01  -0.11     0.01   0.02   0.00     0.05  -0.00   0.01
     2   6    -0.16  -0.01   0.11     0.00  -0.00   0.01     0.02   0.00  -0.07
     3   6     0.02  -0.00  -0.11    -0.02   0.03   0.01    -0.03  -0.00   0.01
     4   1     0.04  -0.01  -0.36    -0.05  -0.01   0.09    -0.04   0.01   0.13
     5   6     0.10  -0.00   0.08    -0.01   0.04  -0.02     0.00  -0.01  -0.15
     6   7     0.07   0.01   0.05     0.05  -0.05  -0.05    -0.06   0.01   0.17
     7   1     0.44  -0.01   0.06     0.22  -0.41   0.24    -0.34  -0.09  -0.09
     8   1    -0.19  -0.01   0.11    -0.12  -0.11  -0.16     0.12  -0.03   0.05
     9   1     0.06  -0.05   0.03    -0.55   0.18   0.57    -0.08  -0.02   0.30
    10   1     0.71   0.04  -0.13    -0.01  -0.01  -0.02     0.70  -0.01  -0.42
                     16                     17                     18
                      A                      A                      A
 Frequencies --   1310.9400              1433.4552              1482.5191
 Red. masses --      1.7741                 2.9146                 3.0938
 Frc consts  --      1.7964                 3.5286                 4.0063
 IR Inten    --      2.1440                 9.2125                 3.2186
  Atom  AN      X      Y      Z        X      Y      Z        X      Y      Z
     1   6     0.02   0.00   0.11    -0.16   0.01   0.16    -0.11  -0.00  -0.17
     2   6     0.05   0.01   0.02    -0.08  -0.00  -0.12     0.16   0.00   0.29
     3   6    -0.15  -0.00  -0.05     0.19  -0.03  -0.08     0.13  -0.00   0.03
     4   1     0.41   0.00  -0.39     0.14  -0.01  -0.26    -0.19  -0.00  -0.12
     5   6     0.07  -0.01  -0.12     0.21   0.02  -0.01    -0.01  -0.01  -0.13
     6   7    -0.04   0.01   0.08    -0.09   0.01   0.03    -0.05   0.00   0.05
     7   1     0.54   0.10   0.24    -0.35  -0.12  -0.32    -0.37  -0.04  -0.20
     8   1    -0.20  -0.02  -0.35     0.00  -0.00   0.00    -0.45  -0.00  -0.53
     9   1     0.07  -0.15  -0.07    -0.01   0.15   0.52     0.02   0.08   0.04
    10   1    -0.26   0.00  -0.01    -0.39  -0.05   0.23    -0.27  -0.01  -0.06
                     19                     20                     21
                      A                      A                      A
 Frequencies --   1512.5080              2179.9992              3196.2588
 Red. masses --      3.6006                 1.0723                 1.0904
 Frc consts  --      4.8531                 3.0026                 6.5631
 IR Inten    --      1.8903                13.6594                22.1429
  Atom  AN      X      Y      Z        X      Y      Z        X      Y      Z
     1   6     0.20  -0.00  -0.20     0.01   0.00   0.00     0.00   0.00   0.00
     2   6    -0.21   0.00   0.06     0.00  -0.00   0.00    -0.02   0.00   0.01
     3   6    -0.11  -0.00   0.05    -0.04  -0.04  -0.02     0.00  -0.00  -0.00
     4   1    -0.31   0.00   0.48     0.01   0.00   0.00    -0.03   0.00  -0.02
     5   6     0.29   0.00  -0.07    -0.01   0.00  -0.00    -0.03  -0.01  -0.08
     6   7    -0.07   0.00   0.05     0.01  -0.03   0.02    -0.00   0.00  -0.00
     7   1    -0.10   0.02   0.08     0.04   0.01  -0.01    -0.02   0.01   0.04
     8   1    -0.10  -0.01   0.28     0.00   0.01   0.00     0.21  -0.00  -0.16
     9   1    -0.04  -0.01   0.06     0.25   0.96  -0.06     0.00  -0.00   0.00
    10   1    -0.52  -0.01   0.26     0.01   0.01  -0.01     0.33   0.09   0.89
                     22                     23                     24
                      A                      A                      A
 Frequencies --   3228.5473              3233.5932              3251.4296
 Red. masses --      1.0938                 1.0935                 1.1042
 Frc consts  --      6.7175                 6.7365                 6.8781
 IR Inten    --      4.1154                 0.6440                 2.8830
  Atom  AN      X      Y      Z        X      Y      Z        X      Y      Z
     1   6     0.03   0.00   0.02     0.01  -0.00   0.02    -0.06  -0.00  -0.05
     2   6    -0.06   0.00   0.04     0.03  -0.00  -0.02    -0.02   0.00   0.02
     3   6     0.01  -0.01  -0.03     0.03  -0.02  -0.07     0.02  -0.01  -0.03
     4   1    -0.37  -0.00  -0.28    -0.19   0.00  -0.15     0.67   0.00   0.51
     5   6     0.01   0.00   0.02    -0.01  -0.00  -0.01     0.00   0.00   0.01
     6   7     0.00  -0.00  -0.00    -0.00  -0.00   0.00     0.00  -0.00   0.00
     7   1    -0.13   0.07   0.29    -0.34   0.18   0.75    -0.17   0.09   0.38
     8   1     0.63  -0.01  -0.46    -0.38   0.01   0.28     0.24  -0.00  -0.18
     9   1     0.00   0.01  -0.01     0.00   0.01  -0.01     0.00   0.00  -0.00
    10   1    -0.09  -0.02  -0.23     0.03   0.01   0.07    -0.03  -0.01  -0.06

 -------------------
 - Thermochemistry -
 -------------------
 Temperature   298.150 Kelvin.  Pressure   1.00000 Atm.
 Atom     1 has atomic number  6 and mass  12.00000
 Atom     2 has atomic number  6 and mass  12.00000
 Atom     3 has atomic number  6 and mass  12.00000
 Atom     4 has atomic number  1 and mass   1.00783
 Atom     5 has atomic number  6 and mass  12.00000
 Atom     6 has atomic number  7 and mass  14.00307
 Atom     7 has atomic number  1 and mass   1.00783
 Atom     8 has atomic number  1 and mass   1.00783
 Atom     9 has atomic number  1 and mass   1.00783
 Atom    10 has atomic number  1 and mass   1.00783
 Molecular mass:    67.04220 amu.
 Principal axes and moments of inertia in atomic units:
                           1         2         3
     Eigenvalues --   196.20457 204.38316 392.99603
           X            0.96491  -0.26224  -0.01323
           Y            0.01491   0.00442   0.99988
           Z            0.26215   0.96499  -0.00818
 This molecule is an asymmetric top.
 Rotational symmetry number  1.
 Rotational temperatures (Kelvin)      0.44145     0.42378     0.22039
 Rotational constants (GHZ):           9.19826     8.83019     4.59226
    1 imaginary frequencies ignored.
 Zero-point vibrational energy     202869.9 (Joules/Mol)
                                   48.48706 (Kcal/Mol)
 Warning -- explicit consideration of   1 degrees of freedom as
           vibrations may cause significant error
 Vibrational temperatures:    848.50   917.54  1087.88  1196.23  1256.93
          (Kelvin)           1275.24  1284.54  1353.41  1377.60  1538.02
                             1574.85  1632.72  1694.08  1793.11  1886.15
                             2062.42  2133.01  2176.16  3136.53  4598.70
                             4645.16  4652.42  4678.08
 
 Zero-point correction=                           0.077269 (Hartree/Particle)
 Thermal correction to Energy=                    0.080966
 Thermal correction to Enthalpy=                  0.081910
 Thermal correction to Gibbs Free Energy=         0.050983
 Sum of electronic and zero-point Energies=           -210.106798
 Sum of electronic and thermal Energies=              -210.103101
 Sum of electronic and thermal Enthalpies=            -210.102157
 Sum of electronic and thermal Free Energies=         -210.133084
 
                     E (Thermal)             CV                S
                      KCal/Mol        Cal/Mol-Kelvin    Cal/Mol-Kelvin
 Total                   50.807             13.368             65.092
 Electronic               0.000              0.000              0.000
 Translational            0.889              2.981             38.526
 Rotational               0.889              2.981             24.270
 Vibrational             49.030              7.407              2.296
 Vibration     1          0.947              1.054              0.468
                       Q            Log10(Q)             Ln(Q)
 Total Bot       0.354400D-23        -23.450507        -53.996787
 Total V=0       0.123242D+13         12.090760         27.840003
 Vib (Bot)       0.365511D-35        -35.437100        -81.596938
 Vib (Bot)    1  0.255865D+00         -0.591988         -1.363104
 Vib (V=0)       0.127106D+01          0.104167          0.239853
 Vib (V=0)    1  0.106166D+01          0.025987          0.059838
 Electronic      0.100000D+01          0.000000          0.000000
 Translational   0.215763D+08          7.333976         16.887104
 Rotational      0.449383D+05          4.652617         10.713046
 -------------------------------------------------------------------
 Center     Atomic                   Forces (Hartrees/Bohr)
 Number     Number              X              Y              Z
 -------------------------------------------------------------------
      1        6           0.000316914   -0.000788744    0.000001301
      2        6          -0.000319622    0.000433463   -0.000000039
      3        6           0.000001293    0.000352539   -0.000007819
      4        1          -0.000000133    0.000000210   -0.000000045
      5        6           0.000003316   -0.000000191   -0.000000357
      6        7          -0.000002393    0.000001595    0.000008532
      7        1          -0.000001668    0.000000891   -0.000001857
      8        1          -0.000000120    0.000000091   -0.000000004
      9        1           0.000002448    0.000000645   -0.000000450
     10        1          -0.000000035   -0.000000499    0.000000737
 -------------------------------------------------------------------
 Cartesian Forces:  Max     0.000788744 RMS     0.000194684
 -----------------------------------------------------------------------------------------------
                       Internal Coordinate Forces (Hartree/Bohr or radian)
  Cent   Atom   N1       Length/X         N2         Alpha/Y        N3         Beta/Z          J
 -----------------------------------------------------------------------------------------------
      1  C 
      2  C        1   0.000000(     1)
      3  C        1   0.000000(     2)      2  -0.000008(    10)
      4  H        1   0.000000(     3)      2  -0.000000(    11)      3   0.000000(    18)     0
      5  C        2   0.000003(     4)      1  -0.000001(    12)      3  -0.000002(    19)     0
      6  N        3   0.000005(     5)      1  -0.000019(    13)      2  -0.000002(    20)     0
      7  H        3   0.000001(     6)      1  -0.000004(    14)      6   0.000002(    21)     0
      8  H        2   0.000000(     7)      1  -0.000000(    15)      5  -0.000000(    22)     0
      9  H        3   0.000002(     8)      1   0.000005(    16)      6  -0.000000(    23)     0
     10  H        5   0.000001(     9)      2  -0.000001(    17)      1   0.000001(    24)     0
 -----------------------------------------------------------------------------------------------
 Internal  Forces:  Max     0.000019218 RMS     0.000004715

 GradGradGradGradGradGradGradGradGradGradGradGradGradGradGradGradGradGrad
 Berny optimization.
 Search for a saddle point.
 Step number   1 out of a maximum of    2
 All quantities printed in internal units (Hartrees-Bohrs-Radians)
 Swapping is turned off.
 Second derivative matrix not updated -- analytic derivatives used.
 ITU=  0
     Eigenvalues ---   -0.25882   0.03456   0.04801   0.05541   0.06210
     Eigenvalues ---    0.12970   0.17366   0.18579   0.19976   0.21577
     Eigenvalues ---    0.24112   0.25114   0.29040   0.35541   0.36111
     Eigenvalues ---    0.36436   0.36863   0.37131   0.41008   0.47757
     Eigenvalues ---    0.58810   1.53927   2.17771  13.74911
 Eigenvectors required to have negative eigenvalues:
                          D9        R9        A9        D7        R6
   1                    0.74716   0.53736   0.20710   0.16247  -0.15104
                          R3        R2        R5        A6        A10
   1                   -0.14947   0.11757  -0.11609   0.08496   0.04353
 Angle between quadratic step and forces=  57.97 degrees.
 Linear search not attempted -- option 19 set.
 Variable       Old X    -DE/DX   Delta X   Delta X   Delta X     New X
                                 (Linear)    (Quad)   (Total)
    R2        2.63185   0.00000   0.00000  -0.00000  -0.00000   2.63185
    R3        2.63936   0.00000   0.00000   0.00001   0.00001   2.63937
    R4        2.03811   0.00000   0.00000   0.00000   0.00000   2.03811
    R5        2.63258   0.00000   0.00000   0.00000   0.00000   2.63259
    R6        2.76085   0.00001   0.00000   0.00002   0.00002   2.76087
    R7        2.03912   0.00000   0.00000   0.00000   0.00000   2.03912
    R8        2.03987   0.00000   0.00000   0.00000   0.00000   2.03987
    R9        2.44823   0.00000   0.00000   0.00001   0.00001   2.44824
   R10        2.04279   0.00000   0.00000   0.00000   0.00000   2.04280
    A3        1.86181  -0.00001   0.00000   0.00001   0.00001   1.86182
    A4        2.22220  -0.00000   0.00000  -0.00000  -0.00000   2.22220
    A5        1.87765  -0.00000   0.00000   0.00000   0.00000   1.87765
    A6        1.91117  -0.00002   0.00000  -0.00001  -0.00001   1.91116
    A7        2.26173  -0.00000   0.00000  -0.00001  -0.00001   2.26172
    A8        2.19791  -0.00000   0.00000  -0.00000  -0.00000   2.19791
    A9        1.99713   0.00000   0.00000   0.00001   0.00001   1.99715
   A10        2.22844  -0.00000   0.00000  -0.00000  -0.00000   2.22844
    D4        3.14165   0.00000   0.00000   0.00001   0.00001   3.14166
    D5        0.02015  -0.00000   0.00000  -0.00001  -0.00001   0.02014
    D6        0.01300  -0.00000   0.00000   0.00001   0.00001   0.01300
    D7        2.85351   0.00000   0.00000   0.00001   0.00001   2.85351
    D8        3.09988  -0.00000   0.00000   0.00000   0.00000   3.09989
    D9       -1.02595  -0.00000   0.00000   0.00000   0.00000  -1.02595
   D10        3.02968   0.00000   0.00000   0.00002   0.00002   3.02970
         Item               Value     Threshold  Converged?
 Maximum Force            0.000019     0.000450     YES
 RMS     Force            0.000005     0.000300     YES
 Maximum Displacement     0.000024     0.001800     YES
 RMS     Displacement     0.000009     0.001200     YES
 Predicted change in Energy=-2.572242D-10
 Optimization completed.
    -- Stationary point found.
                       ----------------------------
                       !   Optimized Parameters   !
                       ! (Angstroms and Degrees)  !
 ----------------------                            ----------------------
 !      Name          Value   Derivative information (Atomic Units)     !
 ------------------------------------------------------------------------
 !       R2          1.3927   -DE/DX =    0.0                           !
 !       R3          1.3967   -DE/DX =    0.0                           !
 !       R4          1.0785   -DE/DX =    0.0                           !
 !       R5          1.3931   -DE/DX =    0.0                           !
 !       R6          1.461    -DE/DX =    0.0                           !
 !       R7          1.0791   -DE/DX =    0.0                           !
 !       R8          1.0795   -DE/DX =    0.0                           !
 !       R9          1.2955   -DE/DX =    0.0                           !
 !       R10         1.081    -DE/DX =    0.0                           !
 !       A3        106.6738   -DE/DX =    0.0                           !
 !       A4        127.3229   -DE/DX =    0.0                           !
 !       A5        107.5812   -DE/DX =    0.0                           !
 !       A6        109.5021   -DE/DX =    0.0                           !
 !       A7        129.5874   -DE/DX =    0.0                           !
 !       A8        125.9309   -DE/DX =    0.0                           !
 !       A9        114.4273   -DE/DX =    0.0                           !
 !       A10       127.6803   -DE/DX =    0.0                           !
 !       D4        180.0033   -DE/DX =    0.0                           !
 !       D5          1.1542   -DE/DX =    0.0                           !
 !       D6          0.7447   -DE/DX =    0.0                           !
 !       D7        163.4938   -DE/DX =    0.0                           !
 !       D8        177.6102   -DE/DX =    0.0                           !
 !       D9        -58.7826   -DE/DX =    0.0                           !
 !       D10       173.588    -DE/DX =    0.0                           !
 ------------------------------------------------------------------------
 GradGradGradGradGradGradGradGradGradGradGradGradGradGradGradGradGradGrad


 ----------------------------------------------------------------------

 Electric dipole moment (input orientation):
 (Debye = 10**-18 statcoulomb cm , SI units = C m)
                  (au)            (Debye)         (10**-30 SI)
   Tot        0.113546D+01      0.288604D+01      0.962681D+01
   x         -0.915691D+00     -0.232745D+01     -0.776355D+01
   y          0.329246D+00      0.836859D+00      0.279146D+01
   z         -0.585124D+00     -0.148724D+01     -0.496089D+01

 Dipole polarizability, Alpha (input orientation).
 (esu units = cm**3 , SI units = C**2 m**2 J**-1)
 Alpha(0;0):
               (au)            (10**-24 esu)      (10**-40 SI)
   iso        0.504544D+02      0.747657D+01      0.831881D+01
   aniso      0.247225D+02      0.366349D+01      0.407618D+01
   xx         0.564158D+02      0.835995D+01      0.930170D+01
   yx         0.188921D+01      0.279952D+00      0.311489D+00
   yy         0.343326D+02      0.508757D+01      0.566069D+01
   zx        -0.480179D+00     -0.711552D-01     -0.791708D-01
   zy        -0.769670D+00     -0.114053D+00     -0.126901D+00
   zz         0.606148D+02      0.898218D+01      0.999403D+01

 ----------------------------------------------------------------------

 Dipole orientation:
     6          0.00000000         -0.00000000          0.00000000
     6         -2.12245755         -0.76315020         -1.35624506
     6          2.05393970         -0.17059033         -1.64876873
     1          0.07141336          0.60834880          1.94388981
     6         -1.32371971         -1.42868408         -3.77483628
     7          1.18182470         -1.03627239         -4.12107032
     1          3.91996559          0.63566221         -1.48775112
     1         -4.02489986         -0.88904793         -0.63102813
     1          2.41532462         -2.40225964         -2.58838921
     1         -2.43268939         -2.27429307         -5.26753124

 Electric dipole moment (dipole orientation):
 (Debye = 10**-18 statcoulomb cm , SI units = C m)
                  (au)            (Debye)         (10**-30 SI)
   Tot        0.113546D+01      0.288604D+01      0.962681D+01
   x          0.000000D+00      0.000000D+00      0.000000D+00
   y          0.000000D+00      0.000000D+00      0.000000D+00
   z          0.113546D+01      0.288604D+01      0.962681D+01

 Dipole polarizability, Alpha (dipole orientation).
 (esu units = cm**3 , SI units = C**2 m**2 J**-1)
 Alpha(0;0):
               (au)            (10**-24 esu)      (10**-40 SI)
   iso        0.504544D+02      0.747657D+01      0.831881D+01
   aniso      0.247225D+02      0.366349D+01      0.407618D+01
   xx         0.595872D+02      0.882992D+01      0.982461D+01
   yx         0.260507D+01      0.386031D+00      0.429517D+00
   yy         0.371545D+02      0.550574D+01      0.612596D+01
   zx         0.904582D+00      0.134045D+00      0.149145D+00
   zy         0.756962D+01      0.112170D+01      0.124806D+01
   zz         0.546214D+02      0.809406D+01      0.900585D+01

 ----------------------------------------------------------------------
 1\1\GINC-BHC0106\Freq\RB3LYP\def2TZVP\C4H5N1\DHANAWAY\10-Jun-2022\1\\#
 N Geom=AllCheck Guess=TCheck SCRF=Check GenChk RB3LYP/def2TZVP Freq\\t
 s_zmat_initalOpt\\0,1\C\C,1,R2\C,1,R3,2,A3\H,1,R4,2,A4,3,D4,0\C,2,R5,1
 ,A5,3,D5,0\N,3,R6,1,A6,2,D6,0\H,3,R7,1,A7,6,D7,0\H,2,R8,1,A8,5,D8,0\H,
 3,R9,1,A9,6,D9,0\H,5,R10,2,A10,1,D10,0\\R2=1.39271409\R3=1.3966878\R4=
 1.0785218\R5=1.3931037\R6=1.46097626\R7=1.0790574\R8=1.07945362\R9=1.2
 955479\R10=1.08099993\A3=106.67383692\A4=127.32287858\A5=107.58116449\
 A6=109.50213655\A7=129.58736471\A8=125.93086506\A9=114.42727406\A10=12
 7.68030967\D4=180.00325498\D5=1.15424987\D6=0.74469735\D7=163.49382109
 \D8=177.61020219\D9=-58.78259242\D10=173.58797398\\Version=ES64L-G16Re
 vA.03\HF=-210.1840673\RMSD=1.466e-09\RMSF=1.947e-04\ZeroPoint=0.077269
 1\Thermal=0.0809662\Dipole=-0.9156908,0.3292455,-0.5851241\DipoleDeriv
 =-0.0390389,0.0543425,0.0249441,0.0207408,-0.1525644,-0.0906407,-0.008
 7234,-0.0713826,0.0100699,0.053166,0.00961,-0.0624814,-0.026875,-0.156
 8324,-0.0357008,-0.054932,0.0488496,-0.0232606,0.1792589,-0.0503261,-0
 .0225741,-0.2285377,-0.1671687,0.271608,0.1116966,0.1344911,-0.0919053
 ,0.0729348,-0.0045467,-0.0309117,-0.0115111,0.1731673,0.0086983,-0.025
 4759,0.0010883,0.0854089,0.1254299,-0.0404755,0.047067,0.0975017,-0.14
 72552,0.086128,0.1163064,0.0771474,0.0787383,-0.7488848,-0.0566915,0.0
 120373,0.1370228,-0.1358559,-0.0839074,-0.3288636,-0.2170682,-0.095368
 1,0.0654461,0.009447,0.0267151,0.0648651,0.1782108,-0.1023295,0.010251
 7,-0.0279547,0.0479804,0.0199755,0.0011632,0.0671099,0.0079579,0.16625
 13,0.0053635,0.0711651,0.0004184,0.0374589,0.2337854,0.0892547,0.01337
 42,-0.0266324,0.0940068,-0.0100211,0.1682286,0.0708217,0.0779348,0.037
 9271,-0.0117776,-0.0752806,-0.0345321,0.1480404,-0.0491983,-0.0596535,
 -0.0164112,-0.1270573\Polar=56.4157599,1.8892092,34.3326401,-0.4801788
 ,-0.7696701,60.6147798\PG=C01 [X(C4H5N1)]\NImag=1\\0.73799218,0.000045
 63,0.13487603,0.13477326,0.00495164,0.66804328,-0.12234094,-0.00038337
 ,0.02515644,0.74304541,0.00066516,-0.06531632,-0.00072512,0.00167831,0
 .13491669,-0.02097353,-0.00077391,-0.32903837,-0.12745492,0.00626554,0
 .66586591,-0.29559079,0.00084462,0.03827227,0.01628896,-0.00161047,0.0
 8530607,0.54386571,0.02864779,-0.06874922,-0.03833810,0.02424486,0.010
 35120,0.02880439,-0.06149652,0.13771673,0.07383589,-0.00516650,-0.1173
 2153,0.02483722,-0.00147827,-0.03123705,-0.17173012,0.08542958,0.66187
 250,-0.24631899,-0.00093794,-0.14282818,0.00827979,0.00020759,0.004185
 37,-0.01059403,0.00073778,-0.01809275,0.25235386,0.00150617,-0.0333522
 8,-0.00018234,0.00005750,0.00192243,-0.00001992,-0.00168447,-0.0001399
 0,-0.00010270,0.00047973,0.02434328,-0.14296900,0.00061034,-0.16713489
 ,-0.02318112,-0.00007671,-0.00694731,0.00835758,-0.00044849,0.01134696
 ,0.15411109,-0.00024342,0.16689747,0.01648447,0.00119381,-0.09107790,-
 0.29976687,-0.00077895,-0.03817331,-0.05269601,-0.04411576,-0.00983342
 ,-0.00017486,-0.00056952,-0.00010934,0.60610614,-0.00623957,0.01234868
 ,0.00481096,-0.01252635,-0.06593532,-0.01214897,0.01179673,0.01341903,
 0.00120786,-0.00007809,0.00489971,-0.00012872,0.02474100,0.14531524,-0
 .03049406,-0.00086033,-0.02199485,-0.08048346,-0.00679555,-0.13545079,
 0.02226892,0.02646981,-0.09103574,0.00256455,0.00040090,-0.00564356,0.
 09343890,0.03341345,0.77791539,-0.06829860,0.00223687,-0.00489248,-0.0
 7425698,0.00153876,-0.00431965,-0.10870244,0.00594247,-0.00890681,-0.0
 0385898,-0.00014616,0.00478356,-0.18026670,0.01090605,0.09335227,0.420
 61690,-0.03050275,0.01107431,0.02603010,-0.01981424,0.01560816,-0.0244
 4459,0.07479208,0.02745805,0.01571071,-0.00066439,0.00583081,0.0007042
 6,0.04405380,-0.08540798,-0.02626942,-0.02793480,0.10985743,-0.0028637
 0,-0.00438155,-0.05710215,0.06587911,0.00754193,0.02892967,-0.15988157
 ,-0.09061144,-0.14558929,0.00089784,0.00028148,0.00001664,0.09969797,-
 0.00953384,-0.19911322,-0.07337612,0.06113292,0.35896072,0.00208204,0.
 00658820,0.02249686,-0.00590809,-0.00040105,0.00212117,-0.10724105,0.0
 2847323,0.11312525,0.00024202,-0.00045757,-0.00060848,-0.00442105,0.00
 011952,-0.00457276,0.01193257,-0.00826476,-0.01614624,0.10224409,-0.00
 477259,0.00014887,0.00672060,-0.00409476,0.00360400,-0.00320949,0.0363
 6391,-0.03378197,-0.06314340,-0.00006185,-0.00178957,-0.00007506,0.005
 13080,0.00167464,-0.00210974,-0.00318009,-0.01247463,0.01688691,-0.027
 59648,0.04072861,-0.00068537,0.00054711,0.00064520,0.00076285,-0.00122
 532,0.00128378,0.10702046,-0.06077437,-0.28349658,0.00051327,0.0003984
 1,-0.00020067,-0.00538748,-0.00126016,-0.00130947,0.00910941,-0.003332
 71,-0.01678378,-0.11284951,0.06472688,0.30222095,0.00719283,-0.0000837
 2,-0.00378454,-0.24978972,0.00401116,0.13754239,-0.00028812,0.00064927
 ,-0.00233568,-0.00009534,-0.00000030,0.00063673,-0.00876573,0.00072203
 ,0.01872984,-0.00538042,-0.00112108,0.00117632,0.00048064,-0.00009352,
 0.00006303,0.25691773,-0.00003577,0.00163116,0.00068388,0.00448879,-0.
 03585311,-0.00364555,0.00053777,0.00576433,0.00117690,-0.00001757,-0.0
 0297075,-0.00002021,-0.00107717,-0.00135563,0.00170918,-0.00239486,0.0
 0775371,-0.00170823,-0.00061030,0.00067872,-0.00021855,-0.00453941,0.0
 2546351,0.02467668,-0.00034651,-0.00685639,0.13671230,-0.00260856,-0.1
 5875906,0.00095852,-0.00016170,-0.00597754,-0.00066133,0.00012194,0.00
 086890,-0.00849023,0.00029763,0.01146614,-0.00424383,-0.00080035,0.000
 77295,0.00134941,0.00021466,0.00009064,-0.15049221,0.00318794,0.159280
 77,-0.02555966,-0.00938580,0.02382154,-0.01706910,-0.00278748,-0.01371
 151,0.01845523,0.01666889,-0.00463820,-0.00047277,0.00059181,0.0002989
 3,0.02027911,-0.01721704,-0.01571632,-0.00290978,-0.03288799,0.0621478
 6,-0.00034917,-0.00122446,0.00064240,-0.00049817,0.00346755,-0.0006535
 8,0.00774105,0.00906585,0.00250981,-0.00217523,0.00423753,-0.00016552,
 0.00716013,-0.05730093,-0.09523709,-0.03428393,0.00028685,0.00053014,-
 0.00033606,-0.01402922,0.00509574,0.00246932,0.01383899,-0.07405920,0.
 02347806,0.00110499,-0.00064313,0.00059350,0.00049292,0.00086642,0.000
 07587,0.04175370,0.15957103,-0.03473386,0.00581680,0.03056027,-0.02404
 246,-0.00043117,-0.03335445,0.06579335,0.05162282,0.00336203,-0.000771
 10,-0.00063459,0.00080322,0.05577279,0.00849957,-0.04037500,-0.0054267
 3,-0.04828301,0.05300927,-0.00396803,-0.02057551,-0.00164327,-0.000863
 52,-0.00127419,-0.00072094,-0.05231219,0.00402517,-0.01201619,-0.00564
 254,-0.00011828,-0.00193726,0.00151753,-0.00252302,-0.02452208,-0.0034
 9748,0.00024797,0.00373861,0.00063930,0.00022282,-0.00131996,-0.096778
 50,-0.01222427,-0.09908787,0.01112445,0.00234413,0.02246853,0.00093800
 ,-0.00047097,0.00081094,0.00022630,0.00018096,0.00084428,0.00038327,0.
 00054932,0.00055176,0.09108968,0.00162008,0.00482896,-0.00177640,0.002
 11172,0.00086780,0.00201237,-0.00224273,0.00319885,0.00064975,0.000047
 90,0.00072613,0.00001405,-0.01454880,-0.03005410,-0.02842763,-0.000807
 22,-0.00564065,-0.00308625,0.00104422,0.00185446,0.00054521,-0.0000373
 3,-0.00197837,0.00001908,0.00102082,0.00153180,0.00123410,0.01179135,0
 .02466513,-0.00056632,-0.00039710,0.00019944,0.00181405,-0.00046678,-0
 .00129233,0.00363452,-0.00199250,-0.00192375,0.00008125,-0.00001976,-0
 .00000676,-0.09583798,-0.02515780,-0.29445890,-0.00607963,-0.00044792,
 -0.02310079,-0.00094767,0.00056414,-0.00080680,-0.00067236,0.00010883,
 -0.00016546,0.00012108,-0.00100683,0.00037506,0.09845306,0.02881572,0.
 32118029\\-0.00031691,0.00078874,-0.00000130,0.00031962,-0.00043346,0.
 00000004,-0.00000129,-0.00035254,0.00000782,0.00000013,-0.00000021,0.0
 0000004,-0.00000332,0.00000019,0.00000036,0.00000239,-0.00000159,-0.00
 000853,0.00000167,-0.00000089,0.00000186,0.00000012,-0.00000009,0.,-0.
 00000245,-0.00000065,0.00000045,0.00000004,0.00000050,-0.00000074\\\@


 GOOD SENSE ABOUT TRIVIALITIES IS BETTER THAN NONSENSE
 ABOUT THINGS THAT MATTER

                                       -- MAX BEERBOHM
 Job cpu time:       0 days  0 hours 18 minutes 10.6 seconds.
 Elapsed time:       0 days  0 hours  1 minutes 32.1 seconds.
 File lengths (MBytes):  RWF=     34 Int=      0 D2E=      0 Chk=     32 Scr=      1
 Normal termination of Gaussian 16 at Fri Jun 10 11:58:34 2022.
