 Entering Gaussian System, Link 0=g16
 Input=int_zmat_field_N50.gjf
 Output=int_zmat_field_N50.out
 Initial command:
 /software/gaussian/g16-a03/l1.exe "/local_scratch/11174464/Gau-31262.inp" -scrdir="/local_scratch/11174464/"
 Entering Link 1 = /software/gaussian/g16-a03/l1.exe PID=     31263.
  
 Copyright (c) 1988,1990,1992,1993,1995,1998,2003,2009,2016,
            Gaussian, Inc.  All Rights Reserved.
  
 This is part of the Gaussian(R) 16 program.  It is based on
 the Gaussian(R) 09 system (copyright 2009, Gaussian, Inc.),
 the Gaussian(R) 03 system (copyright 2003, Gaussian, Inc.),
 the Gaussian(R) 98 system (copyright 1998, Gaussian, Inc.),
 the Gaussian(R) 94 system (copyright 1995, Gaussian, Inc.),
 the Gaussian 92(TM) system (copyright 1992, Gaussian, Inc.),
 the Gaussian 90(TM) system (copyright 1990, Gaussian, Inc.),
 the Gaussian 88(TM) system (copyright 1988, Gaussian, Inc.),
 the Gaussian 86(TM) system (copyright 1986, Carnegie Mellon
 University), and the Gaussian 82(TM) system (copyright 1983,
 Carnegie Mellon University). Gaussian is a federally registered
 trademark of Gaussian, Inc.
  
 This software contains proprietary and confidential information,
 including trade secrets, belonging to Gaussian, Inc.
  
 This software is provided under written license and may be
 used, copied, transmitted, or stored only in accord with that
 written license.
  
 The following legend is applicable only to US Government
 contracts under FAR:
  
                    RESTRICTED RIGHTS LEGEND
  
 Use, reproduction and disclosure by the US Government is
 subject to restrictions as set forth in subparagraphs (a)
 and (c) of the Commercial Computer Software - Restricted
 Rights clause in FAR 52.227-19.
  
 Gaussian, Inc.
 340 Quinnipiac St., Bldg. 40, Wallingford CT 06492
  
  
 ---------------------------------------------------------------
 Warning -- This program may not be used in any manner that
 competes with the business of Gaussian, Inc. or will provide
 assistance to any competitor of Gaussian, Inc.  The licensee
 of this program is prohibited from giving any competitor of
 Gaussian, Inc. access to this program.  By using this program,
 the user acknowledges that Gaussian, Inc. is engaged in the
 business of creating and licensing software in the field of
 computational chemistry and represents and warrants to the
 licensee that it is not a competitor of Gaussian, Inc. and that
 it will not use this program in any manner prohibited above.
 ---------------------------------------------------------------
  

 Cite this work as:
 Gaussian 16, Revision A.03,
 M. J. Frisch, G. W. Trucks, H. B. Schlegel, G. E. Scuseria, 
 M. A. Robb, J. R. Cheeseman, G. Scalmani, V. Barone, 
 G. A. Petersson, H. Nakatsuji, X. Li, M. Caricato, A. V. Marenich, 
 J. Bloino, B. G. Janesko, R. Gomperts, B. Mennucci, H. P. Hratchian, 
 J. V. Ortiz, A. F. Izmaylov, J. L. Sonnenberg, D. Williams-Young, 
 F. Ding, F. Lipparini, F. Egidi, J. Goings, B. Peng, A. Petrone, 
 T. Henderson, D. Ranasinghe, V. G. Zakrzewski, J. Gao, N. Rega, 
 G. Zheng, W. Liang, M. Hada, M. Ehara, K. Toyota, R. Fukuda, 
 J. Hasegawa, M. Ishida, T. Nakajima, Y. Honda, O. Kitao, H. Nakai, 
 T. Vreven, K. Throssell, J. A. Montgomery, Jr., J. E. Peralta, 
 F. Ogliaro, M. J. Bearpark, J. J. Heyd, E. N. Brothers, K. N. Kudin, 
 V. N. Staroverov, T. A. Keith, R. Kobayashi, J. Normand, 
 K. Raghavachari, A. P. Rendell, J. C. Burant, S. S. Iyengar, 
 J. Tomasi, M. Cossi, J. M. Millam, M. Klene, C. Adamo, R. Cammi, 
 J. W. Ochterski, R. L. Martin, K. Morokuma, O. Farkas, 
 J. B. Foresman, and D. J. Fox, Gaussian, Inc., Wallingford CT, 2016.
 
 ******************************************
 Gaussian 16:  ES64L-G16RevA.03 25-Dec-2016
                10-Jun-2022 
 ******************************************
 %nprocshared=12
 Will use up to   12 processors via shared memory.
 %chk=checkpoint.chk
 %mem=12GB
 ----------------------------------------------------------------------
 # Opt=(Z-matrix, MaxStep=10) B3LYP/Def2TZVP geom=allcheckpoint guess=r
 ead Field=read NoSymm freq=noraman pop=none
 ----------------------------------------------------------------------
 1/8=10,10=7,18=40,26=3,29=7,38=1/1,3;
 2/12=2,15=1,29=3,40=1/2;
 3/5=44,7=101,11=2,14=-6,25=1,30=1,71=1,74=-5,116=-2/1,2,3;
 4/5=1/1;
 5/5=2,38=6/2;
 7/29=1,30=1/1,2,3,16;
 1/8=10,10=7,18=40,26=3/3(2);
 2/15=1,29=3/2;
 99//99;
 2/15=1,29=3/2;
 3/5=44,7=101,11=2,14=-2,25=1,30=1,71=1,74=-5/1,2,3;
 4/5=5,16=3,69=1/1;
 5/5=2,38=5/2;
 7/30=1/1,2,3,16;
 1/8=10,18=40,26=3/3(-5);
 2/15=1,29=3/2;
 99/9=1/99;
 Structure from the checkpoint file:  "checkpoint.chk"
 ------------------
 int_zmat_initalOpt
 ------------------
 Charge =  0 Multiplicity = 1
 Z-Matrix found in chk file.
 H
 C,1,R2
 C,2,R3,1,A3
 C,2,R4,1,A4,3,D4,0
 H,3,R5,2,A5,1,D5,0
 C,3,R6,2,A6,5,D6,0
 N,4,R7,2,A7,1,D7,0
 H,4,R8,2,A8,7,D8,0
 H,6,R9,3,A9,2,D9,0
 H,7,R10,4,A10,2,D10,0
      Variables:
 R2=1.07728606
 R3=1.42076822
 R4=1.37342296
 R5=1.07722976
 R6=1.37310834
 R7=1.37190398
 R8=1.07659695
 R9=1.0765504
 R10=1.00331841
 A3=126.58227089
 A4=125.97221396
 A5=126.76044727
 A6=107.44377008
 A7=107.66196208
 A8=130.99178538
 A9=130.9447235
 A10=125.16950877
 D4=179.70598682
 D5=-0.15915169
 D6=179.92709197
 D7=180.21788503
 D8=-180.11852105
 D9=-179.91307344
 D10=-180.13743545
 Recover connectivity data from disk.

 GradGradGradGradGradGradGradGradGradGradGradGradGradGradGradGradGradGrad
 Berny optimization.
 Initialization pass.
                       ----------------------------
                       !    Initial Parameters    !
                       ! (Angstroms and Degrees)  !
 ----------------------                            ----------------------
 !      Name          Value   Derivative information (Atomic Units)     !
 ------------------------------------------------------------------------
 !       R2          1.0773   estimate D2E/DX2                          !
 !       R3          1.4208   estimate D2E/DX2                          !
 !       R4          1.3734   estimate D2E/DX2                          !
 !       R5          1.0772   estimate D2E/DX2                          !
 !       R6          1.3731   estimate D2E/DX2                          !
 !       R7          1.3719   estimate D2E/DX2                          !
 !       R8          1.0766   estimate D2E/DX2                          !
 !       R9          1.0766   estimate D2E/DX2                          !
 !       R10         1.0033   estimate D2E/DX2                          !
 !       A3        126.5823   estimate D2E/DX2                          !
 !       A4        125.9722   estimate D2E/DX2                          !
 !       A5        126.7604   estimate D2E/DX2                          !
 !       A6        107.4438   estimate D2E/DX2                          !
 !       A7        107.662    estimate D2E/DX2                          !
 !       A8        130.9918   estimate D2E/DX2                          !
 !       A9        130.9447   estimate D2E/DX2                          !
 !       A10       125.1695   estimate D2E/DX2                          !
 !       D4        179.706    estimate D2E/DX2                          !
 !       D5         -0.1592   estimate D2E/DX2                          !
 !       D6        179.9271   estimate D2E/DX2                          !
 !       D7        180.2179   estimate D2E/DX2                          !
 !       D8       -180.1185   estimate D2E/DX2                          !
 !       D9       -179.9131   estimate D2E/DX2                          !
 !       D10      -180.1374   estimate D2E/DX2                          !
 ------------------------------------------------------------------------
 Trust Radius=1.00D-01 FncErr=1.00D-07 GrdErr=1.00D-06 EigMax=2.50D+02 EigMin=1.00D-04
 Number of steps in this run=     34 maximum allowed number of steps=    100.
 GradGradGradGradGradGradGradGradGradGradGradGradGradGradGradGradGradGrad

 ---------------------------------------------------------------------------------------------------
                            Z-MATRIX (ANGSTROMS AND DEGREES)
   CD    Cent   Atom    N1       Length/X        N2       Alpha/Y        N3        Beta/Z          J
 ---------------------------------------------------------------------------------------------------
      1      1  H 
      2      2  C        1   1.077286(     1)
      3      3  C        2   1.420768(     2)      1  126.582(    10)
      4      4  C        2   1.373423(     3)      1  125.972(    11)      3  179.706(    18)      0
      5      5  H        3   1.077230(     4)      2  126.760(    12)      1   -0.159(    19)      0
      6      6  C        3   1.373108(     5)      2  107.444(    13)      5  179.927(    20)      0
      7      7  N        4   1.371904(     6)      2  107.662(    14)      1  180.218(    21)      0
      8      8  H        4   1.076597(     7)      2  130.992(    15)      7 -180.119(    22)      0
      9      9  H        6   1.076550(     8)      3  130.945(    16)      2 -179.913(    23)      0
     10     10  H        7   1.003318(     9)      4  125.170(    17)      2 -180.137(    24)      0
 ---------------------------------------------------------------------------------------------------
                         Z-Matrix orientation:                         
 ---------------------------------------------------------------------
 Center     Atomic      Atomic             Coordinates (Angstroms)
 Number     Number       Type             X           Y           Z
 ---------------------------------------------------------------------
      1          1           0        0.000000    0.000000    0.000000
      2          6           0        0.000000    0.000000    1.077286
      3          6           0        1.140880    0.000000    1.924030
      4          6           0       -1.111499    0.005704    1.884025
      5          1           0        2.172903   -0.002397    1.615249
      6          6           0        0.690709    0.005306    3.221237
      7          7           0       -0.680484    0.008463    3.186461
      8          1           0       -2.160343    0.009677    1.641185
      9          1           0        1.227633    0.008278    4.154331
     10          1           0       -1.277546    0.014642    3.992766
 ---------------------------------------------------------------------
                    Distance matrix (angstroms):
                    1          2          3          4          5
     1  H    0.000000
     2  C    1.077286   0.000000
     3  C    2.236850   1.420768   0.000000
     4  C    2.187467   1.373423   2.252741   0.000000
     5  H    2.707498   2.238508   1.077230   3.295391   0.000000
     6  C    3.294461   2.252472   1.373108   2.244123   2.185442
     7  N    3.258322   2.216246   2.216116   1.371904   3.257398
     8  H    2.713055   2.232747   3.313332   1.076597   4.333341
     9  H    4.331930   3.312907   2.232002   3.259729   2.709351
    10  H    4.192197   3.183137   3.182556   2.115287   4.190283
                    6          7          8          9         10
     6  C    0.000000
     7  N    1.371638   0.000000
     8  H    3.259613   2.139594   0.000000
     9  H    1.076550   2.139552   4.218328   0.000000
    10  H    2.114088   1.003318   2.511830   2.510391   0.000000
 Symmetry turned off by external request.
 Stoichiometry    C4H5N
 Framework group  C1[X(C4H5N)]
 Deg. of freedom    24
 Full point group                 C1      NOp   1
 Rotational constants (GHZ):           9.1905878           9.0626787           4.5630944
 Standard basis: def2TZVP (5D, 7F)
 The following finite field(s) will be applied:
 An electric field of             -0.0039 -0.0004  0.0031
   185 basis functions,   295 primitive gaussians,   210 cartesian basis functions
    18 alpha electrons       18 beta electrons
       nuclear repulsion energy       161.2456368387 Hartrees.
 NAtoms=   10 NActive=   10 NUniq=   10 SFac= 1.00D+00 NAtFMM=   60 NAOKFM=F Big=F
 Integral buffers will be    131072 words long.
 Raffenetti 2 integral format.
 Two-electron integral symmetry is turned off.
 One-electron integrals computed using PRISM.
   1 Symmetry operations used in ECPInt.
 ECPInt:  NShTT=    2850 NPrTT=    8640 LenC2=    2844 LenP2D=    7462.
 LDataN:  DoStor=T MaxTD1= 6 Len=  172
 NBasis=   185 RedAO= T EigKep=  5.50D-05  NBF=   185
 NBsUse=   185 1.00D-06 EigRej= -1.00D+00 NBFU=   185
 The nuclear repulsion energy is now       161.7340638269 hartrees.
 Initial guess from the checkpoint file:  "checkpoint.chk"
 B after Tr=    -0.000000    0.000000    0.000000
         Rot=    1.000000   -0.000000   -0.000000    0.000000 Ang=   0.00 deg.
 Keep R1 ints in memory in canonical form, NReq=160464041.
 Requested convergence on RMS density matrix=1.00D-08 within 128 cycles.
 Requested convergence on MAX density matrix=1.00D-06.
 Requested convergence on             energy=1.00D-06.
 No special actions if energy rises.
 SCF Done:  E(RB3LYP) =  -210.250552904     A.U. after   10 cycles
            NFock= 10  Conv=0.19D-08     -V/T= 2.0051
   1 Symmetry operations used in ECPInt.
 ECPInt:  NShTT=    2850 NPrTT=    8640 LenC2=    2844 LenP2D=    7462.
 LDataN:  DoStor=T MaxTD1= 7 Len=  274
 Calling FoFJK, ICntrl=      2127 FMM=F ISym2X=0 I1Cent= 0 IOpClX= 0 NMat=1 NMatS=1 NMatT=0.
 -------------------------------------------------------------------
 Center     Atomic                   Forces (Hartrees/Bohr)
 Number     Number              X              Y              Z
 -------------------------------------------------------------------
      1        1          -0.000033925   -0.000064443    0.000040246
      2        6          -0.000038898    0.000111672    0.000149076
      3        6          -0.000013930   -0.000071930    0.000331142
      4        6          -0.000028878   -0.000039134   -0.000888538
      5        1          -0.000099412    0.000031038   -0.000121573
      6        6           0.000822907   -0.000041034   -0.000404366
      7        7          -0.000997529   -0.000067733    0.001343965
      8        1          -0.000104004    0.000025707   -0.000115319
      9        1           0.000156051    0.000028720   -0.000033750
     10        1           0.000337620    0.000087135   -0.000300884
 -------------------------------------------------------------------
 Cartesian Forces:  Max     0.001343965 RMS     0.000403613
 -----------------------------------------------------------------------------------------------
                       Internal Coordinate Forces (Hartree/Bohr or radian)
  Cent   Atom   N1       Length/X         N2         Alpha/Y        N3         Beta/Z          J
 -----------------------------------------------------------------------------------------------
      1  H 
      2  C        1  -0.000040(     1)
      3  C        2   0.000559(     2)      1  -0.004509(    10)
      4  C        2   0.000665(     3)      1  -0.003607(    11)      3  -0.000137(    18)     0
      5  H        3  -0.000060(     4)      2  -0.000295(    12)      1   0.000048(    19)     0
      6  C        3  -0.000735(     5)      2   0.002336(    13)      5  -0.000003(    20)     0
      7  N        4   0.000783(     6)      2   0.002299(    14)      1   0.000047(    21)     0
      8  H        4   0.000127(     7)      2  -0.000181(    15)      7  -0.000039(    22)     0
      9  H        6   0.000049(     8)      3  -0.000309(    16)      2   0.000045(    23)     0
     10  H        7  -0.000442(     9)      4   0.000175(    17)      2  -0.000140(    24)     0
 -----------------------------------------------------------------------------------------------
 Internal  Forces:  Max     0.004509409 RMS     0.001392039

 GradGradGradGradGradGradGradGradGradGradGradGradGradGradGradGradGradGrad
 Berny optimization.
 Search for a local minimum.
 Step number   1 out of a maximum of   34
 All quantities printed in internal units (Hartrees-Bohrs-Radians)
 Second derivative matrix not updated -- first step.
 ITU=  0
     Eigenvalues ---    0.01644   0.04002   0.06656   0.09524   0.12053
     Eigenvalues ---    0.12201   0.23410   0.24169   0.25614   0.28679
     Eigenvalues ---    0.30481   0.36324   0.36331   0.36409   0.36415
     Eigenvalues ---    0.43933   0.47110   0.50380   0.50761   0.51853
     Eigenvalues ---    0.59607   1.20276   1.88970  24.52291
 RFO step:  Lambda=-1.10229252D-05 EMin= 1.64411941D-02
 Linear search not attempted -- first point.
 Variable       Old X    -DE/DX   Delta X   Delta X   Delta X     New X
                                 (Linear)    (Quad)   (Total)
    R2        2.03578  -0.00004   0.00000  -0.00011  -0.00011   2.03566
    R3        2.68486   0.00056   0.00000  -0.00044  -0.00044   2.68442
    R4        2.59539   0.00066   0.00000  -0.00011  -0.00011   2.59529
    R5        2.03567  -0.00006   0.00000  -0.00016  -0.00016   2.03551
    R6        2.59480  -0.00073   0.00000  -0.00093  -0.00093   2.59387
    R7        2.59252   0.00078   0.00000   0.00216   0.00216   2.59468
    R8        2.03447   0.00013   0.00000   0.00035   0.00035   2.03482
    R9        2.03439   0.00005   0.00000   0.00014   0.00014   2.03453
   R10        1.89600  -0.00044   0.00000  -0.00093  -0.00093   1.89506
    A3        2.20928  -0.00451   0.00000  -0.00407  -0.00407   2.20520
    A4        2.19863  -0.00361   0.00000   0.00348   0.00348   2.20211
    A5        2.21239  -0.00030   0.00000  -0.00111  -0.00111   2.21128
    A6        1.87525   0.00234   0.00000   0.00052   0.00052   1.87576
    A7        1.87906   0.00230   0.00000  -0.00037  -0.00037   1.87868
    A8        2.28624  -0.00018   0.00000  -0.00023  -0.00023   2.28601
    A9        2.28542  -0.00031   0.00000  -0.00120  -0.00120   2.28422
   A10        2.18462   0.00017   0.00000   0.00129   0.00129   2.18591
    D4        3.13646  -0.00014   0.00000  -0.00499  -0.00499   3.13147
    D5       -0.00278   0.00005   0.00000  -0.00290  -0.00290  -0.00568
    D6        3.14032  -0.00000   0.00000  -0.00105  -0.00105   3.13927
    D7        3.14540   0.00005   0.00000   0.00436   0.00436   3.14976
    D8       -3.14366  -0.00004   0.00000  -0.00236  -0.00236  -3.14602
    D9       -3.14008   0.00004   0.00000   0.00115   0.00115  -3.13892
   D10       -3.14399  -0.00014   0.00000  -0.00322  -0.00322  -3.14721
         Item               Value     Threshold  Converged?
 Maximum Force            0.004509     0.000450     NO 
 RMS     Force            0.001392     0.000300     NO 
 Maximum Displacement     0.004989     0.001800     NO 
 RMS     Displacement     0.002150     0.001200     NO 
 Predicted change in Energy=-5.511462D-06
 GradGradGradGradGradGradGradGradGradGradGradGradGradGradGradGradGradGrad

 ---------------------------------------------------------------------------------------------------
                            Z-MATRIX (ANGSTROMS AND DEGREES)
   CD    Cent   Atom    N1       Length/X        N2       Alpha/Y        N3        Beta/Z          J
 ---------------------------------------------------------------------------------------------------
      1      1  H 
      2      2  C        1   1.077227(     1)
      3      3  C        2   1.420533(     2)      1  126.349(    10)
      4      4  C        2   1.373367(     3)      1  126.171(    11)      3  179.420(    18)      0
      5      5  H        3   1.077143(     4)      2  126.697(    12)      1   -0.325(    19)      0
      6      6  C        3   1.372619(     5)      2  107.473(    13)      5  179.867(    20)      0
      7      7  N        4   1.373047(     6)      2  107.641(    14)      1  180.468(    21)      0
      8      8  H        4   1.076781(     7)      2  130.979(    15)      7 -180.254(    22)      0
      9      9  H        6   1.076625(     8)      3  130.876(    16)      2 -179.847(    23)      0
     10     10  H        7   1.002824(     9)      4  125.244(    17)      2 -180.322(    24)      0
 ---------------------------------------------------------------------------------------------------
                         Z-Matrix orientation:                         
 ---------------------------------------------------------------------
 Center     Atomic      Atomic             Coordinates (Angstroms)
 Number     Number       Type             X           Y           Z
 ---------------------------------------------------------------------
      1          1           0        0.000000    0.000000    0.000000
      2          6           0        0.000000    0.000000    1.077227
      3          6           0        1.144129    0.000000    1.919179
      4          6           0       -1.108601    0.011220    1.887792
      5          1           0        2.174450   -0.004904    1.605090
      6          6           0        0.700093    0.010476    3.217949
      7          7           0       -0.672168    0.017484    3.189616
      8          1           0       -2.158388    0.018808    1.648321
      9          1           0        1.242456    0.016072    4.147967
     10          1           0       -1.264716    0.030561    3.998548
 ---------------------------------------------------------------------
                    Distance matrix (angstroms):
                    1          2          3          4          5
     1  H    0.000000
     2  C    1.077227   0.000000
     3  C    2.234341   1.420533   0.000000
     4  C    2.189265   1.373367   2.252977   0.000000
     5  H    2.702697   2.237610   1.077143   3.295240   0.000000
     6  C    3.293241   2.252317   1.372619   2.245149   2.185242
     7  N    3.259719   2.216822   2.216585   1.373047   3.257984
     8  H    2.715871   2.232743   3.313660   1.076781   4.333119
     9  H    4.330079   3.312612   2.231013   3.261270   2.708372
    10  H    4.193904   3.183482   3.182334   2.116610   4.190199
                    6          7          8          9         10
     6  C    0.000000
     7  N    1.372571   0.000000
     8  H    3.261091   2.141131   0.000000
     9  H    1.076625   2.141080   4.220661   0.000000
    10  H    2.114288   1.002824   2.514429   2.511663   0.000000
 Symmetry turned off by external request.
 Stoichiometry    C4H5N
 Framework group  C1[X(C4H5N)]
 Deg. of freedom    24
 Full point group                 C1      NOp   1
 Rotational constants (GHZ):           9.1871738           9.0597336           4.5615118
 Standard basis: def2TZVP (5D, 7F)
 The following finite field(s) will be applied:
 An electric field of             -0.0039 -0.0004  0.0031
   185 basis functions,   295 primitive gaussians,   210 cartesian basis functions
    18 alpha electrons       18 beta electrons
       nuclear repulsion energy       161.2182292251 Hartrees.
 NAtoms=   10 NActive=   10 NUniq=   10 SFac= 1.00D+00 NAtFMM=   60 NAOKFM=F Big=F
 Integral buffers will be    131072 words long.
 Raffenetti 2 integral format.
 Two-electron integral symmetry is turned off.
 One-electron integrals computed using PRISM.
   1 Symmetry operations used in ECPInt.
 ECPInt:  NShTT=    2850 NPrTT=    8640 LenC2=    2844 LenP2D=    7462.
 LDataN:  DoStor=T MaxTD1= 6 Len=  172
 NBasis=   185 RedAO= T EigKep=  5.53D-05  NBF=   185
 NBsUse=   185 1.00D-06 EigRej= -1.00D+00 NBFU=   185
 The nuclear repulsion energy is now       161.7051481374 hartrees.
 Initial guess from the checkpoint file:  "checkpoint.chk"
 B after Tr=    -0.008173   -0.005729   -0.000443
         Rot=    0.999996    0.001615   -0.002049    0.001350 Ang=   0.34 deg.
 Keep R1 ints in memory in canonical form, NReq=160464041.
 Requested convergence on RMS density matrix=1.00D-08 within 128 cycles.
 Requested convergence on MAX density matrix=1.00D-06.
 Requested convergence on             energy=1.00D-06.
 No special actions if energy rises.
 SCF Done:  E(RB3LYP) =  -210.250559074     A.U. after    8 cycles
            NFock=  8  Conv=0.37D-08     -V/T= 2.0051
   1 Symmetry operations used in ECPInt.
 ECPInt:  NShTT=    2850 NPrTT=    8640 LenC2=    2844 LenP2D=    7462.
 LDataN:  DoStor=T MaxTD1= 7 Len=  274
 Calling FoFJK, ICntrl=      2127 FMM=F ISym2X=0 I1Cent= 0 IOpClX= 0 NMat=1 NMatS=1 NMatT=0.
 -------------------------------------------------------------------
 Center     Atomic                   Forces (Hartrees/Bohr)
 Number     Number              X              Y              Z
 -------------------------------------------------------------------
      1        1          -0.000422038   -0.000210483   -0.000007016
      2        6           0.000149392    0.000280495    0.000073187
      3        6           0.000072327   -0.000088100    0.000240042
      4        6           0.000154215    0.000091062   -0.000305290
      5        1          -0.000013785   -0.000014426   -0.000070703
      6        6           0.000201380    0.000076313   -0.000162769
      7        7          -0.000148462   -0.000169622    0.000250367
      8        1           0.000016409   -0.000001997    0.000001179
      9        1          -0.000010721    0.000004272    0.000003825
     10        1           0.000001283    0.000032486   -0.000022822
 -------------------------------------------------------------------
 Cartesian Forces:  Max     0.000422038 RMS     0.000154755
 -----------------------------------------------------------------------------------------------
                       Internal Coordinate Forces (Hartree/Bohr or radian)
  Cent   Atom   N1       Length/X         N2         Alpha/Y        N3         Beta/Z          J
 -----------------------------------------------------------------------------------------------
      1  H 
      2  C        1   0.000007(     1)
      3  C        2   0.000207(     2)      1  -0.000832(    10)
      4  C        2  -0.000065(     3)      1  -0.000699(    11)      3  -0.000044(    18)     0
      5  H        3   0.000007(     4)      2  -0.000146(    12)      1  -0.000231(    19)     0
      6  C        3  -0.000211(     5)      2   0.000311(    13)      5  -0.000208(    20)     0
      7  N        4   0.000168(     6)      2   0.000571(    14)      1  -0.000323(    21)     0
      8  H        4  -0.000016(     7)      2  -0.000005(    15)      7   0.000003(    22)     0
      9  H        6  -0.000002(     8)      3   0.000023(    16)      2   0.000006(    23)     0
     10  H        7  -0.000019(     9)      4  -0.000024(    17)      2  -0.000051(    24)     0
 -----------------------------------------------------------------------------------------------
 Internal  Forces:  Max     0.000831667 RMS     0.000285152

 GradGradGradGradGradGradGradGradGradGradGradGradGradGradGradGradGradGrad
 Berny optimization.
 Search for a local minimum.
 Step number   2 out of a maximum of   34
 All quantities printed in internal units (Hartrees-Bohrs-Radians)
 Update second derivatives using D2CorN and points    1    2
 DE= -6.17D-06 DEPred=-5.51D-06 R= 1.12D+00
 TightC=F SS=  1.41D+00  RLast= 1.05D-02 DXNew= 1.6818D-01 3.1600D-02
 Trust test= 1.12D+00 RLast= 1.05D-02 DXMaxT set to 1.00D-01
 ITU=  1  0
     Eigenvalues ---    0.01661   0.04021   0.06655   0.09531   0.11723
     Eigenvalues ---    0.12057   0.23383   0.24159   0.25582   0.28626
     Eigenvalues ---    0.30436   0.36325   0.36332   0.36413   0.36416
     Eigenvalues ---    0.43951   0.47090   0.50259   0.50654   0.51737
     Eigenvalues ---    0.59600   1.20330   1.88932  24.52001
 RFO step:  Lambda=-6.06222591D-07 EMin= 1.66128672D-02
 Quartic linear search produced a step of  0.14196.
 Variable       Old X    -DE/DX   Delta X   Delta X   Delta X     New X
                                 (Linear)    (Quad)   (Total)
    R2        2.03566   0.00001  -0.00002   0.00004   0.00002   2.03569
    R3        2.68442   0.00021  -0.00006   0.00028   0.00022   2.68464
    R4        2.59529  -0.00006  -0.00002  -0.00048  -0.00049   2.59479
    R5        2.03551   0.00001  -0.00002   0.00005   0.00002   2.03553
    R6        2.59387  -0.00021  -0.00013  -0.00015  -0.00028   2.59359
    R7        2.59468   0.00017   0.00031   0.00013   0.00044   2.59512
    R8        2.03482  -0.00002   0.00005  -0.00010  -0.00005   2.03477
    R9        2.03453  -0.00000   0.00002  -0.00002  -0.00000   2.03452
   R10        1.89506  -0.00002  -0.00013   0.00008  -0.00005   1.89501
    A3        2.20520  -0.00083  -0.00058  -0.00011  -0.00069   2.20451
    A4        2.20211  -0.00070   0.00049   0.00011   0.00060   2.20271
    A5        2.21128  -0.00015  -0.00016  -0.00036  -0.00052   2.21076
    A6        1.87576   0.00031   0.00007  -0.00003   0.00004   1.87580
    A7        1.87868   0.00057  -0.00005   0.00013   0.00008   1.87877
    A8        2.28601  -0.00001  -0.00003  -0.00000  -0.00003   2.28597
    A9        2.28422   0.00002  -0.00017   0.00020   0.00003   2.28425
   A10        2.18591  -0.00002   0.00018  -0.00010   0.00009   2.18600
    D4        3.13147  -0.00004  -0.00071   0.00016  -0.00055   3.13093
    D5       -0.00568  -0.00023  -0.00041   0.00003  -0.00039  -0.00606
    D6        3.13927  -0.00021  -0.00015   0.00012  -0.00003   3.13924
    D7        3.14976  -0.00032   0.00062  -0.00101  -0.00039   3.14936
    D8       -3.14602   0.00000  -0.00033   0.00070   0.00037  -3.14565
    D9       -3.13892   0.00001   0.00016   0.00023   0.00039  -3.13853
   D10       -3.14721  -0.00005  -0.00046   0.00038  -0.00008  -3.14729
         Item               Value     Threshold  Converged?
 Maximum Force            0.000832     0.000450     NO 
 RMS     Force            0.000285     0.000300     YES
 Maximum Displacement     0.000691     0.001800     YES
 RMS     Displacement     0.000329     0.001200     YES
 Predicted change in Energy=-3.531800D-07
 GradGradGradGradGradGradGradGradGradGradGradGradGradGradGradGradGradGrad

 ---------------------------------------------------------------------------------------------------
                            Z-MATRIX (ANGSTROMS AND DEGREES)
   CD    Cent   Atom    N1       Length/X        N2       Alpha/Y        N3        Beta/Z          J
 ---------------------------------------------------------------------------------------------------
      1      1  H 
      2      2  C        1   1.077238(     1)
      3      3  C        2   1.420650(     2)      1  126.309(    10)
      4      4  C        2   1.373106(     3)      1  126.206(    11)      3  179.389(    18)      0
      5      5  H        3   1.077155(     4)      2  126.667(    12)      1   -0.347(    19)      0
      6      6  C        3   1.372469(     5)      2  107.476(    13)      5  179.865(    20)      0
      7      7  N        4   1.373278(     6)      2  107.645(    14)      1  180.445(    21)      0
      8      8  H        4   1.076756(     7)      2  130.977(    15)      7 -180.233(    22)      0
      9      9  H        6   1.076623(     8)      3  130.878(    16)      2 -179.825(    23)      0
     10     10  H        7   1.002798(     9)      4  125.249(    17)      2 -180.326(    24)      0
 ---------------------------------------------------------------------------------------------------
                         Z-Matrix orientation:                         
 ---------------------------------------------------------------------
 Center     Atomic      Atomic             Coordinates (Angstroms)
 Number     Number       Type             X           Y           Z
 ---------------------------------------------------------------------
      1          1           0        0.000000    0.000000    0.000000
      2          6           0        0.000000    0.000000    1.077238
      3          6           0        1.144805    0.000000    1.918469
      4          6           0       -1.107896    0.011818    1.888316
      5          1           0        2.174756   -0.005239    1.603130
      6          6           0        0.701769    0.011020    3.217418
      7          7           0       -0.670713    0.017325    3.190135
      8          1           0       -2.157791    0.020000    1.649446
      9          1           0        1.244782    0.017112    4.147050
     10          1           0       -1.262748    0.030663    3.999407
 ---------------------------------------------------------------------
                    Distance matrix (angstroms):
                    1          2          3          4          5
     1  H    0.000000
     2  C    1.077238   0.000000
     3  C    2.234077   1.420650   0.000000
     4  C    2.189363   1.373106   2.252935   0.000000
     5  H    2.701780   2.237443   1.077155   3.295061   0.000000
     6  C    3.293080   2.252325   1.372469   2.245307   2.185378
     7  N    3.259926   2.216865   2.216652   1.373278   3.258188
     8  H    2.716088   2.232461   3.313595   1.076756   4.332867
     9  H    4.329873   3.312631   2.230889   3.261443   2.708668
    10  H    4.194130   3.183479   3.182383   2.116847   4.190449
                    6          7          8          9         10
     6  C    0.000000
     7  N    1.372768   0.000000
     8  H    3.261242   2.141291   0.000000
     9  H    1.076623   2.141217   4.220846   0.000000
    10  H    2.114526   1.002798   2.514663   2.511910   0.000000
 Symmetry turned off by external request.
 Stoichiometry    C4H5N
 Framework group  C1[X(C4H5N)]
 Deg. of freedom    24
 Full point group                 C1      NOp   1
 Rotational constants (GHZ):           9.1864094           9.0597706           4.5613337
 Standard basis: def2TZVP (5D, 7F)
 The following finite field(s) will be applied:
 An electric field of             -0.0039 -0.0004  0.0031
   185 basis functions,   295 primitive gaussians,   210 cartesian basis functions
    18 alpha electrons       18 beta electrons
       nuclear repulsion energy       161.2150122268 Hartrees.
 NAtoms=   10 NActive=   10 NUniq=   10 SFac= 1.00D+00 NAtFMM=   60 NAOKFM=F Big=F
 Integral buffers will be    131072 words long.
 Raffenetti 2 integral format.
 Two-electron integral symmetry is turned off.
 One-electron integrals computed using PRISM.
   1 Symmetry operations used in ECPInt.
 ECPInt:  NShTT=    2850 NPrTT=    8640 LenC2=    2844 LenP2D=    7462.
 LDataN:  DoStor=T MaxTD1= 6 Len=  172
 NBasis=   185 RedAO= T EigKep=  5.53D-05  NBF=   185
 NBsUse=   185 1.00D-06 EigRej= -1.00D+00 NBFU=   185
 The nuclear repulsion energy is now       161.7016686128 hartrees.
 Initial guess from the checkpoint file:  "checkpoint.chk"
 B after Tr=    -0.001063    0.000130   -0.000088
         Rot=    1.000000    0.000032   -0.000328    0.000045 Ang=   0.04 deg.
 Keep R1 ints in memory in canonical form, NReq=160464041.
 Requested convergence on RMS density matrix=1.00D-08 within 128 cycles.
 Requested convergence on MAX density matrix=1.00D-06.
 Requested convergence on             energy=1.00D-06.
 No special actions if energy rises.
 SCF Done:  E(RB3LYP) =  -210.250559446     A.U. after    7 cycles
            NFock=  7  Conv=0.57D-08     -V/T= 2.0051
   1 Symmetry operations used in ECPInt.
 ECPInt:  NShTT=    2850 NPrTT=    8640 LenC2=    2844 LenP2D=    7462.
 LDataN:  DoStor=T MaxTD1= 7 Len=  274
 Calling FoFJK, ICntrl=      2127 FMM=F ISym2X=0 I1Cent= 0 IOpClX= 0 NMat=1 NMatS=1 NMatT=0.
 -------------------------------------------------------------------
 Center     Atomic                   Forces (Hartrees/Bohr)
 Number     Number              X              Y              Z
 -------------------------------------------------------------------
      1        1          -0.000479706   -0.000208580   -0.000000004
      2        6           0.000387151    0.000331357   -0.000003800
      3        6           0.000055579   -0.000062412    0.000104866
      4        6           0.000048686   -0.000017411   -0.000072687
      5        1          -0.000009373    0.000001139   -0.000024940
      6        6           0.000054050   -0.000032409   -0.000069594
      7        7          -0.000034533   -0.000022248    0.000061511
      8        1          -0.000005757   -0.000026306    0.000005716
      9        1          -0.000011023   -0.000020708    0.000008026
     10        1          -0.000005073    0.000057578   -0.000009094
 -------------------------------------------------------------------
 Cartesian Forces:  Max     0.000479706 RMS     0.000138931
 -----------------------------------------------------------------------------------------------
                       Internal Coordinate Forces (Hartree/Bohr or radian)
  Cent   Atom   N1       Length/X         N2         Alpha/Y        N3         Beta/Z          J
 -----------------------------------------------------------------------------------------------
      1  H 
      2  C        1   0.000000(     1)
      3  C        2   0.000083(     2)      1  -0.000183(    10)
      4  C        2  -0.000011(     3)      1  -0.000172(    11)      3   0.000035(    18)     0
      5  H        3  -0.000002(     4)      2  -0.000054(    12)      1   0.000149(    19)     0
      6  C        3  -0.000073(     5)      2   0.000027(    13)      5   0.000147(    20)     0
      7  N        4   0.000037(     6)      2   0.000160(    14)      1   0.000160(    21)     0
      8  H        4   0.000004(     7)      2   0.000014(    15)      7   0.000041(    22)     0
      9  H        6   0.000001(     8)      3   0.000027(    16)      2  -0.000032(    23)     0
     10  H        7  -0.000004(     9)      4  -0.000018(    17)      2  -0.000089(    24)     0
 -----------------------------------------------------------------------------------------------
 Internal  Forces:  Max     0.000182732 RMS     0.000088497

 GradGradGradGradGradGradGradGradGradGradGradGradGradGradGradGradGradGrad
 Berny optimization.
 Search for a local minimum.
 Step number   3 out of a maximum of   34
 All quantities printed in internal units (Hartrees-Bohrs-Radians)
 Update second derivatives using D2CorN and points    1    2    3
 DE= -3.72D-07 DEPred=-3.53D-07 R= 1.05D+00
 Trust test= 1.05D+00 RLast= 1.61D-03 DXMaxT set to 1.00D-01
 ITU=  0  1  0
     Eigenvalues ---    0.01905   0.04066   0.06905   0.08628   0.10091
     Eigenvalues ---    0.13961   0.23410   0.23657   0.26006   0.28538
     Eigenvalues ---    0.30332   0.36325   0.36333   0.36414   0.36422
     Eigenvalues ---    0.42687   0.47072   0.49181   0.50722   0.51311
     Eigenvalues ---    0.59574   1.24010   1.88408  24.51148
 RFO step:  Lambda=-3.36937441D-07 EMin= 1.90463150D-02
 Quartic linear search produced a step of -0.01287.
 Variable       Old X    -DE/DX   Delta X   Delta X   Delta X     New X
                                 (Linear)    (Quad)   (Total)
    R2        2.03569   0.00000  -0.00000   0.00001   0.00001   2.03569
    R3        2.68464   0.00008  -0.00000   0.00023   0.00023   2.68487
    R4        2.59479  -0.00001   0.00001  -0.00026  -0.00025   2.59454
    R5        2.03553  -0.00000  -0.00000   0.00000   0.00000   2.03553
    R6        2.59359  -0.00007   0.00000  -0.00018  -0.00018   2.59341
    R7        2.59512   0.00004  -0.00001   0.00020   0.00020   2.59532
    R8        2.03477   0.00000   0.00000   0.00000   0.00000   2.03478
    R9        2.03452   0.00000   0.00000   0.00000   0.00000   2.03453
   R10        1.89501  -0.00000   0.00000  -0.00002  -0.00002   1.89499
    A3        2.20451  -0.00018   0.00001  -0.00047  -0.00046   2.20405
    A4        2.20271  -0.00017  -0.00001   0.00046   0.00045   2.20316
    A5        2.21076  -0.00005   0.00001  -0.00037  -0.00036   2.21040
    A6        1.87580   0.00003  -0.00000   0.00000   0.00000   1.87581
    A7        1.87877   0.00016  -0.00000   0.00005   0.00004   1.87881
    A8        2.28597   0.00001   0.00000   0.00005   0.00005   2.28602
    A9        2.28425   0.00003  -0.00000   0.00009   0.00009   2.28435
   A10        2.18600  -0.00002  -0.00000   0.00001   0.00001   2.18601
    D4        3.13093   0.00004   0.00001  -0.00037  -0.00036   3.13057
    D5       -0.00606   0.00015   0.00000  -0.00053  -0.00052  -0.00659
    D6        3.13924   0.00015   0.00000   0.00044   0.00044   3.13967
    D7        3.14936   0.00016   0.00001   0.00075   0.00075   3.15012
    D8       -3.14565   0.00004  -0.00000  -0.00002  -0.00003  -3.14568
    D9       -3.13853  -0.00003  -0.00001  -0.00021  -0.00022  -3.13875
   D10       -3.14729  -0.00009   0.00000  -0.00180  -0.00179  -3.14908
         Item               Value     Threshold  Converged?
 Maximum Force            0.000183     0.000450     YES
 RMS     Force            0.000088     0.000300     YES
 Maximum Displacement     0.001794     0.001800     YES
 RMS     Displacement     0.000464     0.001200     YES
 Predicted change in Energy=-1.704532D-07
 Optimization completed.
    -- Stationary point found.
                       ----------------------------
                       !   Optimized Parameters   !
                       ! (Angstroms and Degrees)  !
 ----------------------                            ----------------------
 !      Name          Value   Derivative information (Atomic Units)     !
 ------------------------------------------------------------------------
 !       R2          1.0772   -DE/DX =    0.0                           !
 !       R3          1.4207   -DE/DX =    0.0001                        !
 !       R4          1.3731   -DE/DX =    0.0                           !
 !       R5          1.0772   -DE/DX =    0.0                           !
 !       R6          1.3725   -DE/DX =   -0.0001                        !
 !       R7          1.3733   -DE/DX =    0.0                           !
 !       R8          1.0768   -DE/DX =    0.0                           !
 !       R9          1.0766   -DE/DX =    0.0                           !
 !       R10         1.0028   -DE/DX =    0.0                           !
 !       A3        126.3093   -DE/DX =   -0.0002                        !
 !       A4        126.2058   -DE/DX =   -0.0002                        !
 !       A5        126.6672   -DE/DX =   -0.0001                        !
 !       A6        107.4756   -DE/DX =    0.0                           !
 !       A7        107.6453   -DE/DX =    0.0002                        !
 !       A8        130.9767   -DE/DX =    0.0                           !
 !       A9        130.878    -DE/DX =    0.0                           !
 !       A10       125.2486   -DE/DX =    0.0                           !
 !       D4        179.3888   -DE/DX =    0.0                           !
 !       D5         -0.3475   -DE/DX =    0.0001                        !
 !       D6        179.8652   -DE/DX =    0.0001                        !
 !       D7        180.4453   -DE/DX =    0.0002                        !
 !       D8       -180.2326   -DE/DX =    0.0                           !
 !       D9       -179.8246   -DE/DX =    0.0                           !
 !       D10      -180.3264   -DE/DX =   -0.0001                        !
 ------------------------------------------------------------------------
 GradGradGradGradGradGradGradGradGradGradGradGradGradGradGradGradGradGrad

 ---------------------------------------------------------------------------------------------------
                            Z-MATRIX (ANGSTROMS AND DEGREES)
   CD    Cent   Atom    N1       Length/X        N2       Alpha/Y        N3        Beta/Z          J
 ---------------------------------------------------------------------------------------------------
      1      1  H 
      2      2  C        1   1.077238(     1)
      3      3  C        2   1.420650(     2)      1  126.309(    10)
      4      4  C        2   1.373106(     3)      1  126.206(    11)      3  179.389(    18)      0
      5      5  H        3   1.077155(     4)      2  126.667(    12)      1   -0.347(    19)      0
      6      6  C        3   1.372469(     5)      2  107.476(    13)      5  179.865(    20)      0
      7      7  N        4   1.373278(     6)      2  107.645(    14)      1  180.445(    21)      0
      8      8  H        4   1.076756(     7)      2  130.977(    15)      7 -180.233(    22)      0
      9      9  H        6   1.076623(     8)      3  130.878(    16)      2 -179.825(    23)      0
     10     10  H        7   1.002798(     9)      4  125.249(    17)      2 -180.326(    24)      0
 ---------------------------------------------------------------------------------------------------
                         Z-Matrix orientation:                         
 ---------------------------------------------------------------------
 Center     Atomic      Atomic             Coordinates (Angstroms)
 Number     Number       Type             X           Y           Z
 ---------------------------------------------------------------------
      1          1           0        0.000000    0.000000    0.000000
      2          6           0        0.000000    0.000000    1.077238
      3          6           0        1.144805    0.000000    1.918469
      4          6           0       -1.107896    0.011818    1.888316
      5          1           0        2.174756   -0.005239    1.603130
      6          6           0        0.701769    0.011020    3.217418
      7          7           0       -0.670713    0.017325    3.190135
      8          1           0       -2.157791    0.020000    1.649446
      9          1           0        1.244782    0.017112    4.147050
     10          1           0       -1.262748    0.030663    3.999407
 ---------------------------------------------------------------------
                    Distance matrix (angstroms):
                    1          2          3          4          5
     1  H    0.000000
     2  C    1.077238   0.000000
     3  C    2.234077   1.420650   0.000000
     4  C    2.189363   1.373106   2.252935   0.000000
     5  H    2.701780   2.237443   1.077155   3.295061   0.000000
     6  C    3.293080   2.252325   1.372469   2.245307   2.185378
     7  N    3.259926   2.216865   2.216652   1.373278   3.258188
     8  H    2.716088   2.232461   3.313595   1.076756   4.332867
     9  H    4.329873   3.312631   2.230889   3.261443   2.708668
    10  H    4.194130   3.183479   3.182383   2.116847   4.190449
                    6          7          8          9         10
     6  C    0.000000
     7  N    1.372768   0.000000
     8  H    3.261242   2.141291   0.000000
     9  H    1.076623   2.141217   4.220846   0.000000
    10  H    2.114526   1.002798   2.514663   2.511910   0.000000
 Symmetry turned off by external request.
 Stoichiometry    C4H5N
 Framework group  C1[X(C4H5N)]
 Deg. of freedom    24
 Full point group                 C1      NOp   1
 Rotational constants (GHZ):           9.1864094           9.0597706           4.5613337
 1\1\GINC-BHC0068\FOpt\RB3LYP\def2TZVP\C4H5N1\DHANAWAY\10-Jun-2022\1\\#
  Opt=(Z-matrix, MaxStep=10) B3LYP/Def2TZVP geom=allcheckpoint guess=re
 ad Field=read NoSymm freq=noraman pop=none\\int_zmat_initalOpt\\0,1\H\
 C,1,R2\C,2,R3,1,A3\C,2,R4,1,A4,3,D4,0\H,3,R5,2,A5,1,D5,0\C,3,R6,2,A6,5
 ,D6,0\N,4,R7,2,A7,1,D7,0\H,4,R8,2,A8,7,D8,0\H,6,R9,3,A9,2,D9,0\H,7,R10
 ,4,A10,2,D10,0\\R2=1.07723834\R3=1.42065047\R4=1.3731062\R5=1.07715526
 \R6=1.37246928\R7=1.37327817\R8=1.07675585\R9=1.07662307\R10=1.0027980
 6\A3=126.30932833\A4=126.20584322\A5=126.66723236\A6=107.47562664\A7=1
 07.64532591\A8=130.97667584\A9=130.87804293\A10=125.24860141\D4=179.38
 883551\D5=-0.34745224\D6=179.86515741\D7=180.445269\D8=-180.23261684\D
 9=-179.82455683\D10=-180.32641691\\Version=ES64L-G16RevA.03\HF=-210.25
 05594\RMSD=5.720e-09\RMSF=1.389e-04\Dipole=-0.2134957,0.0266858,0.4231
 148\PG=C01 [X(C4H5N1)]\\@


 THERE IS NO SUBJECT, HOWEVER COMPLEX,
 WHICH, IF STUDIED WITH PATIENCE AND INTELLIGIENCE
 WILL NOT BECOME
 MORE COMPLEX
                        QUOTED BY D. GORDON ROHMAN
 Job cpu time:       0 days  0 hours  6 minutes 59.9 seconds.
 Elapsed time:       0 days  0 hours  0 minutes 41.8 seconds.
 File lengths (MBytes):  RWF=     16 Int=      0 D2E=      0 Chk=     32 Scr=      1
 Normal termination of Gaussian 16 at Fri Jun 10 22:31:28 2022.
 Link1:  Proceeding to internal job step number  2.
 --------------------------------------------------------------------
 #N Geom=AllCheck Guess=TCheck SCRF=Check GenChk RB3LYP/def2TZVP Freq
 --------------------------------------------------------------------
 1/8=10,10=4,29=7,30=1,38=1,40=1/1,3;
 2/12=2,15=1,40=1/2;
 3/5=44,7=101,11=2,14=-4,25=1,30=1,70=2,71=2,74=-5,116=1,140=1/1,2,3;
 4/5=101/1;
 5/5=2,38=6,98=1/2;
 8/6=4,10=90,11=11/1;
 11/6=1,8=1,9=11,15=111,16=1,31=1/1,2,10;
 10/6=1,31=1/2;
 7/8=1,10=1,25=1,30=1/1,2,3,16;
 1/8=10,10=4,30=1/3;
 99//99;
 Structure from the checkpoint file:  "checkpoint.chk"
 ------------------
 int_zmat_initalOpt
 ------------------
 Charge =  0 Multiplicity = 1
 Z-Matrix found in chk file.
 H
 C,1,R2
 C,2,R3,1,A3
 C,2,R4,1,A4,3,D4,0
 H,3,R5,2,A5,1,D5,0
 C,3,R6,2,A6,5,D6,0
 N,4,R7,2,A7,1,D7,0
 H,4,R8,2,A8,7,D8,0
 H,6,R9,3,A9,2,D9,0
 H,7,R10,4,A10,2,D10,0
      Variables:
 R2=1.07723834
 R3=1.42065047
 R4=1.3731062
 R5=1.07715526
 R6=1.37246928
 R7=1.37327817
 R8=1.07675585
 R9=1.07662307
 R10=1.00279806
 A3=126.30932833
 A4=126.20584322
 A5=126.66723236
 A6=107.47562664
 A7=107.64532591
 A8=130.97667584
 A9=130.87804293
 A10=125.24860141
 D4=179.38883551
 D5=-0.34745224
 D6=179.86515741
 D7=180.445269
 D8=-180.23261684
 D9=-179.82455683
 D10=-180.32641691
 Recover connectivity data from disk.

 GradGradGradGradGradGradGradGradGradGradGradGradGradGradGradGradGradGrad
 Berny optimization.
 Initialization pass.
                       ----------------------------
                       !    Initial Parameters    !
                       ! (Angstroms and Degrees)  !
 ----------------------                            ----------------------
 !      Name          Value   Derivative information (Atomic Units)     !
 ------------------------------------------------------------------------
 !       R2          1.0772   calculate D2E/DX2 analytically            !
 !       R3          1.4207   calculate D2E/DX2 analytically            !
 !       R4          1.3731   calculate D2E/DX2 analytically            !
 !       R5          1.0772   calculate D2E/DX2 analytically            !
 !       R6          1.3725   calculate D2E/DX2 analytically            !
 !       R7          1.3733   calculate D2E/DX2 analytically            !
 !       R8          1.0768   calculate D2E/DX2 analytically            !
 !       R9          1.0766   calculate D2E/DX2 analytically            !
 !       R10         1.0028   calculate D2E/DX2 analytically            !
 !       A3        126.3093   calculate D2E/DX2 analytically            !
 !       A4        126.2058   calculate D2E/DX2 analytically            !
 !       A5        126.6672   calculate D2E/DX2 analytically            !
 !       A6        107.4756   calculate D2E/DX2 analytically            !
 !       A7        107.6453   calculate D2E/DX2 analytically            !
 !       A8        130.9767   calculate D2E/DX2 analytically            !
 !       A9        130.878    calculate D2E/DX2 analytically            !
 !       A10       125.2486   calculate D2E/DX2 analytically            !
 !       D4        179.3888   calculate D2E/DX2 analytically            !
 !       D5         -0.3475   calculate D2E/DX2 analytically            !
 !       D6        179.8652   calculate D2E/DX2 analytically            !
 !       D7        180.4453   calculate D2E/DX2 analytically            !
 !       D8       -180.2326   calculate D2E/DX2 analytically            !
 !       D9       -179.8246   calculate D2E/DX2 analytically            !
 !       D10      -180.3264   calculate D2E/DX2 analytically            !
 ------------------------------------------------------------------------
 Trust Radius=1.00D-01 FncErr=1.00D-07 GrdErr=1.00D-07 EigMax=2.50D+02 EigMin=1.00D-04
 Number of steps in this run=      2 maximum allowed number of steps=      2.
 GradGradGradGradGradGradGradGradGradGradGradGradGradGradGradGradGradGrad

                          Input orientation:                          
 ---------------------------------------------------------------------
 Center     Atomic      Atomic             Coordinates (Angstroms)
 Number     Number       Type             X           Y           Z
 ---------------------------------------------------------------------
      1          1           0        0.000000    0.000000    0.000000
      2          6           0        0.000000    0.000000    1.077238
      3          6           0        1.144805    0.000000    1.918469
      4          6           0       -1.107896    0.011818    1.888316
      5          1           0        2.174756   -0.005239    1.603130
      6          6           0        0.701769    0.011020    3.217418
      7          7           0       -0.670713    0.017325    3.190135
      8          1           0       -2.157791    0.020000    1.649446
      9          1           0        1.244782    0.017112    4.147050
     10          1           0       -1.262748    0.030663    3.999407
 ---------------------------------------------------------------------
                    Distance matrix (angstroms):
                    1          2          3          4          5
     1  H    0.000000
     2  C    1.077238   0.000000
     3  C    2.234077   1.420650   0.000000
     4  C    2.189363   1.373106   2.252935   0.000000
     5  H    2.701780   2.237443   1.077155   3.295061   0.000000
     6  C    3.293080   2.252325   1.372469   2.245307   2.185378
     7  N    3.259926   2.216865   2.216652   1.373278   3.258188
     8  H    2.716088   2.232461   3.313595   1.076756   4.332867
     9  H    4.329873   3.312631   2.230889   3.261443   2.708668
    10  H    4.194130   3.183479   3.182383   2.116847   4.190449
                    6          7          8          9         10
     6  C    0.000000
     7  N    1.372768   0.000000
     8  H    3.261242   2.141291   0.000000
     9  H    1.076623   2.141217   4.220846   0.000000
    10  H    2.114526   1.002798   2.514663   2.511910   0.000000
 Symmetry turned off by external request.
 Stoichiometry    C4H5N
 Framework group  C1[X(C4H5N)]
 Deg. of freedom    24
 Full point group                 C1      NOp   1
 Rotational constants (GHZ):           9.1864094           9.0597706           4.5613337
 Standard basis: def2TZVP (5D, 7F)
 The following finite field(s) will be applied:
 An electric field of             -0.0039 -0.0004  0.0031
   185 basis functions,   295 primitive gaussians,   210 cartesian basis functions
    18 alpha electrons       18 beta electrons
       nuclear repulsion energy       161.2150122268 Hartrees.
 NAtoms=   10 NActive=   10 NUniq=   10 SFac= 1.00D+00 NAtFMM=   60 NAOKFM=F Big=F
 Integral buffers will be    131072 words long.
 Raffenetti 2 integral format.
 Two-electron integral symmetry is turned off.
 One-electron integrals computed using PRISM.
   1 Symmetry operations used in ECPInt.
 ECPInt:  NShTT=    2850 NPrTT=    8640 LenC2=    2844 LenP2D=    7462.
 LDataN:  DoStor=T MaxTD1= 6 Len=  172
 NBasis=   185 RedAO= T EigKep=  5.53D-05  NBF=   185
 NBsUse=   185 1.00D-06 EigRej= -1.00D+00 NBFU=   185
 The nuclear repulsion energy is now       161.7016686128 hartrees.
 Initial guess from the checkpoint file:  "checkpoint.chk"
 B after Tr=     0.000000    0.000000    0.000000
         Rot=    1.000000    0.000000    0.000000    0.000000 Ang=   0.00 deg.
 Keep R1 ints in memory in canonical form, NReq=160464041.
 Requested convergence on RMS density matrix=1.00D-08 within 128 cycles.
 Requested convergence on MAX density matrix=1.00D-06.
 Requested convergence on             energy=1.00D-06.
 No special actions if energy rises.
 SCF Done:  E(RB3LYP) =  -210.250559446     A.U. after    1 cycles
            NFock=  1  Conv=0.41D-08     -V/T= 2.0051
 DoSCS=F DFT=T ScalE2(SS,OS)=  1.000000  1.000000
 Range of M.O.s used for correlation:     1   185
 NBasis=   185 NAE=    18 NBE=    18 NFC=     0 NFV=     0
 NROrb=    185 NOA=    18 NOB=    18 NVA=   167 NVB=   167

 **** Warning!!: The largest alpha MO coefficient is  0.36144399D+02

   1 Symmetry operations used in ECPInt.
 ECPInt:  NShTT=    2850 NPrTT=    8640 LenC2=    2844 LenP2D=    7462.
 LDataN:  DoStor=T MaxTD1= 7 Len=  274
 Symmetrizing basis deriv contribution to polar:
 IMax=3 JMax=2 DiffMx= 0.00D+00
 G2DrvN: will do    11 centers at a time, making    1 passes.
 Calling FoFCou, ICntrl=  3107 FMM=F I1Cent=   0 AccDes= 0.00D+00.
 End of G2Drv F.D. properties file   721 does not exist.
 End of G2Drv F.D. properties file   722 does not exist.
 End of G2Drv F.D. properties file   788 does not exist.
          IDoAtm=1111111111
          Differentiating once with respect to electric field.
                with respect to dipole field.
          Differentiating once with respect to nuclear coordinates.
 Keep R1 ints in memory in canonical form, NReq=160431847.
          There are    33 degrees of freedom in the 1st order CPHF.  IDoFFX=6 NUNeed=     3.
     30 vectors produced by pass  0 Test12= 9.11D-15 3.03D-09 XBig12= 6.06D+01 4.53D+00.
 AX will form    30 AO Fock derivatives at one time.
     30 vectors produced by pass  1 Test12= 9.11D-15 3.03D-09 XBig12= 1.03D+01 6.80D-01.
     30 vectors produced by pass  2 Test12= 9.11D-15 3.03D-09 XBig12= 9.69D-02 8.17D-02.
     30 vectors produced by pass  3 Test12= 9.11D-15 3.03D-09 XBig12= 2.27D-04 2.38D-03.
     30 vectors produced by pass  4 Test12= 9.11D-15 3.03D-09 XBig12= 3.35D-07 1.75D-04.
     26 vectors produced by pass  5 Test12= 9.11D-15 3.03D-09 XBig12= 5.62D-10 5.57D-06.
      6 vectors produced by pass  6 Test12= 9.11D-15 3.03D-09 XBig12= 8.87D-13 2.56D-07.
      1 vectors produced by pass  7 Test12= 9.11D-15 3.03D-09 XBig12= 1.00D-15 7.21D-09.
 InvSVY:  IOpt=1 It=  1 EMax= 1.23D-15
 Solved reduced A of dimension   183 with    33 vectors.
 Isotropic polarizability for W=    0.000000       49.85 Bohr**3.
 End of Minotr F.D. properties file   721 does not exist.
 End of Minotr F.D. properties file   722 does not exist.
 End of Minotr F.D. properties file   788 does not exist.
   1 Symmetry operations used in ECPInt.
 ECPInt:  NShTT=    2850 NPrTT=    8640 LenC2=    2844 LenP2D=    7462.
 LDataN:  DoStor=T MaxTD1= 8 Len=  415
 Calling FoFJK, ICntrl=    100127 FMM=F ISym2X=0 I1Cent= 0 IOpClX= 0 NMat=1 NMatS=1 NMatT=0.
 Full mass-weighted force constant matrix:
 Low frequencies ---  -19.1867  -15.3196   -9.6949   -0.0007   -0.0003   -0.0003
 Low frequencies ---  398.5464  627.0739  637.9685
 Diagonal vibrational polarizability:
        1.0585272      19.9089706       1.1752761
 Harmonic frequencies (cm**-1), IR intensities (KM/Mole), Raman scattering
 activities (A**4/AMU), depolarization ratios for plane and unpolarized
 incident light, reduced masses (AMU), force constants (mDyne/A),
 and normal coordinates:
                      1                      2                      3
                      A                      A                      A
 Frequencies --    398.4996               627.0739               637.9684
 Red. masses --      1.3839                 3.1902                 2.4408
 Frc consts  --      0.1295                 0.7391                 0.5853
 IR Inten    --     69.6482                 0.0097                 0.1844
  Atom  AN      X      Y      Z        X      Y      Z        X      Y      Z
     1   1    -0.00  -0.09  -0.00    -0.00  -0.51   0.00    -0.00  -0.05  -0.00
     2   6    -0.00   0.01  -0.00    -0.00  -0.27   0.00     0.00   0.10  -0.00
     3   6     0.00   0.01   0.00     0.00   0.27  -0.00     0.00   0.09  -0.00
     4   6     0.00   0.04  -0.00     0.00   0.16  -0.00    -0.00  -0.19   0.00
     5   1    -0.00  -0.08   0.00     0.00   0.51  -0.00     0.00  -0.04   0.00
     6   6     0.00   0.04  -0.00    -0.00  -0.16   0.00    -0.00  -0.19   0.00
     7   7    -0.00  -0.16   0.00    -0.00   0.00  -0.00     0.00   0.18  -0.00
     8   1     0.00   0.09  -0.00     0.00   0.36  -0.00    -0.00  -0.48   0.00
     9   1     0.00   0.10  -0.00    -0.00  -0.39   0.00    -0.00  -0.45   0.00
    10   1     0.01   0.97  -0.01     0.00   0.01   0.00     0.00   0.66  -0.01
                      4                      5                      6
                      A                      A                      A
 Frequencies --    672.3857               726.2927               828.3655
 Red. masses --      1.2932                 1.2054                 1.2203
 Frc consts  --      0.3445                 0.3746                 0.4933
 IR Inten    --      2.0722               150.8059                 7.2145
  Atom  AN      X      Y      Z        X      Y      Z        X      Y      Z
     1   1     0.00   0.26   0.00     0.00   0.41  -0.00     0.00   0.61  -0.00
     2   6    -0.00  -0.02   0.00    -0.00  -0.02   0.00    -0.00  -0.09  -0.00
     3   6     0.00   0.03  -0.00    -0.00  -0.03   0.00    -0.00  -0.07   0.00
     4   6    -0.00  -0.12   0.00    -0.00  -0.07   0.00     0.00   0.06  -0.00
     5   1    -0.00  -0.19   0.00     0.00   0.48  -0.00     0.00   0.48  -0.00
     6   6     0.00   0.10  -0.00    -0.00  -0.10   0.00     0.00   0.06  -0.00
     7   7     0.00   0.01   0.00     0.00   0.04  -0.00    -0.00   0.00   0.00
     8   1     0.01   0.73  -0.00     0.00   0.45  -0.00    -0.00  -0.41   0.00
     9   1    -0.00  -0.58   0.01     0.00   0.60  -0.01    -0.00  -0.42   0.00
    10   1    -0.00   0.02  -0.00     0.00   0.16  -0.00    -0.00   0.15  -0.00
                      7                      8                      9
                      A                      A                      A
 Frequencies --    878.3659               888.0197               904.5812
 Red. masses --      5.0817                 1.2987                 4.0914
 Frc consts  --      2.3100                 0.6034                 1.9725
 IR Inten    --      1.8861                 0.0372                 0.5140
  Atom  AN      X      Y      Z        X      Y      Z        X      Y      Z
     1   1    -0.12  -0.06   0.35     0.00  -0.62  -0.01    -0.36  -0.01  -0.10
     2   6     0.04   0.01   0.35    -0.00   0.10  -0.01     0.10   0.00  -0.10
     3   6     0.35  -0.02  -0.07    -0.01  -0.12   0.00     0.05  -0.00  -0.12
     4   6    -0.23  -0.00   0.03     0.01  -0.03  -0.00     0.23  -0.00   0.10
     5   1     0.32   0.08  -0.19    -0.01   0.71  -0.00     0.19   0.00   0.32
     6   6    -0.05   0.00  -0.23     0.00   0.04   0.01    -0.17  -0.00  -0.17
     7   7    -0.10  -0.00  -0.06     0.00  -0.00   0.00    -0.19   0.00   0.26
     8   1    -0.15   0.01  -0.31     0.00   0.17   0.01     0.32   0.00  -0.28
     9   1    -0.33  -0.03  -0.07     0.01  -0.25   0.00     0.18  -0.00  -0.38
    10   1     0.27   0.00   0.20    -0.01   0.01  -0.01    -0.20  -0.00   0.26
                     10                     11                     12
                      A                      A                      A
 Frequencies --   1036.1891              1068.4409              1089.3097
 Red. masses --      1.4619                 1.4182                 1.5693
 Frc consts  --      0.9248                 0.9538                 1.0971
 IR Inten    --     33.9429                29.5840                 5.4532
  Atom  AN      X      Y      Z        X      Y      Z        X      Y      Z
     1   1     0.55  -0.00   0.08     0.56  -0.00  -0.05    -0.44   0.00  -0.03
     2   6     0.06   0.00   0.08     0.04  -0.00  -0.05    -0.09   0.00  -0.02
     3   6    -0.09   0.00  -0.03    -0.03   0.00   0.04     0.04   0.00   0.09
     4   6    -0.03  -0.00  -0.07    -0.10   0.00  -0.02    -0.07  -0.00  -0.11
     5   1    -0.24  -0.00  -0.48     0.10   0.00   0.50     0.17   0.00   0.49
     6   6     0.07  -0.00   0.00    -0.07  -0.00  -0.09     0.12  -0.00   0.02
     7   7    -0.06   0.00   0.08     0.06  -0.00   0.04    -0.01   0.00   0.03
     8   1     0.05  -0.00  -0.42    -0.18   0.00   0.28     0.01  -0.00  -0.48
     9   1     0.38  -0.00  -0.17     0.15  -0.00  -0.22     0.47  -0.00  -0.18
    10   1    -0.05   0.00   0.09     0.36   0.00   0.26     0.01  -0.00   0.05
                     13                     14                     15
                      A                      A                      A
 Frequencies --   1153.5341              1173.1765              1315.6111
 Red. masses --      1.2470                 3.4475                 1.3667
 Frc consts  --      0.9776                 2.7957                 1.3938
 IR Inten    --      0.8739                 4.8477                 0.7910
  Atom  AN      X      Y      Z        X      Y      Z        X      Y      Z
     1   1    -0.15   0.00  -0.03    -0.29   0.00   0.27     0.49  -0.00  -0.00
     2   6    -0.01  -0.00  -0.03     0.02   0.00   0.24    -0.08   0.00  -0.00
     3   6    -0.03   0.00  -0.00    -0.23   0.00   0.05    -0.03  -0.00  -0.07
     4   6     0.01  -0.00  -0.06     0.15  -0.00   0.06    -0.00   0.00   0.10
     5   1    -0.07  -0.00  -0.13    -0.16   0.00   0.38     0.14   0.00   0.47
     6   6    -0.06   0.00   0.03    -0.10  -0.00  -0.13     0.10  -0.00  -0.03
     7   7     0.08  -0.00   0.06     0.12  -0.00  -0.17    -0.00  -0.00  -0.00
     8   1     0.11  -0.00  -0.49     0.27  -0.00  -0.34     0.12  -0.00  -0.43
     9   1    -0.44   0.00   0.25     0.27  -0.00  -0.38    -0.38   0.00   0.25
    10   1     0.52  -0.00   0.38     0.13  -0.00  -0.20    -0.23   0.00  -0.17
                     16                     17                     18
                      A                      A                      A
 Frequencies --   1417.8986              1447.1782              1497.2771
 Red. masses --      4.2090                 2.9166                 2.6362
 Frc consts  --      4.9857                 3.5989                 3.4820
 IR Inten    --      4.3118                 5.9527                 7.0222
  Atom  AN      X      Y      Z        X      Y      Z        X      Y      Z
     1   1    -0.55   0.00   0.05     0.06   0.00   0.09     0.19  -0.00  -0.14
     2   6     0.33  -0.00   0.05    -0.08   0.00   0.08    -0.00  -0.00  -0.11
     3   6    -0.14  -0.00  -0.30     0.06  -0.00  -0.08     0.11  -0.00  -0.03
     4   6    -0.19   0.00   0.00    -0.02  -0.00  -0.17    -0.09   0.00   0.21
     5   1     0.12   0.00   0.55     0.09  -0.00   0.00     0.07  -0.00  -0.23
     6   6     0.04   0.00   0.18    -0.17   0.00   0.02    -0.18   0.00   0.15
     7   7     0.01  -0.00   0.01     0.23  -0.00   0.17     0.07  -0.00  -0.09
     8   1    -0.21   0.00   0.00    -0.06  -0.00  -0.02     0.09  -0.00  -0.60
     9   1     0.05   0.00   0.21    -0.04   0.00  -0.07     0.54  -0.00  -0.26
    10   1    -0.05   0.00  -0.02    -0.73   0.00  -0.53     0.07  -0.00  -0.11
                     19                     20                     21
                      A                      A                      A
 Frequencies --   1577.8737              3240.7616              3249.1932
 Red. masses --      3.1004                 1.0880                 1.0920
 Frc consts  --      4.5479                 6.7324                 6.7921
 IR Inten    --      2.3745                 0.2574                 1.1641
  Atom  AN      X      Y      Z        X      Y      Z        X      Y      Z
     1   1    -0.35   0.00  -0.15    -0.00   0.00   0.68    -0.00  -0.00  -0.34
     2   6     0.19  -0.00  -0.12     0.00  -0.00  -0.06     0.00   0.00   0.03
     3   6    -0.06   0.00   0.22    -0.04   0.00   0.01    -0.05   0.00   0.01
     4   6    -0.16   0.00   0.11     0.04  -0.00   0.01    -0.04   0.00  -0.01
     5   1    -0.24  -0.00  -0.29     0.48  -0.00  -0.15     0.59  -0.00  -0.18
     6   6     0.06  -0.00  -0.19     0.01   0.00   0.02     0.02   0.00   0.04
     7   7     0.08  -0.00   0.06    -0.00   0.00   0.00     0.00  -0.00  -0.00
     8   1    -0.10  -0.00  -0.31    -0.44   0.00  -0.10     0.47  -0.00   0.11
     9   1    -0.34   0.00  -0.00    -0.13  -0.00  -0.23    -0.26  -0.00  -0.45
    10   1    -0.45   0.00  -0.33     0.01  -0.00   0.00    -0.01   0.00   0.01
                     22                     23                     24
                      A                      A                      A
 Frequencies --   3260.0170              3267.8242              3674.2206
 Red. masses --      1.1000                 1.1068                 1.0801
 Frc consts  --      6.8877                 6.9635                 8.5908
 IR Inten    --      4.1767                 0.5460                43.5871
  Atom  AN      X      Y      Z        X      Y      Z        X      Y      Z
     1   1    -0.00   0.00   0.48    -0.00  -0.00  -0.43     0.00  -0.00  -0.00
     2   6     0.00  -0.00  -0.04     0.00   0.00   0.04    -0.00   0.00   0.00
     3   6    -0.02   0.00   0.01    -0.05   0.00   0.02    -0.00   0.00   0.00
     4   6    -0.06   0.00  -0.01     0.03  -0.00   0.01     0.00  -0.00   0.00
     5   1     0.20  -0.00  -0.07     0.54  -0.00  -0.17     0.00  -0.00  -0.00
     6   6    -0.02  -0.00  -0.04    -0.03  -0.00  -0.05    -0.00  -0.00  -0.00
     7   7     0.00   0.00   0.00     0.00   0.00  -0.00     0.04  -0.00  -0.06
     8   1     0.63  -0.00   0.14    -0.36   0.00  -0.08    -0.01   0.00  -0.00
     9   1     0.27   0.00   0.47     0.30   0.00   0.52     0.01   0.00   0.01
    10   1    -0.01   0.00  -0.00     0.01  -0.00  -0.02    -0.59   0.01   0.80

 -------------------
 - Thermochemistry -
 -------------------
 Temperature   298.150 Kelvin.  Pressure   1.00000 Atm.
 Atom     1 has atomic number  1 and mass   1.00783
 Atom     2 has atomic number  6 and mass  12.00000
 Atom     3 has atomic number  6 and mass  12.00000
 Atom     4 has atomic number  6 and mass  12.00000
 Atom     5 has atomic number  1 and mass   1.00783
 Atom     6 has atomic number  6 and mass  12.00000
 Atom     7 has atomic number  7 and mass  14.00307
 Atom     8 has atomic number  1 and mass   1.00783
 Atom     9 has atomic number  1 and mass   1.00783
 Atom    10 has atomic number  1 and mass   1.00783
 Molecular mass:    67.04220 amu.
 Principal axes and moments of inertia in atomic units:
                           1         2         3
     Eigenvalues --   196.45774 199.20385 395.66086
           X           -0.59983   0.80011   0.00529
           Y            0.00835  -0.00036   0.99997
           Z            0.80008   0.59986  -0.00647
 This molecule is an asymmetric top.
 Rotational symmetry number  1.
 Rotational temperatures (Kelvin)      0.44088     0.43480     0.21891
 Rotational constants (GHZ):           9.18641     9.05977     4.56133
 Zero-point vibrational energy     215507.6 (Joules/Mol)
                                   51.50755 (Kcal/Mol)
 Warning -- explicit consideration of   1 degrees of freedom as
           vibrations may cause significant error
 Vibrational temperatures:    573.35   902.22   917.89   967.41  1044.97
          (Kelvin)           1191.83  1263.77  1277.66  1301.49  1490.84
                             1537.25  1567.27  1659.68  1687.94  1892.87
                             2040.04  2082.17  2154.25  2270.21  4662.73
                             4674.86  4690.44  4701.67  5286.38
 
 Zero-point correction=                           0.082083 (Hartree/Particle)
 Thermal correction to Energy=                    0.086134
 Thermal correction to Enthalpy=                  0.087079
 Thermal correction to Gibbs Free Energy=         0.055639
 Sum of electronic and zero-point Energies=           -210.168477
 Sum of electronic and thermal Energies=              -210.164425
 Sum of electronic and thermal Enthalpies=            -210.163481
 Sum of electronic and thermal Free Energies=         -210.194920
 
                     E (Thermal)             CV                S
                      KCal/Mol        Cal/Mol-Kelvin    Cal/Mol-Kelvin
 Total                   54.050             15.031             66.169
 Electronic               0.000              0.000              0.000
 Translational            0.889              2.981             38.526
 Rotational               0.889              2.981             24.252
 Vibrational             52.273              9.069              3.391
 Vibration     1          0.765              1.473              0.968
                       Q            Log10(Q)             Ln(Q)
 Total Bot       0.255654D-25        -25.592347        -58.928557
 Total V=0       0.145531D+13         12.162954         28.006237
 Vib (Bot)       0.266003D-37        -37.575114        -86.519897
 Vib (Bot)    1  0.447759D+00         -0.348956         -0.803501
 Vib (V=0)       0.151421D+01          0.180187          0.414896
 Vib (V=0)    1  0.117118D+01          0.068625          0.158015
 Electronic      0.100000D+01          0.000000          0.000000
 Translational   0.215763D+08          7.333976         16.887104
 Rotational      0.445441D+05          4.648791         10.704236
 -------------------------------------------------------------------
 Center     Atomic                   Forces (Hartrees/Bohr)
 Number     Number              X              Y              Z
 -------------------------------------------------------------------
      1        1          -0.000479717   -0.000208582   -0.000000023
      2        6           0.000387291    0.000331351   -0.000003866
      3        6           0.000055553   -0.000062413    0.000105047
      4        6           0.000048614   -0.000017402   -0.000072707
      5        1          -0.000009419    0.000001137   -0.000024940
      6        6           0.000054074   -0.000032404   -0.000069706
      7        7          -0.000034313   -0.000022248    0.000061670
      8        1          -0.000005876   -0.000026304    0.000005683
      9        1          -0.000011090   -0.000020709    0.000007936
     10        1          -0.000005116    0.000057573   -0.000009094
 -------------------------------------------------------------------
 Cartesian Forces:  Max     0.000479717 RMS     0.000138951
 -----------------------------------------------------------------------------------------------
                       Internal Coordinate Forces (Hartree/Bohr or radian)
  Cent   Atom   N1       Length/X         N2         Alpha/Y        N3         Beta/Z          J
 -----------------------------------------------------------------------------------------------
      1  H 
      2  C        1   0.000000(     1)
      3  C        2   0.000083(     2)      1  -0.000182(    10)
      4  C        2  -0.000011(     3)      1  -0.000172(    11)      3   0.000035(    18)     0
      5  H        3  -0.000002(     4)      2  -0.000054(    12)      1   0.000149(    19)     0
      6  C        3  -0.000073(     5)      2   0.000027(    13)      5   0.000147(    20)     0
      7  N        4   0.000037(     6)      2   0.000159(    14)      1   0.000160(    21)     0
      8  H        4   0.000004(     7)      2   0.000014(    15)      7   0.000041(    22)     0
      9  H        6   0.000001(     8)      3   0.000027(    16)      2  -0.000032(    23)     0
     10  H        7  -0.000004(     9)      4  -0.000018(    17)      2  -0.000089(    24)     0
 -----------------------------------------------------------------------------------------------
 Internal  Forces:  Max     0.000182326 RMS     0.000088408

 GradGradGradGradGradGradGradGradGradGradGradGradGradGradGradGradGradGrad
 Berny optimization.
 Search for a local minimum.
 Step number   1 out of a maximum of    2
 All quantities printed in internal units (Hartrees-Bohrs-Radians)
 Second derivative matrix not updated -- analytic derivatives used.
 ITU=  0
     Eigenvalues ---    0.01220   0.01435   0.02930   0.03187   0.04366
     Eigenvalues ---    0.09773   0.16851   0.18066   0.19908   0.21011
     Eigenvalues ---    0.32189   0.36500   0.37048   0.37152   0.37278
     Eigenvalues ---    0.37758   0.40196   0.45538   0.47914   0.50533
     Eigenvalues ---    0.60211   1.58653   2.27604  19.90077
 Angle between quadratic step and forces=  76.47 degrees.
 Linear search not attempted -- first point.
 Variable       Old X    -DE/DX   Delta X   Delta X   Delta X     New X
                                 (Linear)    (Quad)   (Total)
    R2        2.03569   0.00000   0.00000  -0.00000  -0.00000   2.03568
    R3        2.68464   0.00008   0.00000   0.00023   0.00023   2.68487
    R4        2.59479  -0.00001   0.00000  -0.00018  -0.00018   2.59462
    R5        2.03553  -0.00000   0.00000  -0.00001  -0.00001   2.03552
    R6        2.59359  -0.00007   0.00000  -0.00015  -0.00015   2.59344
    R7        2.59512   0.00004   0.00000   0.00012   0.00012   2.59524
    R8        2.03477   0.00000   0.00000   0.00002   0.00002   2.03479
    R9        2.03452   0.00000   0.00000   0.00001   0.00001   2.03453
   R10        1.89501  -0.00000   0.00000  -0.00001  -0.00001   1.89500
    A3        2.20451  -0.00018   0.00000  -0.00011  -0.00011   2.20440
    A4        2.20271  -0.00017   0.00000   0.00011   0.00011   2.20282
    A5        2.21076  -0.00005   0.00000  -0.00028  -0.00028   2.21048
    A6        1.87580   0.00003   0.00000  -0.00003  -0.00003   1.87577
    A7        1.87877   0.00016   0.00000   0.00005   0.00005   1.87881
    A8        2.28597   0.00001   0.00000   0.00006   0.00006   2.28604
    A9        2.28425   0.00003   0.00000   0.00012   0.00012   2.28437
   A10        2.18600  -0.00002   0.00000  -0.00005  -0.00005   2.18595
    D4        3.13093   0.00004   0.00000   0.00123   0.00123   3.13215
    D5       -0.00606   0.00015   0.00000   0.00049   0.00049  -0.00558
    D6        3.13924   0.00015   0.00000   0.00056   0.00056   3.13980
    D7        3.14936   0.00016   0.00000  -0.00126  -0.00126   3.14810
    D8       -3.14565   0.00004   0.00000   0.00099   0.00099  -3.14466
    D9       -3.13853  -0.00003   0.00000  -0.00034  -0.00034  -3.13887
   D10       -3.14729  -0.00009   0.00000  -0.00552  -0.00552  -3.15281
         Item               Value     Threshold  Converged?
 Maximum Force            0.000182     0.000450     YES
 RMS     Force            0.000088     0.000300     YES
 Maximum Displacement     0.005518     0.001800     NO 
 RMS     Displacement     0.001215     0.001200     NO 
 Predicted change in Energy=-3.015564D-07
                       ----------------------------
                       ! Non-Optimized Parameters !
                       ! (Angstroms and Degrees)  !
 ----------------------                            ----------------------
 !      Name          Value   Derivative information (Atomic Units)     !
 ------------------------------------------------------------------------
 !       R2          1.0772   -DE/DX =    0.0                           !
 !       R3          1.4208   -DE/DX =    0.0001                        !
 !       R4          1.373    -DE/DX =    0.0                           !
 !       R5          1.0772   -DE/DX =    0.0                           !
 !       R6          1.3724   -DE/DX =   -0.0001                        !
 !       R7          1.3733   -DE/DX =    0.0                           !
 !       R8          1.0768   -DE/DX =    0.0                           !
 !       R9          1.0766   -DE/DX =    0.0                           !
 !       R10         1.0028   -DE/DX =    0.0                           !
 !       A3        126.303    -DE/DX =   -0.0002                        !
 !       A4        126.2121   -DE/DX =   -0.0002                        !
 !       A5        126.651    -DE/DX =   -0.0001                        !
 !       A6        107.4739   -DE/DX =    0.0                           !
 !       A7        107.648    -DE/DX =    0.0002                        !
 !       A8        130.9802   -DE/DX =    0.0                           !
 !       A9        130.885    -DE/DX =    0.0                           !
 !       A10       125.2455   -DE/DX =    0.0                           !
 !       D4        179.4591   -DE/DX =    0.0                           !
 !       D5         -0.3197   -DE/DX =    0.0001                        !
 !       D6        179.8971   -DE/DX =    0.0001                        !
 !       D7        180.3729   -DE/DX =    0.0002                        !
 !       D8       -180.1757   -DE/DX =    0.0                           !
 !       D9       -179.844    -DE/DX =    0.0                           !
 !       D10      -180.6426   -DE/DX =   -0.0001                        !
 ------------------------------------------------------------------------
 GradGradGradGradGradGradGradGradGradGradGradGradGradGradGradGradGradGrad


 ----------------------------------------------------------------------

 Electric dipole moment (input orientation):
 (Debye = 10**-18 statcoulomb cm , SI units = C m)
                  (au)            (Debye)         (10**-30 SI)
   Tot        0.474677D+00      0.120651D+01      0.402448D+01
   x         -0.213492D+00     -0.542642D+00     -0.181006D+01
   y          0.266846D-01      0.678255D-01      0.226242D+00
   z          0.423117D+00      0.107546D+01      0.358733D+01

 Dipole polarizability, Alpha (input orientation).
 (esu units = cm**3 , SI units = C**2 m**2 J**-1)
 Alpha(0;0):
               (au)            (10**-24 esu)      (10**-40 SI)
   iso        0.498498D+02      0.738698D+01      0.821912D+01
   aniso      0.256409D+02      0.379959D+01      0.422761D+01
   xx         0.587251D+02      0.870216D+01      0.968246D+01
   yx        -0.134175D+00     -0.198827D-01     -0.221225D-01
   yy         0.327988D+02      0.486028D+01      0.540779D+01
   zx         0.965069D+00      0.143009D+00      0.159118D+00
   zy         0.165474D+00      0.245207D-01      0.272830D-01
   zz         0.580255D+02      0.859849D+01      0.956711D+01

 ----------------------------------------------------------------------

 Dipole orientation:
     1          0.00000000          0.00000000          0.00000000
     6          0.91557405         -0.11443874          1.81456418
     6          3.56255133         -0.17488557          2.25858108
     6         -0.26447557         -0.20629400          4.12367760
     1          5.03256601         -0.12525219          0.85146723
     6          3.91916609         -0.30328016          4.82432761
     7          1.57991264         -0.32315710          5.94555056
     1         -2.23910946         -0.19200420          4.61451434
     1          5.62583826         -0.37682759          5.92938128
     1          1.26894311         -0.39892167          7.81333924

 Electric dipole moment (dipole orientation):
 (Debye = 10**-18 statcoulomb cm , SI units = C m)
                  (au)            (Debye)         (10**-30 SI)
   Tot        0.474677D+00      0.120651D+01      0.402448D+01
   x          0.000000D+00      0.000000D+00      0.000000D+00
   y          0.000000D+00      0.000000D+00      0.000000D+00
   z          0.474677D+00      0.120651D+01      0.402448D+01

 Dipole polarizability, Alpha (dipole orientation).
 (esu units = cm**3 , SI units = C**2 m**2 J**-1)
 Alpha(0;0):
               (au)            (10**-24 esu)      (10**-40 SI)
   iso        0.498498D+02      0.738698D+01      0.821912D+01
   aniso      0.256409D+02      0.379959D+01      0.422761D+01
   xx         0.593530D+02      0.879521D+01      0.978599D+01
   yx        -0.416436D+00     -0.617095D-01     -0.686610D-01
   yy         0.328595D+02      0.486928D+01      0.541781D+01
   zx         0.273274D+00      0.404950D-01      0.450567D-01
   zy        -0.117721D+01     -0.174445D+00     -0.194096D+00
   zz         0.573368D+02      0.849644D+01      0.945357D+01

 ----------------------------------------------------------------------
 1\1\GINC-BHC0068\Freq\RB3LYP\def2TZVP\C4H5N1\DHANAWAY\10-Jun-2022\1\\#
 N Geom=AllCheck Guess=TCheck SCRF=Check GenChk RB3LYP/def2TZVP Freq\\i
 nt_zmat_initalOpt\\0,1\H\C,1,R2\C,2,R3,1,A3\C,2,R4,1,A4,3,D4,0\H,3,R5,
 2,A5,1,D5,0\C,3,R6,2,A6,5,D6,0\N,4,R7,2,A7,1,D7,0\H,4,R8,2,A8,7,D8,0\H
 ,6,R9,3,A9,2,D9,0\H,7,R10,4,A10,2,D10,0\\R2=1.07723834\R3=1.42065047\R
 4=1.3731062\R5=1.07715526\R6=1.37246928\R7=1.37327817\R8=1.07675585\R9
 =1.07662307\R10=1.00279806\A3=126.30932833\A4=126.20584322\A5=126.6672
 3236\A6=107.47562664\A7=107.64532591\A8=130.97667584\A9=130.87804293\A
 10=125.24860141\D4=179.38883551\D5=-0.34745224\D6=179.86515741\D7=180.
 445269\D8=-180.23261684\D9=-179.82455683\D10=-180.32641691\\Version=ES
 64L-G16RevA.03\HF=-210.2505594\RMSD=4.115e-09\RMSF=1.390e-04\ZeroPoint
 =0.0820825\Thermal=0.0861344\Dipole=-0.2134919,0.0266846,0.4231168\Dip
 oleDeriv=0.0907799,0.0003545,-0.0213312,0.0003004,0.1750748,0.0018016,
 -0.0156091,-0.0008102,-0.0320735,-0.0264336,0.0001915,0.0817036,0.0002
 263,-0.2281217,-0.0059087,0.04704,-0.0016774,-0.0345352,-0.0055163,0.0
 003945,0.0362972,0.0007716,-0.2223433,0.0004953,0.0544871,0.0001571,-0
 .083514,-0.1092717,-0.0033346,-0.1035949,-0.0054457,-0.1725127,0.00318
 63,-0.1972274,0.0048932,0.2938349,-0.0163592,0.0011341,0.0202511,0.000
 6812,0.17602,-0.0006446,0.0134721,-0.0006851,0.091669,0.1672381,-0.002
 9727,-0.2894317,-0.0007184,-0.1627015,0.0051831,-0.1778491,0.003675,0.
 0247514,-0.246753,0.0012206,0.3346665,-0.0006946,-0.2423301,0.0013892,
 0.3341981,-0.0023197,-0.4609079,-0.0720685,0.0016926,-0.0219578,0.0030
 444,0.1892847,-0.000516,-0.0073108,-0.0007741,0.0664582,0.0555299,0.00
 04195,-0.0342295,-0.0000343,0.1898099,-0.0022758,-0.0488388,-0.0013391
 ,-0.0328782,0.1628544,0.0009,-0.0023733,0.001869,0.2978198,-0.0027105,
 -0.0023621,-0.0011197,0.1671952\Polar=58.7251027,-0.1341749,32.7987829
 ,0.9650693,0.1654741,58.0254753\PG=C01 [X(C4H5N1)]\NImag=0\\0.04946845
 ,-0.00013619,0.02209084,-0.00055182,0.00019161,0.37126031,-0.05787449,
 0.00016093,0.00138212,0.56716619,0.00013802,-0.02674156,-0.00017910,-0
 .00277086,0.11759633,-0.00030212,0.00018255,-0.35420191,-0.04979104,0.
 00262840,0.84705201,0.00797317,-0.00004831,0.00399643,-0.21849883,0.00
 018869,-0.09435586,0.79629486,-0.00005902,-0.00027687,-0.00002060,0.00
 014262,-0.06074972,-0.00011685,-0.00348858,0.11901424,-0.02326148,-0.0
 0004015,-0.00765758,-0.06079632,-0.00003536,-0.16919803,-0.11975956,0.
 00366533,0.62101239,0.00785291,-0.00006158,-0.00485566,-0.27595142,0.0
 0219135,0.14011954,-0.06773916,0.00019763,-0.03250861,0.86719486,-0.00
 002615,-0.00137673,0.00002735,0.00247449,-0.06132507,-0.00156624,0.000
 54862,0.01113169,0.00010255,-0.00577188,0.10578036,0.02319491,-0.00030
 896,-0.00798961,0.12313598,-0.00111538,-0.20167349,0.02481709,-0.00013
 670,0.03240271,0.01515304,0.00263664,0.58291476,0.00054276,-0.00000709
 ,-0.00023992,-0.01141301,0.00009263,0.00984546,-0.32924607,0.00150578,
 0.08472396,-0.00260958,0.00001203,-0.00270276,0.34352028,-0.00001268,-
 0.00228073,-0.00000392,-0.00007013,-0.00031358,0.00001912,0.00142624,-
 0.02738024,-0.00057537,0.00001531,0.00340912,-0.00003592,-0.00161312,0
 .02244645,0.00114857,0.00001134,0.00028032,-0.01724026,0.00012352,0.01
 196613,0.08264555,-0.00062098,-0.08378670,-0.00401606,-0.00001560,-0.0
 0338235,-0.09097224,0.00064713,0.07783464,-0.00517609,-0.00001860,-0.0
 0198388,0.02276367,0.00016773,-0.00284698,-0.13431118,0.00060666,0.077
 24111,-0.06559883,-0.00019774,-0.04997243,-0.00147258,0.00021604,0.026
 24689,0.61832815,0.00001268,0.00348103,0.00000791,-0.00026972,0.011153
 50,-0.00048504,0.00084302,-0.06289675,-0.00261299,0.00028680,0.0166312
 6,0.00012352,-0.00000459,-0.00093597,-0.00006435,-0.00147560,0.1089941
 3,-0.00332731,0.00000921,-0.00089273,-0.06002696,-0.00019909,-0.056826
 71,0.09544281,-0.00235570,-0.34601271,-0.02508181,-0.00019367,-0.04101
 271,-0.00180160,0.00000844,0.00116971,0.09478280,0.00546730,0.83659658
 ,-0.00472530,0.00011536,0.00185294,-0.01573802,-0.00005308,0.00906875,
 -0.05571545,0.00093814,0.06524178,-0.13016148,0.00063175,-0.06558929,0
 .00102515,0.00002933,0.00237929,-0.30078394,0.00090901,-0.00796096,0.7
 3042119,0.00009263,0.00442047,-0.00001479,0.00012898,0.01382562,-0.000
 69809,0.00062469,0.01384866,-0.00037199,0.00039934,-0.04977536,-0.0016
 1610,0.00001044,0.00445458,-0.00009126,0.00155960,-0.05058935,-0.00075
 749,-0.00618523,0.06976002,0.00403316,-0.00002431,-0.00035159,0.050891
 13,-0.00107512,-0.07934825,0.02225897,-0.00033517,-0.03732404,-0.06013
 208,-0.00087563,-0.27822985,0.00010279,-0.00006322,-0.00597114,-0.0121
 5772,-0.00074544,-0.10876705,-0.16028655,0.00807772,0.83256309,0.00026
 514,-0.00002877,0.00040605,-0.00988546,0.00003291,-0.01028181,-0.00284
 267,0.00007665,0.00301162,-0.34141605,0.00255278,-0.06284313,-0.000450
 38,0.00000895,-0.00075767,0.00107880,0.00000921,-0.00033238,-0.0025686
 0,-0.00000792,0.00136693,0.35600926,-0.00001683,-0.00301421,-0.0000085
 0,0.00011312,0.00016577,0.00012534,0.00005350,0.00463995,-0.00002860,0
 .00274911,-0.01819337,0.00031211,0.00000833,0.00127050,0.00000471,0.00
 004656,0.00168684,-0.00006416,-0.00029750,-0.00440254,-0.00003602,-0.0
 0264357,0.01710044,-0.00095682,0.00002376,0.00005189,0.01430652,-0.000
 07061,0.01293759,0.00402381,-0.00005036,-0.00207527,-0.05391634,0.0001
 7751,-0.07170643,0.00070853,-0.00000070,0.00100454,0.00164129,-0.00006
 074,-0.00666819,-0.03494776,0.00029616,-0.00352333,0.07010551,-0.00031
 659,0.06879363,0.00087528,0.00000094,0.00032816,-0.00014494,0.00002402
 ,0.00321775,0.01216981,0.00003622,0.00758336,-0.00546074,0.00006516,0.
 00370374,-0.00006806,-0.00001576,-0.00083083,-0.12984796,-0.00064075,-
 0.12123704,-0.01319086,-0.00022053,-0.03140550,-0.00008017,-0.00000174
 ,-0.00142094,0.13509868,-0.00001601,0.00121805,-0.00000494,0.00004420,
 0.00459922,-0.00007504,-0.00015551,0.00078489,-0.00006119,0.00005209,0
 .00175278,-0.00002899,-0.00000372,-0.00309876,0.00002295,-0.00076561,-
 0.01971643,-0.00197506,0.00009545,-0.00411446,0.00026908,0.00002401,0.
 00232778,-0.00000855,0.00075711,0.01786472,-0.00114644,-0.00001344,-0.
 00033366,0.00209418,-0.00006568,-0.00467246,-0.01687913,-0.00002644,-0
 .00899723,0.00187900,-0.00002455,0.00003884,0.00046890,0.00002917,0.00
 042279,-0.13015512,-0.00181893,-0.28494342,0.00478784,0.00007615,0.007
 27026,0.00007450,-0.00002299,0.00037819,0.13986015,0.00184098,0.290753
 01,0.00079818,0.00002331,-0.00033443,-0.00042370,-0.00001141,-0.004673
 70,-0.00808448,0.00004390,-0.00147587,0.01388949,-0.00028907,-0.008897
 13,0.00017149,0.00001582,0.00139675,-0.00498005,0.00032995,0.02954246,
 -0.20856269,0.00359800,0.18532887,-0.00010986,-0.00001097,0.00045620,0
 .00064896,-0.00003203,-0.00098389,0.20665267,0.00002354,0.00247970,0.0
 0000496,0.00004636,0.00178950,-0.00001414,0.00000765,0.00188416,-0.000
 04224,-0.00005817,-0.00803468,0.00016980,-0.00000069,0.00242863,-0.000
 01745,-0.00013904,-0.00780825,0.00006023,0.00381677,0.00257238,-0.0051
 9190,-0.00002425,-0.00158115,0.00001012,-0.00000467,-0.00161778,0.0000
 2571,-0.00366750,0.00788749,0.00116935,-0.00003162,-0.00016545,-0.0039
 5535,-0.00001158,-0.00603489,-0.00219011,-0.00000253,0.00163645,0.0233
 5898,-0.00026836,-0.01136188,-0.00013312,-0.00002473,0.00046205,-0.002
 79598,0.00018876,0.00735724,0.18545396,-0.00490032,-0.32631811,-0.0007
 4963,0.00003472,0.00080738,0.00020115,0.00002076,0.00008368,-0.2003592
 6,0.00499490,0.33353354\\0.00047972,0.00020858,0.00000002,-0.00038729,
 -0.00033135,0.00000387,-0.00005555,0.00006241,-0.00010505,-0.00004861,
 0.00001740,0.00007271,0.00000942,-0.00000114,0.00002494,-0.00005407,0.
 00003240,0.00006971,0.00003431,0.00002225,-0.00006167,0.00000588,0.000
 02630,-0.00000568,0.00001109,0.00002071,-0.00000794,0.00000512,-0.0000
 5757,0.00000909\\\@


 NECESSARY EVIL: ONE WE LIKE TOO MUCH TO RELINQUISH.
 Job cpu time:       0 days  0 hours 17 minutes 24.1 seconds.
 Elapsed time:       0 days  0 hours  1 minutes 28.4 seconds.
 File lengths (MBytes):  RWF=     34 Int=      0 D2E=      0 Chk=     32 Scr=      1
 Normal termination of Gaussian 16 at Fri Jun 10 22:32:57 2022.
