 Entering Gaussian System, Link 0=g16
 Input=ts_zmat_field_N75.gjf
 Output=ts_zmat_field_N75.out
 Initial command:
 /software/gaussian/g16-a03/l1.exe "/local_scratch/11174557/Gau-20701.inp" -scrdir="/local_scratch/11174557/"
 Entering Link 1 = /software/gaussian/g16-a03/l1.exe PID=     20702.
  
 Copyright (c) 1988,1990,1992,1993,1995,1998,2003,2009,2016,
            Gaussian, Inc.  All Rights Reserved.
  
 This is part of the Gaussian(R) 16 program.  It is based on
 the Gaussian(R) 09 system (copyright 2009, Gaussian, Inc.),
 the Gaussian(R) 03 system (copyright 2003, Gaussian, Inc.),
 the Gaussian(R) 98 system (copyright 1998, Gaussian, Inc.),
 the Gaussian(R) 94 system (copyright 1995, Gaussian, Inc.),
 the Gaussian 92(TM) system (copyright 1992, Gaussian, Inc.),
 the Gaussian 90(TM) system (copyright 1990, Gaussian, Inc.),
 the Gaussian 88(TM) system (copyright 1988, Gaussian, Inc.),
 the Gaussian 86(TM) system (copyright 1986, Carnegie Mellon
 University), and the Gaussian 82(TM) system (copyright 1983,
 Carnegie Mellon University). Gaussian is a federally registered
 trademark of Gaussian, Inc.
  
 This software contains proprietary and confidential information,
 including trade secrets, belonging to Gaussian, Inc.
  
 This software is provided under written license and may be
 used, copied, transmitted, or stored only in accord with that
 written license.
  
 The following legend is applicable only to US Government
 contracts under FAR:
  
                    RESTRICTED RIGHTS LEGEND
  
 Use, reproduction and disclosure by the US Government is
 subject to restrictions as set forth in subparagraphs (a)
 and (c) of the Commercial Computer Software - Restricted
 Rights clause in FAR 52.227-19.
  
 Gaussian, Inc.
 340 Quinnipiac St., Bldg. 40, Wallingford CT 06492
  
  
 ---------------------------------------------------------------
 Warning -- This program may not be used in any manner that
 competes with the business of Gaussian, Inc. or will provide
 assistance to any competitor of Gaussian, Inc.  The licensee
 of this program is prohibited from giving any competitor of
 Gaussian, Inc. access to this program.  By using this program,
 the user acknowledges that Gaussian, Inc. is engaged in the
 business of creating and licensing software in the field of
 computational chemistry and represents and warrants to the
 licensee that it is not a competitor of Gaussian, Inc. and that
 it will not use this program in any manner prohibited above.
 ---------------------------------------------------------------
  

 Cite this work as:
 Gaussian 16, Revision A.03,
 M. J. Frisch, G. W. Trucks, H. B. Schlegel, G. E. Scuseria, 
 M. A. Robb, J. R. Cheeseman, G. Scalmani, V. Barone, 
 G. A. Petersson, H. Nakatsuji, X. Li, M. Caricato, A. V. Marenich, 
 J. Bloino, B. G. Janesko, R. Gomperts, B. Mennucci, H. P. Hratchian, 
 J. V. Ortiz, A. F. Izmaylov, J. L. Sonnenberg, D. Williams-Young, 
 F. Ding, F. Lipparini, F. Egidi, J. Goings, B. Peng, A. Petrone, 
 T. Henderson, D. Ranasinghe, V. G. Zakrzewski, J. Gao, N. Rega, 
 G. Zheng, W. Liang, M. Hada, M. Ehara, K. Toyota, R. Fukuda, 
 J. Hasegawa, M. Ishida, T. Nakajima, Y. Honda, O. Kitao, H. Nakai, 
 T. Vreven, K. Throssell, J. A. Montgomery, Jr., J. E. Peralta, 
 F. Ogliaro, M. J. Bearpark, J. J. Heyd, E. N. Brothers, K. N. Kudin, 
 V. N. Staroverov, T. A. Keith, R. Kobayashi, J. Normand, 
 K. Raghavachari, A. P. Rendell, J. C. Burant, S. S. Iyengar, 
 J. Tomasi, M. Cossi, J. M. Millam, M. Klene, C. Adamo, R. Cammi, 
 J. W. Ochterski, R. L. Martin, K. Morokuma, O. Farkas, 
 J. B. Foresman, and D. J. Fox, Gaussian, Inc., Wallingford CT, 2016.
 
 ******************************************
 Gaussian 16:  ES64L-G16RevA.03 25-Dec-2016
                10-Jun-2022 
 ******************************************
 %nprocshared=12
 Will use up to   12 processors via shared memory.
 %chk=checkpoint.chk
 %mem=12GB
 ----------------------------------------------------------------------
 # Opt=(TS, CalcFC, noeigentest, Z-matrix, MaxStep=10) geom=allcheckpoi
 nt guess=read Field=read NoSymm B3LYP/Def2TZVP freq=noraman pop=none
 ----------------------------------------------------------------------
 1/5=1,8=10,10=4,11=1,18=40,26=3,29=7,38=1/1,3;
 2/12=2,15=1,29=3,40=1/2;
 3/5=44,7=101,11=2,14=-6,25=1,30=1,71=2,74=-5,116=-2,140=1/1,2,3;
 4/5=1/1;
 5/5=2,38=6/2;
 8/6=4,10=90,11=11/1;
 11/6=1,8=1,9=11,15=111,16=1,31=1/1,2,10;
 10/6=1,13=1,31=1/2;
 7/10=1,18=20,25=1,30=1/1,2,3,16;
 1/5=1,8=10,10=4,11=1,18=40,26=3/3(2);
 2/15=1,29=3/2;
 99//99;
 2/15=1,29=3/2;
 3/5=44,7=101,11=2,14=-2,25=1,30=1,71=1,74=-5/1,2,3;
 4/5=5,16=3,69=1/1;
 5/5=2,38=5/2;
 7/30=1/1,2,3,16;
 1/5=1,8=10,11=1,18=40,26=3/3(-5);
 2/15=1,29=3/2;
 99/9=1/99;
 Structure from the checkpoint file:  "checkpoint.chk"
 -----------------
 ts_zmat_initalOpt
 -----------------
 Charge =  0 Multiplicity = 1
 Z-Matrix found in chk file.
 H
 C,1,R2
 C,2,R3,1,A3
 C,2,R4,1,A4,3,D4,0
 H,3,R5,2,A5,1,D5,0
 H,4,R6,2,A6,1,D6,0
 C,3,R7,2,A7,5,D7,0
 N,4,R8,2,A8,6,D8,0
 H,4,R9,2,A9,6,D9,0
 H,7,R10,3,A10,2,D10,0
      Variables:
 R2=1.07833741
 R3=1.39204252
 R4=1.39867304
 R5=1.0795649
 R6=1.29194729
 R7=1.39439831
 R8=1.45671143
 R9=1.07915552
 R10=1.08024617
 A3=127.13713337
 A4=126.20295112
 A5=126.17772298
 A6=114.79253985
 A7=107.56028581
 A8=109.35653674
 A9=129.65785281
 A10=127.85920197
 D4=180.1686582
 D5=-1.19977611
 D6=121.77883258
 D7=-177.7376247
 D8=59.25631838
 D9=-138.30617029
 D10=174.0681731
 Recover connectivity data from disk.

 GradGradGradGradGradGradGradGradGradGradGradGradGradGradGradGradGradGrad
 Berny optimization.
 Initialization pass.
                       ----------------------------
                       !    Initial Parameters    !
                       ! (Angstroms and Degrees)  !
 ----------------------                            ----------------------
 !      Name          Value   Derivative information (Atomic Units)     !
 ------------------------------------------------------------------------
 !       R2          1.0783   calculate D2E/DX2 analytically            !
 !       R3          1.392    calculate D2E/DX2 analytically            !
 !       R4          1.3987   calculate D2E/DX2 analytically            !
 !       R5          1.0796   calculate D2E/DX2 analytically            !
 !       R6          1.2919   calculate D2E/DX2 analytically            !
 !       R7          1.3944   calculate D2E/DX2 analytically            !
 !       R8          1.4567   calculate D2E/DX2 analytically            !
 !       R9          1.0792   calculate D2E/DX2 analytically            !
 !       R10         1.0802   calculate D2E/DX2 analytically            !
 !       A3        127.1371   calculate D2E/DX2 analytically            !
 !       A4        126.203    calculate D2E/DX2 analytically            !
 !       A5        126.1777   calculate D2E/DX2 analytically            !
 !       A6        114.7925   calculate D2E/DX2 analytically            !
 !       A7        107.5603   calculate D2E/DX2 analytically            !
 !       A8        109.3565   calculate D2E/DX2 analytically            !
 !       A9        129.6579   calculate D2E/DX2 analytically            !
 !       A10       127.8592   calculate D2E/DX2 analytically            !
 !       D4        180.1687   calculate D2E/DX2 analytically            !
 !       D5         -1.1998   calculate D2E/DX2 analytically            !
 !       D6        121.7788   calculate D2E/DX2 analytically            !
 !       D7       -177.7376   calculate D2E/DX2 analytically            !
 !       D8         59.2563   calculate D2E/DX2 analytically            !
 !       D9       -138.3062   calculate D2E/DX2 analytically            !
 !       D10       174.0682   calculate D2E/DX2 analytically            !
 ------------------------------------------------------------------------
 Trust Radius=1.00D-01 FncErr=1.00D-07 GrdErr=1.00D-06 EigMax=2.50D+02 EigMin=1.00D-04
 Number of steps in this run=     34 maximum allowed number of steps=    100.
 Search for a saddle point of order  1.
 GradGradGradGradGradGradGradGradGradGradGradGradGradGradGradGradGradGrad

 ---------------------------------------------------------------------------------------------------
                            Z-MATRIX (ANGSTROMS AND DEGREES)
   CD    Cent   Atom    N1       Length/X        N2       Alpha/Y        N3        Beta/Z          J
 ---------------------------------------------------------------------------------------------------
      1      1  H 
      2      2  C        1   1.078337(     1)
      3      3  C        2   1.392043(     2)      1  127.137(    10)
      4      4  C        2   1.398673(     3)      1  126.203(    11)      3  180.169(    18)      0
      5      5  H        3   1.079565(     4)      2  126.178(    12)      1   -1.200(    19)      0
      6      6  H        4   1.291947(     5)      2  114.793(    13)      1  121.779(    20)      0
      7      7  C        3   1.394398(     6)      2  107.560(    14)      5 -177.738(    21)      0
      8      8  N        4   1.456711(     7)      2  109.357(    15)      6   59.256(    22)      0
      9      9  H        4   1.079156(     8)      2  129.658(    16)      6 -138.306(    23)      0
     10     10  H        7   1.080246(     9)      3  127.859(    17)      2  174.068(    24)      0
 ---------------------------------------------------------------------------------------------------
                         Z-Matrix orientation:                         
 ---------------------------------------------------------------------
 Center     Atomic      Atomic             Coordinates (Angstroms)
 Number     Number       Type             X           Y           Z
 ---------------------------------------------------------------------
      1          1           0        0.000000    0.000000    0.000000
      2          6           0        0.000000    0.000000    1.078337
      3          6           0        1.109726    0.000000    1.918748
      4          6           0       -1.128626   -0.003322    1.904460
      5          1           0        2.143723   -0.018246    1.608944
      6          1           0       -1.198018   -1.000574    2.722874
      7          6           0        0.642642   -0.024654    3.232358
      8          7           0       -0.706668    0.022749    3.298476
      9          1           0       -2.155506    0.229998    1.668544
     10          1           0        1.220798   -0.119755    4.139895
 ---------------------------------------------------------------------
                    Distance matrix (angstroms):
                    1          2          3          4          5
     1  H    0.000000
     2  C    1.078337   0.000000
     3  C    2.216548   1.392043   0.000000
     4  C    2.213769   1.398673   2.238401   0.000000
     5  H    2.680407   2.208489   1.079565   3.285699   0.000000
     6  H    3.138541   2.267355   2.640729   1.291947   3.656917
     7  C    3.295715   2.247977   1.394398   2.213856   2.211053
     8  N    3.373402   2.330002   2.281108   1.456711   3.313748
     9  H    2.735533   2.246653   3.282871   1.079156   4.306802
    10  H    4.317803   3.298155   2.227145   3.245076   2.695887
                    6          7          8          9         10
     6  H    0.000000
     7  C    2.144767   0.000000
     8  N    1.272765   1.351761   0.000000
     9  H    1.882207   3.215586   2.190607   0.000000
    10  H    2.938445   1.080246   2.107942   4.198730   0.000000
 Symmetry turned off by external request.
 Stoichiometry    C4H5N
 Framework group  C1[X(C4H5N)]
 Deg. of freedom    24
 Full point group                 C1      NOp   1
 Rotational constants (GHZ):           9.2006303           8.8450596           4.5973718
 Standard basis: def2TZVP (5D, 7F)
 The following finite field(s) will be applied:
 An electric field of              0.0010  0.0026  0.0070
   185 basis functions,   295 primitive gaussians,   210 cartesian basis functions
    18 alpha electrons       18 beta electrons
       nuclear repulsion energy       160.5587908121 Hartrees.
 NAtoms=   10 NActive=   10 NUniq=   10 SFac= 1.00D+00 NAtFMM=   60 NAOKFM=F Big=F
 Integral buffers will be    131072 words long.
 Raffenetti 2 integral format.
 Two-electron integral symmetry is turned off.
 One-electron integrals computed using PRISM.
   1 Symmetry operations used in ECPInt.
 ECPInt:  NShTT=    2850 NPrTT=    8640 LenC2=    2843 LenP2D=    7479.
 LDataN:  DoStor=T MaxTD1= 6 Len=  172
 NBasis=   185 RedAO= T EigKep=  5.72D-05  NBF=   185
 NBsUse=   185 1.00D-06 EigRej= -1.00D+00 NBFU=   185
 The nuclear repulsion energy is now       161.6334835112 hartrees.
 Initial guess from the checkpoint file:  "checkpoint.chk"
 B after Tr=    -0.000000   -0.000000    0.000000
         Rot=    1.000000    0.000000   -0.000000   -0.000000 Ang=   0.00 deg.
 Keep R1 ints in memory in canonical form, NReq=160464061.
 Requested convergence on RMS density matrix=1.00D-08 within 128 cycles.
 Requested convergence on MAX density matrix=1.00D-06.
 Requested convergence on             energy=1.00D-06.
 No special actions if energy rises.
 SCF Done:  E(RB3LYP) =  -210.181399163     A.U. after   10 cycles
            NFock= 10  Conv=0.32D-08     -V/T= 2.0052
 DoSCS=F DFT=T ScalE2(SS,OS)=  1.000000  1.000000
 Range of M.O.s used for correlation:     1   185
 NBasis=   185 NAE=    18 NBE=    18 NFC=     0 NFV=     0
 NROrb=    185 NOA=    18 NOB=    18 NVA=   167 NVB=   167

 **** Warning!!: The largest alpha MO coefficient is  0.24530831D+02

   1 Symmetry operations used in ECPInt.
 ECPInt:  NShTT=    2850 NPrTT=    8640 LenC2=    2843 LenP2D=    7479.
 LDataN:  DoStor=T MaxTD1= 7 Len=  274
 Symmetrizing basis deriv contribution to polar:
 IMax=3 JMax=2 DiffMx= 0.00D+00
 G2DrvN: will do    11 centers at a time, making    1 passes.
 Calling FoFCou, ICntrl=  3107 FMM=F I1Cent=   0 AccDes= 0.00D+00.
 End of G2Drv F.D. properties file   721 does not exist.
 End of G2Drv F.D. properties file   722 does not exist.
 End of G2Drv F.D. properties file   788 does not exist.
          IDoAtm=1111111111
          Differentiating once with respect to nuclear coordinates.
 Keep R1 ints in memory in canonical form, NReq=160431867.
          There are    33 degrees of freedom in the 1st order CPHF.  IDoFFX=6 NUNeed=     0.
     27 vectors produced by pass  0 Test12= 9.11D-15 3.03D-09 XBig12= 1.13D-01 1.43D-01.
 AX will form    27 AO Fock derivatives at one time.
     27 vectors produced by pass  1 Test12= 9.11D-15 3.03D-09 XBig12= 1.66D-02 3.74D-02.
     27 vectors produced by pass  2 Test12= 9.11D-15 3.03D-09 XBig12= 2.17D-04 3.73D-03.
     27 vectors produced by pass  3 Test12= 9.11D-15 3.03D-09 XBig12= 7.43D-07 1.17D-04.
     27 vectors produced by pass  4 Test12= 9.11D-15 3.03D-09 XBig12= 1.33D-09 5.14D-06.
     25 vectors produced by pass  5 Test12= 9.11D-15 3.03D-09 XBig12= 2.77D-12 2.51D-07.
      6 vectors produced by pass  6 Test12= 9.11D-15 3.03D-09 XBig12= 5.73D-15 1.26D-08.
 InvSVY:  IOpt=1 It=  1 EMax= 2.55D-15
 Solved reduced A of dimension   166 with    27 vectors.
 End of Minotr F.D. properties file   721 does not exist.
 End of Minotr F.D. properties file   722 does not exist.
 End of Minotr F.D. properties file   788 does not exist.
   1 Symmetry operations used in ECPInt.
 ECPInt:  NShTT=    2850 NPrTT=    8640 LenC2=    2843 LenP2D=    7479.
 LDataN:  DoStor=T MaxTD1= 8 Len=  415
 Calling FoFJK, ICntrl=    100147 FMM=F ISym2X=0 I1Cent= 0 IOpClX= 0 NMat=1 NMatS=1 NMatT=0.
 -------------------------------------------------------------------
 Center     Atomic                   Forces (Hartrees/Bohr)
 Number     Number              X              Y              Z
 -------------------------------------------------------------------
      1        1          -0.000406719   -0.000175851   -0.000020920
      2        6           0.000302834    0.000197347    0.000024750
      3        6           0.000091297   -0.000110058    0.000107724
      4        6           0.000255029    0.000223321   -0.000163967
      5        1          -0.000068376   -0.000119267   -0.000211180
      6        1          -0.000083348   -0.000145091   -0.000485778
      7        6          -0.000020255    0.000395115   -0.000410979
      8        7          -0.000243794    0.000208526    0.001188674
      9        1          -0.000001635   -0.000224175   -0.000185919
     10        1           0.000174967   -0.000249867    0.000157595
 -------------------------------------------------------------------
 Cartesian Forces:  Max     0.001188674 RMS     0.000309482
 -----------------------------------------------------------------------------------------------
                       Internal Coordinate Forces (Hartree/Bohr or radian)
  Cent   Atom   N1       Length/X         N2         Alpha/Y        N3         Beta/Z          J
 -----------------------------------------------------------------------------------------------
      1  H 
      2  C        1   0.000021(     1)
      3  C        2  -0.000074(     2)      1  -0.001771(    10)
      4  C        2   0.000268(     3)      1  -0.001506(    11)      3   0.000342(    18)     0
      5  H        3  -0.000003(     4)      2  -0.000456(    12)      1  -0.000370(    19)     0
      6  H        4  -0.000191(     5)      2  -0.000374(    13)      1  -0.000091(    20)     0
      7  C        3  -0.000293(     6)      2   0.000282(    14)      5  -0.000178(    21)     0
      8  N        4   0.001071(     7)      2   0.001586(    15)      6   0.000505(    22)     0
      9  H        4  -0.000006(     8)      2  -0.000275(    16)      6   0.000405(    23)     0
     10  H        7   0.000248(     9)      3  -0.000150(    17)      2  -0.000364(    24)     0
 -----------------------------------------------------------------------------------------------
 Internal  Forces:  Max     0.001771385 RMS     0.000667676

 GradGradGradGradGradGradGradGradGradGradGradGradGradGradGradGradGradGrad
 Berny optimization.
 Search for a saddle point.
 Step number   1 out of a maximum of   34
 All quantities printed in internal units (Hartrees-Bohrs-Radians)
 Swapping is turned off.
 Second derivative matrix not updated -- analytic derivatives used.
 ITU=  0
     Eigenvalues ---   -0.23920   0.01606   0.03632   0.04235   0.05623
     Eigenvalues ---    0.09991   0.12365   0.17558   0.20600   0.21988
     Eigenvalues ---    0.23287   0.28796   0.33883   0.36145   0.36273
     Eigenvalues ---    0.36827   0.36861   0.41177   0.47506   0.49745
     Eigenvalues ---    0.64645   2.12657   2.88868  21.78114
 Eigenvectors required to have negative eigenvalues:
                          D8        R6        D6        R8        R4
   1                    0.66003  -0.52898  -0.33330   0.18438   0.15278
                          D5        A8        A6        D4        R3
   1                   -0.13809  -0.12642  -0.12497  -0.12148  -0.12031
 RFO step:  Lambda0=1.536412755D-06 Lambda=-1.43559251D-05.
 Linear search not attempted -- option 19 set.
 Variable       Old X    -DE/DX   Delta X   Delta X   Delta X     New X
                                 (Linear)    (Quad)   (Total)
    R2        2.03776   0.00002   0.00000   0.00006   0.00006   2.03783
    R3        2.63058  -0.00007   0.00000   0.00050   0.00050   2.63108
    R4        2.64311   0.00027   0.00000  -0.00157  -0.00157   2.64154
    R5        2.04008  -0.00000   0.00000  -0.00002  -0.00002   2.04006
    R6        2.44143  -0.00019   0.00000   0.00176   0.00176   2.44318
    R7        2.63503  -0.00029   0.00000  -0.00082  -0.00082   2.63421
    R8        2.75279   0.00107   0.00000   0.00253   0.00253   2.75531
    R9        2.03931  -0.00001   0.00000  -0.00006  -0.00006   2.03925
   R10        2.04137   0.00025   0.00000   0.00070   0.00070   2.04207
    A3        2.21896  -0.00177   0.00000  -0.00137  -0.00137   2.21759
    A4        2.20266  -0.00151   0.00000   0.00121   0.00121   2.20387
    A5        2.20222  -0.00046   0.00000  -0.00214  -0.00214   2.20007
    A6        2.00351  -0.00037   0.00000  -0.00323  -0.00323   2.00028
    A7        1.87728   0.00028   0.00000   0.00007   0.00007   1.87735
    A8        1.90863   0.00159   0.00000   0.00094   0.00094   1.90957
    A9        2.26296  -0.00028   0.00000  -0.00019  -0.00019   2.26277
   A10        2.23156  -0.00015   0.00000  -0.00104  -0.00104   2.23053
    D4        3.14454   0.00034   0.00000   0.00272   0.00272   3.14726
    D5       -0.02094  -0.00037   0.00000  -0.00104  -0.00104  -0.02198
    D6        2.12544  -0.00009   0.00000  -0.00205  -0.00205   2.12339
    D7       -3.10211  -0.00018   0.00000   0.00388   0.00388  -3.09823
    D8        1.03422   0.00051   0.00000  -0.00213  -0.00213   1.03209
    D9       -2.41390   0.00041   0.00000   0.00942   0.00942  -2.40448
   D10        3.03806  -0.00036   0.00000  -0.00667  -0.00667   3.03140
         Item               Value     Threshold  Converged?
 Maximum Force            0.001771     0.000450     NO 
 RMS     Force            0.000668     0.000300     NO 
 Maximum Displacement     0.009415     0.001800     NO 
 RMS     Displacement     0.002880     0.001200     NO 
 Predicted change in Energy=-6.409751D-06
 GradGradGradGradGradGradGradGradGradGradGradGradGradGradGradGradGradGrad

 ---------------------------------------------------------------------------------------------------
                            Z-MATRIX (ANGSTROMS AND DEGREES)
   CD    Cent   Atom    N1       Length/X        N2       Alpha/Y        N3        Beta/Z          J
 ---------------------------------------------------------------------------------------------------
      1      1  H 
      2      2  C        1   1.078371(     1)
      3      3  C        2   1.392305(     2)      1  127.058(    10)
      4      4  C        2   1.397842(     3)      1  126.272(    11)      3  180.324(    18)      0
      5      5  H        3   1.079556(     4)      2  126.055(    12)      1   -1.260(    19)      0
      6      6  H        4   1.292877(     5)      2  114.607(    13)      1  121.661(    20)      0
      7      7  C        3   1.393962(     6)      2  107.564(    14)      5 -177.515(    21)      0
      8      8  N        4   1.458050(     7)      2  109.410(    15)      6   59.134(    22)      0
      9      9  H        4   1.079126(     8)      2  129.647(    16)      6 -137.767(    23)      0
     10     10  H        7   1.080618(     9)      3  127.800(    17)      2  173.686(    24)      0
 ---------------------------------------------------------------------------------------------------
                         Z-Matrix orientation:                         
 ---------------------------------------------------------------------
 Center     Atomic      Atomic             Coordinates (Angstroms)
 Number     Number       Type             X           Y           Z
 ---------------------------------------------------------------------
      1          1           0        0.000000    0.000000    0.000000
      2          6           0        0.000000    0.000000    1.078371
      3          6           0        1.111089    0.000000    1.917415
      4          6           0       -1.126944   -0.006381    1.905365
      5          1           0        2.143968   -0.019184    1.603996
      6          1           0       -1.190279   -1.007268    2.721296
      7          6           0        0.646086   -0.028416    3.231225
      8          7           0       -0.704208    0.015102    3.300621
      9          1           0       -2.155642    0.218299    1.669117
     10          1           0        1.226351   -0.130322    4.137118
 ---------------------------------------------------------------------
                    Distance matrix (angstroms):
                    1          2          3          4          5
     1  H    0.000000
     2  C    1.078371   0.000000
     3  C    2.216078   1.392305   0.000000
     4  C    2.213698   1.397842   2.238074   0.000000
     5  H    2.677643   2.207544   1.079556   3.284792   0.000000
     6  H    3.136369   2.265074   2.637633   1.292877   3.652654
     7  C    3.295307   2.247892   1.393962   2.214053   2.211698
     8  N    3.374943   2.331209   2.282277   1.458050   3.315391
     9  H    2.735032   2.245758   3.283418   1.079126   4.306656
    10  H    4.317021   3.298008   2.226511   3.245625   2.696494
                    6          7          8          9         10
     6  H    0.000000
     7  C    2.142526   0.000000
     8  N    1.271662   1.352776   0.000000
     9  H    1.881760   3.217255   2.193116   0.000000
    10  H    2.934909   1.080618   2.109012   4.201243   0.000000
 Symmetry turned off by external request.
 Stoichiometry    C4H5N
 Framework group  C1[X(C4H5N)]
 Deg. of freedom    24
 Full point group                 C1      NOp   1
 Rotational constants (GHZ):           9.2001512           8.8402733           4.5957964
 Standard basis: def2TZVP (5D, 7F)
 The following finite field(s) will be applied:
 An electric field of              0.0010  0.0026  0.0070
   185 basis functions,   295 primitive gaussians,   210 cartesian basis functions
    18 alpha electrons       18 beta electrons
       nuclear repulsion energy       160.5351735816 Hartrees.
 NAtoms=   10 NActive=   10 NUniq=   10 SFac= 1.00D+00 NAtFMM=   60 NAOKFM=F Big=F
 Integral buffers will be    131072 words long.
 Raffenetti 2 integral format.
 Two-electron integral symmetry is turned off.
 One-electron integrals computed using PRISM.
   1 Symmetry operations used in ECPInt.
 ECPInt:  NShTT=    2850 NPrTT=    8640 LenC2=    2843 LenP2D=    7479.
 LDataN:  DoStor=T MaxTD1= 6 Len=  172
 NBasis=   185 RedAO= T EigKep=  5.72D-05  NBF=   185
 NBsUse=   185 1.00D-06 EigRej= -1.00D+00 NBFU=   185
 The nuclear repulsion energy is now       161.6093541809 hartrees.
 Initial guess from the checkpoint file:  "checkpoint.chk"
 B after Tr=    -0.002142    0.004799   -0.000090
         Rot=    0.999998   -0.001302   -0.000661   -0.000951 Ang=  -0.20 deg.
 Keep R1 ints in memory in canonical form, NReq=160464061.
 Requested convergence on RMS density matrix=1.00D-08 within 128 cycles.
 Requested convergence on MAX density matrix=1.00D-06.
 Requested convergence on             energy=1.00D-06.
 No special actions if energy rises.
 SCF Done:  E(RB3LYP) =  -210.181405578     A.U. after    8 cycles
            NFock=  8  Conv=0.69D-08     -V/T= 2.0052
   1 Symmetry operations used in ECPInt.
 ECPInt:  NShTT=    2850 NPrTT=    8640 LenC2=    2843 LenP2D=    7479.
 LDataN:  DoStor=T MaxTD1= 7 Len=  274
 Calling FoFJK, ICntrl=      2127 FMM=F ISym2X=0 I1Cent= 0 IOpClX= 0 NMat=1 NMatS=1 NMatT=0.
 -------------------------------------------------------------------
 Center     Atomic                   Forces (Hartrees/Bohr)
 Number     Number              X              Y              Z
 -------------------------------------------------------------------
      1        1          -0.000537314   -0.000090463    0.000000008
      2        6           0.000540247    0.000301354   -0.000000126
      3        6           0.000000517   -0.000208496   -0.000001632
      4        6          -0.000007826   -0.000000766   -0.000001591
      5        1           0.000000165   -0.000000325   -0.000000183
      6        1          -0.000002035    0.000001120    0.000000791
      7        6           0.000003042    0.000000870    0.000003616
      8        7           0.000002575   -0.000002986    0.000001049
      9        1          -0.000000532   -0.000000751   -0.000002263
     10        1           0.000001161    0.000000443    0.000000332
 -------------------------------------------------------------------
 Cartesian Forces:  Max     0.000540247 RMS     0.000155259
 -----------------------------------------------------------------------------------------------
                       Internal Coordinate Forces (Hartree/Bohr or radian)
  Cent   Atom   N1       Length/X         N2         Alpha/Y        N3         Beta/Z          J
 -----------------------------------------------------------------------------------------------
      1  H 
      2  C        1  -0.000000(     1)
      3  C        2   0.000005(     2)      1  -0.000019(    10)
      4  C        2   0.000005(     3)      1  -0.000018(    11)      3   0.000002(    18)     0
      5  H        3   0.000000(     4)      2  -0.000000(    12)      1  -0.000004(    19)     0
      6  H        4  -0.000000(     5)      2   0.000006(    13)      1  -0.000006(    20)     0
      7  C        3   0.000002(     6)      2   0.000016(    14)      5  -0.000004(    21)     0
      8  N        4   0.000002(     7)      2  -0.000006(    15)      6  -0.000008(    22)     0
      9  H        4   0.000001(     8)      2  -0.000004(    16)      6   0.000002(    23)     0
     10  H        7   0.000001(     9)      3  -0.000002(    17)      2   0.000001(    24)     0
 -----------------------------------------------------------------------------------------------
 Internal  Forces:  Max     0.000019054 RMS     0.000007088

 GradGradGradGradGradGradGradGradGradGradGradGradGradGradGradGradGradGrad
 Berny optimization.
 Search for a saddle point.
 Step number   2 out of a maximum of   34
 All quantities printed in internal units (Hartrees-Bohrs-Radians)
 Swapping is turned off.
 Update second derivatives using D2CorN and points    1    2
 ITU=  0  0
     Eigenvalues ---   -0.23921   0.01605   0.03629   0.04238   0.05626
     Eigenvalues ---    0.09991   0.12365   0.17558   0.20598   0.21986
     Eigenvalues ---    0.23287   0.28788   0.33883   0.36145   0.36273
     Eigenvalues ---    0.36827   0.36861   0.41177   0.47505   0.49747
     Eigenvalues ---    0.64646   2.12660   2.88868  21.78112
 Eigenvectors required to have negative eigenvalues:
                          D8        R6        D6        R8        R4
   1                    0.66007  -0.52898  -0.33325   0.18431   0.15275
                          D5        A8        A6        D4        R3
   1                   -0.13809  -0.12636  -0.12498  -0.12156  -0.12030
 RFO step:  Lambda0=6.740608072D-12 Lambda= 0.00000000D+00.
 Linear search not attempted -- option 19 set.
 Variable       Old X    -DE/DX   Delta X   Delta X   Delta X     New X
                                 (Linear)    (Quad)   (Total)
    R2        2.03783  -0.00000   0.00000   0.00000   0.00000   2.03783
    R3        2.63108   0.00001   0.00000  -0.00000  -0.00000   2.63107
    R4        2.64154   0.00001   0.00000   0.00001   0.00001   2.64155
    R5        2.04006   0.00000   0.00000   0.00000   0.00000   2.04006
    R6        2.44318  -0.00000   0.00000  -0.00000  -0.00000   2.44318
    R7        2.63421   0.00000   0.00000   0.00001   0.00001   2.63421
    R8        2.75531   0.00000   0.00000   0.00002   0.00002   2.75533
    R9        2.03925   0.00000   0.00000   0.00000   0.00000   2.03925
   R10        2.04207   0.00000   0.00000   0.00000   0.00000   2.04207
    A3        2.21759  -0.00002   0.00000  -0.00001  -0.00001   2.21758
    A4        2.20387  -0.00002   0.00000   0.00000   0.00000   2.20387
    A5        2.20007  -0.00000   0.00000  -0.00000  -0.00000   2.20007
    A6        2.00028   0.00001   0.00000   0.00001   0.00001   2.00029
    A7        1.87735   0.00002   0.00000   0.00000   0.00000   1.87735
    A8        1.90957  -0.00001   0.00000  -0.00001  -0.00001   1.90956
    A9        2.26277  -0.00000   0.00000  -0.00001  -0.00001   2.26276
   A10        2.23053  -0.00000   0.00000  -0.00000  -0.00000   2.23053
    D4        3.14726   0.00000   0.00000   0.00010   0.00010   3.14735
    D5       -0.02198  -0.00000   0.00000   0.00007   0.00007  -0.02192
    D6        2.12339  -0.00001   0.00000  -0.00006  -0.00006   2.12333
    D7       -3.09823  -0.00000   0.00000  -0.00000  -0.00000  -3.09823
    D8        1.03209  -0.00001   0.00000  -0.00000  -0.00000   1.03208
    D9       -2.40448   0.00000   0.00000  -0.00000  -0.00000  -2.40448
   D10        3.03140   0.00000   0.00000   0.00002   0.00002   3.03141
         Item               Value     Threshold  Converged?
 Maximum Force            0.000019     0.000450     YES
 RMS     Force            0.000007     0.000300     YES
 Maximum Displacement     0.000099     0.001800     YES
 RMS     Displacement     0.000028     0.001200     YES
 Predicted change in Energy=-4.189160D-10
 Optimization completed.
    -- Stationary point found.
                       ----------------------------
                       !   Optimized Parameters   !
                       ! (Angstroms and Degrees)  !
 ----------------------                            ----------------------
 !      Name          Value   Derivative information (Atomic Units)     !
 ------------------------------------------------------------------------
 !       R2          1.0784   -DE/DX =    0.0                           !
 !       R3          1.3923   -DE/DX =    0.0                           !
 !       R4          1.3978   -DE/DX =    0.0                           !
 !       R5          1.0796   -DE/DX =    0.0                           !
 !       R6          1.2929   -DE/DX =    0.0                           !
 !       R7          1.394    -DE/DX =    0.0                           !
 !       R8          1.458    -DE/DX =    0.0                           !
 !       R9          1.0791   -DE/DX =    0.0                           !
 !       R10         1.0806   -DE/DX =    0.0                           !
 !       A3        127.0585   -DE/DX =    0.0                           !
 !       A4        126.2722   -DE/DX =    0.0                           !
 !       A5        126.0549   -DE/DX =    0.0                           !
 !       A6        114.6075   -DE/DX =    0.0                           !
 !       A7        107.5641   -DE/DX =    0.0                           !
 !       A8        109.4103   -DE/DX =    0.0                           !
 !       A9        129.6471   -DE/DX =    0.0                           !
 !       A10       127.7998   -DE/DX =    0.0                           !
 !       D4        180.3244   -DE/DX =    0.0                           !
 !       D5         -1.2595   -DE/DX =    0.0                           !
 !       D6        121.6612   -DE/DX =    0.0                           !
 !       D7       -177.5153   -DE/DX =    0.0                           !
 !       D8         59.1341   -DE/DX =    0.0                           !
 !       D9       -137.7667   -DE/DX =    0.0                           !
 !       D10       173.6862   -DE/DX =    0.0                           !
 ------------------------------------------------------------------------
 GradGradGradGradGradGradGradGradGradGradGradGradGradGradGradGradGradGrad

 ---------------------------------------------------------------------------------------------------
                            Z-MATRIX (ANGSTROMS AND DEGREES)
   CD    Cent   Atom    N1       Length/X        N2       Alpha/Y        N3        Beta/Z          J
 ---------------------------------------------------------------------------------------------------
      1      1  H 
      2      2  C        1   1.078371(     1)
      3      3  C        2   1.392305(     2)      1  127.058(    10)
      4      4  C        2   1.397842(     3)      1  126.272(    11)      3  180.324(    18)      0
      5      5  H        3   1.079556(     4)      2  126.055(    12)      1   -1.260(    19)      0
      6      6  H        4   1.292877(     5)      2  114.607(    13)      1  121.661(    20)      0
      7      7  C        3   1.393962(     6)      2  107.564(    14)      5 -177.515(    21)      0
      8      8  N        4   1.458050(     7)      2  109.410(    15)      6   59.134(    22)      0
      9      9  H        4   1.079126(     8)      2  129.647(    16)      6 -137.767(    23)      0
     10     10  H        7   1.080618(     9)      3  127.800(    17)      2  173.686(    24)      0
 ---------------------------------------------------------------------------------------------------
                         Z-Matrix orientation:                         
 ---------------------------------------------------------------------
 Center     Atomic      Atomic             Coordinates (Angstroms)
 Number     Number       Type             X           Y           Z
 ---------------------------------------------------------------------
      1          1           0        0.000000    0.000000    0.000000
      2          6           0        0.000000    0.000000    1.078371
      3          6           0        1.111089    0.000000    1.917415
      4          6           0       -1.126944   -0.006381    1.905365
      5          1           0        2.143968   -0.019184    1.603996
      6          1           0       -1.190279   -1.007268    2.721296
      7          6           0        0.646086   -0.028416    3.231225
      8          7           0       -0.704208    0.015102    3.300621
      9          1           0       -2.155642    0.218299    1.669117
     10          1           0        1.226351   -0.130322    4.137118
 ---------------------------------------------------------------------
                    Distance matrix (angstroms):
                    1          2          3          4          5
     1  H    0.000000
     2  C    1.078371   0.000000
     3  C    2.216078   1.392305   0.000000
     4  C    2.213698   1.397842   2.238074   0.000000
     5  H    2.677643   2.207544   1.079556   3.284792   0.000000
     6  H    3.136369   2.265074   2.637633   1.292877   3.652654
     7  C    3.295307   2.247892   1.393962   2.214053   2.211698
     8  N    3.374943   2.331209   2.282277   1.458050   3.315391
     9  H    2.735032   2.245758   3.283418   1.079126   4.306656
    10  H    4.317021   3.298008   2.226511   3.245625   2.696494
                    6          7          8          9         10
     6  H    0.000000
     7  C    2.142526   0.000000
     8  N    1.271662   1.352776   0.000000
     9  H    1.881760   3.217255   2.193116   0.000000
    10  H    2.934909   1.080618   2.109012   4.201243   0.000000
 Symmetry turned off by external request.
 Stoichiometry    C4H5N
 Framework group  C1[X(C4H5N)]
 Deg. of freedom    24
 Full point group                 C1      NOp   1
 Rotational constants (GHZ):           9.2001512           8.8402733           4.5957964
 1\1\GINC-BHC0069\FTS\RB3LYP\def2TZVP\C4H5N1\DHANAWAY\10-Jun-2022\1\\# 
 Opt=(TS, CalcFC, noeigentest, Z-matrix, MaxStep=10) geom=allcheckpoint
  guess=read Field=read NoSymm B3LYP/Def2TZVP freq=noraman pop=none\\ts
 _zmat_initalOpt\\0,1\H\C,1,R2\C,2,R3,1,A3\C,2,R4,1,A4,3,D4,0\H,3,R5,2,
 A5,1,D5,0\H,4,R6,2,A6,1,D6,0\C,3,R7,2,A7,5,D7,0\N,4,R8,2,A8,6,D8,0\H,4
 ,R9,2,A9,6,D9,0\H,7,R10,3,A10,2,D10,0\\R2=1.07837073\R3=1.39230523\R4=
 1.39784224\R5=1.07955551\R6=1.29287695\R7=1.39396212\R8=1.45804979\R9=
 1.07912591\R10=1.08061761\A3=127.05847548\A4=126.27217513\A5=126.05493
 54\A6=114.60746937\A7=107.56408838\A8=109.4103032\A9=129.64710651\A10=
 127.79983084\D4=180.32443457\D5=-1.25950496\D6=121.66122192\D7=-177.51
 530003\D8=59.13414381\D9=-137.7667147\D10=173.68620852\\Version=ES64L-
 G16RevA.03\HF=-210.1814056\RMSD=6.854e-09\RMSF=1.553e-04\Dipole=0.0305
 753,-0.3593844,-0.9174165\PG=C01 [X(C4H5N1)]\\@


 NEVER LOSE YOUR IGNORANCE, IT CAN'T BE REPLACED.
   -- ANDY CAPP
 Job cpu time:       0 days  0 hours 20 minutes 10.3 seconds.
 Elapsed time:       0 days  0 hours  1 minutes 46.3 seconds.
 File lengths (MBytes):  RWF=     34 Int=      0 D2E=      0 Chk=     32 Scr=      1
 Normal termination of Gaussian 16 at Fri Jun 10 23:18:52 2022.
 Link1:  Proceeding to internal job step number  2.
 --------------------------------------------------------------------
 #N Geom=AllCheck Guess=TCheck SCRF=Check GenChk RB3LYP/def2TZVP Freq
 --------------------------------------------------------------------
 1/5=1,8=10,10=4,11=1,29=7,30=1,38=1,40=1/1,3;
 2/12=2,15=1,40=1/2;
 3/5=44,7=101,11=2,14=-4,25=1,30=1,70=2,71=2,74=-5,116=1,140=1/1,2,3;
 4/5=101/1;
 5/5=2,38=6,98=1/2;
 8/6=4,10=90,11=11/1;
 11/6=1,8=1,9=11,15=111,16=1,31=1/1,2,10;
 10/6=1,31=1/2;
 7/8=1,10=1,25=1,30=1/1,2,3,16;
 1/5=1,8=10,10=4,11=1,30=1/3;
 99//99;
 Structure from the checkpoint file:  "checkpoint.chk"
 -----------------
 ts_zmat_initalOpt
 -----------------
 Charge =  0 Multiplicity = 1
 Z-Matrix found in chk file.
 H
 C,1,R2
 C,2,R3,1,A3
 C,2,R4,1,A4,3,D4,0
 H,3,R5,2,A5,1,D5,0
 H,4,R6,2,A6,1,D6,0
 C,3,R7,2,A7,5,D7,0
 N,4,R8,2,A8,6,D8,0
 H,4,R9,2,A9,6,D9,0
 H,7,R10,3,A10,2,D10,0
      Variables:
 R2=1.07837073
 R3=1.39230523
 R4=1.39784224
 R5=1.07955551
 R6=1.29287695
 R7=1.39396212
 R8=1.45804979
 R9=1.07912591
 R10=1.08061761
 A3=127.05847548
 A4=126.27217513
 A5=126.0549354
 A6=114.60746937
 A7=107.56408838
 A8=109.4103032
 A9=129.64710651
 A10=127.79983084
 D4=180.32443457
 D5=-1.25950496
 D6=121.66122192
 D7=-177.51530003
 D8=59.13414381
 D9=-137.7667147
 D10=173.68620852
 Recover connectivity data from disk.

 GradGradGradGradGradGradGradGradGradGradGradGradGradGradGradGradGradGrad
 Berny optimization.
 Initialization pass.
                       ----------------------------
                       !    Initial Parameters    !
                       ! (Angstroms and Degrees)  !
 ----------------------                            ----------------------
 !      Name          Value   Derivative information (Atomic Units)     !
 ------------------------------------------------------------------------
 !       R2          1.0784   calculate D2E/DX2 analytically            !
 !       R3          1.3923   calculate D2E/DX2 analytically            !
 !       R4          1.3978   calculate D2E/DX2 analytically            !
 !       R5          1.0796   calculate D2E/DX2 analytically            !
 !       R6          1.2929   calculate D2E/DX2 analytically            !
 !       R7          1.394    calculate D2E/DX2 analytically            !
 !       R8          1.458    calculate D2E/DX2 analytically            !
 !       R9          1.0791   calculate D2E/DX2 analytically            !
 !       R10         1.0806   calculate D2E/DX2 analytically            !
 !       A3        127.0585   calculate D2E/DX2 analytically            !
 !       A4        126.2722   calculate D2E/DX2 analytically            !
 !       A5        126.0549   calculate D2E/DX2 analytically            !
 !       A6        114.6075   calculate D2E/DX2 analytically            !
 !       A7        107.5641   calculate D2E/DX2 analytically            !
 !       A8        109.4103   calculate D2E/DX2 analytically            !
 !       A9        129.6471   calculate D2E/DX2 analytically            !
 !       A10       127.7998   calculate D2E/DX2 analytically            !
 !       D4        180.3244   calculate D2E/DX2 analytically            !
 !       D5         -1.2595   calculate D2E/DX2 analytically            !
 !       D6        121.6612   calculate D2E/DX2 analytically            !
 !       D7       -177.5153   calculate D2E/DX2 analytically            !
 !       D8         59.1341   calculate D2E/DX2 analytically            !
 !       D9       -137.7667   calculate D2E/DX2 analytically            !
 !       D10       173.6862   calculate D2E/DX2 analytically            !
 ------------------------------------------------------------------------
 Trust Radius=1.00D-01 FncErr=1.00D-07 GrdErr=1.00D-07 EigMax=2.50D+02 EigMin=1.00D-04
 Number of steps in this run=      2 maximum allowed number of steps=      2.
 Search for a saddle point of order  1.
 GradGradGradGradGradGradGradGradGradGradGradGradGradGradGradGradGradGrad

                          Input orientation:                          
 ---------------------------------------------------------------------
 Center     Atomic      Atomic             Coordinates (Angstroms)
 Number     Number       Type             X           Y           Z
 ---------------------------------------------------------------------
      1          1           0        0.000000    0.000000    0.000000
      2          6           0        0.000000    0.000000    1.078371
      3          6           0        1.111089    0.000000    1.917415
      4          6           0       -1.126944   -0.006381    1.905365
      5          1           0        2.143968   -0.019184    1.603996
      6          1           0       -1.190279   -1.007268    2.721296
      7          6           0        0.646086   -0.028416    3.231225
      8          7           0       -0.704208    0.015102    3.300621
      9          1           0       -2.155642    0.218299    1.669117
     10          1           0        1.226351   -0.130322    4.137118
 ---------------------------------------------------------------------
                    Distance matrix (angstroms):
                    1          2          3          4          5
     1  H    0.000000
     2  C    1.078371   0.000000
     3  C    2.216078   1.392305   0.000000
     4  C    2.213698   1.397842   2.238074   0.000000
     5  H    2.677643   2.207544   1.079556   3.284792   0.000000
     6  H    3.136369   2.265074   2.637633   1.292877   3.652654
     7  C    3.295307   2.247892   1.393962   2.214053   2.211698
     8  N    3.374943   2.331209   2.282277   1.458050   3.315391
     9  H    2.735032   2.245758   3.283418   1.079126   4.306656
    10  H    4.317021   3.298008   2.226511   3.245625   2.696494
                    6          7          8          9         10
     6  H    0.000000
     7  C    2.142526   0.000000
     8  N    1.271662   1.352776   0.000000
     9  H    1.881760   3.217255   2.193116   0.000000
    10  H    2.934909   1.080618   2.109012   4.201243   0.000000
 Symmetry turned off by external request.
 Stoichiometry    C4H5N
 Framework group  C1[X(C4H5N)]
 Deg. of freedom    24
 Full point group                 C1      NOp   1
 Rotational constants (GHZ):           9.2001512           8.8402733           4.5957964
 Standard basis: def2TZVP (5D, 7F)
 The following finite field(s) will be applied:
 An electric field of              0.0010  0.0026  0.0070
   185 basis functions,   295 primitive gaussians,   210 cartesian basis functions
    18 alpha electrons       18 beta electrons
       nuclear repulsion energy       160.5351735816 Hartrees.
 NAtoms=   10 NActive=   10 NUniq=   10 SFac= 1.00D+00 NAtFMM=   60 NAOKFM=F Big=F
 Integral buffers will be    131072 words long.
 Raffenetti 2 integral format.
 Two-electron integral symmetry is turned off.
 One-electron integrals computed using PRISM.
   1 Symmetry operations used in ECPInt.
 ECPInt:  NShTT=    2850 NPrTT=    8640 LenC2=    2843 LenP2D=    7479.
 LDataN:  DoStor=T MaxTD1= 6 Len=  172
 NBasis=   185 RedAO= T EigKep=  5.72D-05  NBF=   185
 NBsUse=   185 1.00D-06 EigRej= -1.00D+00 NBFU=   185
 The nuclear repulsion energy is now       161.6093541809 hartrees.
 Initial guess from the checkpoint file:  "checkpoint.chk"
 B after Tr=     0.000000    0.000000    0.000000
         Rot=    1.000000    0.000000    0.000000    0.000000 Ang=   0.00 deg.
 Keep R1 ints in memory in canonical form, NReq=160464061.
 Requested convergence on RMS density matrix=1.00D-08 within 128 cycles.
 Requested convergence on MAX density matrix=1.00D-06.
 Requested convergence on             energy=1.00D-06.
 No special actions if energy rises.
 SCF Done:  E(RB3LYP) =  -210.181405578     A.U. after    1 cycles
            NFock=  1  Conv=0.61D-08     -V/T= 2.0052
 DoSCS=F DFT=T ScalE2(SS,OS)=  1.000000  1.000000
 Range of M.O.s used for correlation:     1   185
 NBasis=   185 NAE=    18 NBE=    18 NFC=     0 NFV=     0
 NROrb=    185 NOA=    18 NOB=    18 NVA=   167 NVB=   167

 **** Warning!!: The largest alpha MO coefficient is  0.24556432D+02

   1 Symmetry operations used in ECPInt.
 ECPInt:  NShTT=    2850 NPrTT=    8640 LenC2=    2843 LenP2D=    7479.
 LDataN:  DoStor=T MaxTD1= 7 Len=  274
 Symmetrizing basis deriv contribution to polar:
 IMax=3 JMax=2 DiffMx= 0.00D+00
 G2DrvN: will do    11 centers at a time, making    1 passes.
 Calling FoFCou, ICntrl=  3107 FMM=F I1Cent=   0 AccDes= 0.00D+00.
 End of G2Drv F.D. properties file   721 does not exist.
 End of G2Drv F.D. properties file   722 does not exist.
 End of G2Drv F.D. properties file   788 does not exist.
          IDoAtm=1111111111
          Differentiating once with respect to electric field.
                with respect to dipole field.
          Differentiating once with respect to nuclear coordinates.
 Keep R1 ints in memory in canonical form, NReq=160431867.
          There are    33 degrees of freedom in the 1st order CPHF.  IDoFFX=6 NUNeed=     3.
     30 vectors produced by pass  0 Test12= 9.11D-15 3.03D-09 XBig12= 6.53D+01 4.52D+00.
 AX will form    30 AO Fock derivatives at one time.
     30 vectors produced by pass  1 Test12= 9.11D-15 3.03D-09 XBig12= 1.45D+01 5.95D-01.
     30 vectors produced by pass  2 Test12= 9.11D-15 3.03D-09 XBig12= 1.36D-01 7.17D-02.
     30 vectors produced by pass  3 Test12= 9.11D-15 3.03D-09 XBig12= 4.57D-04 3.28D-03.
     30 vectors produced by pass  4 Test12= 9.11D-15 3.03D-09 XBig12= 8.35D-07 1.08D-04.
     27 vectors produced by pass  5 Test12= 9.11D-15 3.03D-09 XBig12= 1.55D-09 6.17D-06.
      5 vectors produced by pass  6 Test12= 9.11D-15 3.03D-09 XBig12= 1.74D-12 1.83D-07.
      2 vectors produced by pass  7 Test12= 9.11D-15 3.03D-09 XBig12= 1.91D-15 6.42D-09.
 InvSVY:  IOpt=1 It=  1 EMax= 1.07D-14
 Solved reduced A of dimension   184 with    33 vectors.
 Isotropic polarizability for W=    0.000000       50.45 Bohr**3.
 End of Minotr F.D. properties file   721 does not exist.
 End of Minotr F.D. properties file   722 does not exist.
 End of Minotr F.D. properties file   788 does not exist.
   1 Symmetry operations used in ECPInt.
 ECPInt:  NShTT=    2850 NPrTT=    8640 LenC2=    2843 LenP2D=    7479.
 LDataN:  DoStor=T MaxTD1= 8 Len=  415
 Calling FoFJK, ICntrl=    100127 FMM=F ISym2X=0 I1Cent= 0 IOpClX= 0 NMat=1 NMatS=1 NMatT=0.
 Full mass-weighted force constant matrix:
 Low frequencies ----1487.4544   -7.6144   -0.0010   -0.0005   -0.0004   15.8233
 Low frequencies ---   25.0825  590.4253  639.6409
 ******    1 imaginary frequencies (negative Signs) ****** 
 Diagonal vibrational polarizability:
        1.7964314       5.2219168       2.6336751
 Harmonic frequencies (cm**-1), IR intensities (KM/Mole), Raman scattering
 activities (A**4/AMU), depolarization ratios for plane and unpolarized
 incident light, reduced masses (AMU), force constants (mDyne/A),
 and normal coordinates:
                      1                      2                      3
                      A                      A                      A
 Frequencies --  -1487.4526               590.4245               639.6403
 Red. masses --      1.2135                 2.2512                 3.8735
 Frc consts  --      1.5818                 0.4624                 0.9337
 IR Inten    --    101.8660                 2.2351                 3.4974
  Atom  AN      X      Y      Z        X      Y      Z        X      Y      Z
     1   1    -0.01   0.00   0.00     0.00  -0.30   0.00     0.03   0.52   0.01
     2   6    -0.03   0.00   0.00     0.01  -0.20   0.00     0.01   0.15   0.01
     3   6     0.01  -0.00   0.03     0.00   0.22  -0.00     0.00  -0.00  -0.00
     4   6     0.02   0.06  -0.05     0.00   0.05   0.00    -0.02  -0.31  -0.01
     5   1     0.00   0.01   0.01     0.01   0.56   0.00     0.00   0.14  -0.01
     6   1     0.23   0.14   0.94    -0.38   0.15   0.13    -0.16   0.08   0.43
     7   6     0.04  -0.01  -0.02    -0.00  -0.15  -0.01    -0.01  -0.19   0.00
     8   7    -0.05  -0.05  -0.04     0.01   0.04   0.00     0.02   0.30  -0.02
     9   1    -0.03  -0.16  -0.01     0.09   0.40  -0.04    -0.01  -0.32  -0.07
    10   1     0.00   0.01   0.00     0.00  -0.36  -0.03    -0.04  -0.38   0.00
                      4                      5                      6
                      A                      A                      A
 Frequencies --    754.5743               835.9516               874.4003
 Red. masses --      1.1169                 1.4326                 3.6802
 Frc consts  --      0.3747                 0.5898                 1.6579
 IR Inten    --     93.4267                 3.7268                14.1282
  Atom  AN      X      Y      Z        X      Y      Z        X      Y      Z
     1   1    -0.02   0.52   0.01     0.02  -0.37   0.02    -0.09   0.32  -0.25
     2   6     0.00  -0.03   0.01    -0.01   0.04   0.02     0.05  -0.05  -0.25
     3   6     0.01  -0.07  -0.00     0.01   0.01   0.02    -0.13  -0.03  -0.04
     4   6     0.00  -0.03   0.01    -0.02   0.06   0.01     0.21   0.06  -0.01
     5   1     0.01   0.39  -0.01    -0.01   0.18  -0.04    -0.02   0.30   0.29
     6   1    -0.28   0.02   0.13     0.08  -0.01  -0.15     0.13   0.06  -0.03
     7   6    -0.00   0.01  -0.00     0.01  -0.17   0.00    -0.07  -0.06  -0.00
     8   7     0.01  -0.03  -0.03     0.02   0.04  -0.04    -0.08   0.03   0.28
     9   1     0.09   0.43   0.05    -0.13  -0.38   0.04     0.14  -0.45  -0.17
    10   1    -0.00   0.52   0.06    -0.04   0.76   0.13     0.26   0.22  -0.19
                      7                      8                      9
                      A                      A                      A
 Frequencies --    883.4104               891.6652               939.9798
 Red. masses --      1.6575                 3.1008                 1.8614
 Frc consts  --      0.7621                 1.4526                 0.9690
 IR Inten    --     10.2770                 5.1789                11.7520
  Atom  AN      X      Y      Z        X      Y      Z        X      Y      Z
     1   1     0.14  -0.46  -0.12     0.23   0.36  -0.10    -0.21  -0.52  -0.04
     2   6    -0.00   0.10  -0.12    -0.07  -0.08  -0.10     0.01   0.10  -0.04
     3   6    -0.11   0.05   0.03    -0.21  -0.04   0.11    -0.01  -0.12  -0.03
     4   6     0.04  -0.09  -0.03    -0.01   0.06  -0.07     0.12  -0.01   0.14
     5   1    -0.10  -0.41   0.09    -0.26   0.36  -0.07     0.03   0.64   0.05
     6   1    -0.20   0.03   0.21     0.27  -0.04  -0.23    -0.11  -0.07   0.06
     7   6     0.01  -0.02   0.07     0.11   0.03   0.21    -0.06   0.06   0.01
     8   7     0.05  -0.02   0.01     0.15   0.02  -0.13    -0.03  -0.00  -0.09
     9   1     0.13   0.53   0.20    -0.15  -0.28   0.20     0.10  -0.04   0.21
    10   1     0.11   0.26   0.04     0.02  -0.31   0.23    -0.17  -0.30   0.04
                     10                     11                     12
                      A                      A                      A
 Frequencies --    954.9783              1067.3740              1092.9800
 Red. masses --      2.1174                 1.3714                 1.2427
 Frc consts  --      1.1377                 0.9205                 0.8746
 IR Inten    --     27.9535                11.5042                 1.2335
  Atom  AN      X      Y      Z        X      Y      Z        X      Y      Z
     1   1     0.39  -0.43   0.03     0.23   0.05  -0.05     0.72   0.07  -0.01
     2   6     0.02   0.08   0.03     0.02  -0.01  -0.05     0.09  -0.01  -0.01
     3   6     0.00  -0.11   0.01     0.02  -0.01   0.06    -0.02   0.01  -0.06
     4   6    -0.15  -0.02  -0.16    -0.09   0.01   0.03    -0.01   0.02   0.07
     5   1    -0.02   0.61  -0.11     0.22   0.04   0.73    -0.14  -0.06  -0.45
     6   1    -0.01   0.09   0.01     0.05  -0.00   0.03    -0.21   0.04   0.13
     7   6     0.06   0.04  -0.01    -0.04   0.00  -0.10    -0.05   0.01  -0.01
     8   7     0.02  -0.01   0.14     0.05   0.00  -0.02    -0.02  -0.01   0.01
     9   1    -0.10   0.13  -0.25    -0.21  -0.03   0.47    -0.11  -0.19   0.32
    10   1     0.23  -0.11  -0.12     0.12  -0.02  -0.21    -0.12  -0.01   0.03
                     13                     14                     15
                      A                      A                      A
 Frequencies --   1135.3407              1176.9107              1249.1540
 Red. masses --      2.1878                 1.1481                 1.7888
 Frc consts  --      1.6616                 0.9369                 1.6445
 IR Inten    --      2.0026                26.3045                 1.9175
  Atom  AN      X      Y      Z        X      Y      Z        X      Y      Z
     1   1    -0.30   0.01  -0.19     0.10   0.01   0.01    -0.14   0.01  -0.05
     2   6    -0.01  -0.01  -0.17    -0.00  -0.02   0.01     0.02  -0.00  -0.04
     3   6     0.19   0.01  -0.06     0.00   0.00   0.00     0.07   0.00   0.03
     4   6    -0.11   0.00  -0.05     0.02  -0.03  -0.00    -0.03  -0.00   0.02
     5   1     0.20   0.01  -0.08    -0.05   0.11  -0.19     0.03  -0.03  -0.14
     6   1    -0.01   0.05   0.07     0.78  -0.18  -0.09    -0.27  -0.02  -0.12
     7   6     0.01   0.00   0.13    -0.01  -0.04  -0.02     0.12  -0.01   0.09
     8   7    -0.00  -0.01   0.08    -0.07   0.05   0.01    -0.18   0.02  -0.05
     9   1    -0.22   0.00   0.39     0.06   0.42   0.32    -0.13  -0.09   0.33
    10   1    -0.52  -0.04   0.48    -0.02   0.01  -0.02     0.76  -0.01  -0.31
                     16                     17                     18
                      A                      A                      A
 Frequencies --   1311.9857              1432.9264              1483.0264
 Red. masses --      1.8081                 2.8954                 3.1228
 Frc consts  --      1.8337                 3.5028                 4.0466
 IR Inten    --      2.2216                 8.2098                 3.0151
  Atom  AN      X      Y      Z        X      Y      Z        X      Y      Z
     1   1    -0.55  -0.00   0.09    -0.29   0.01  -0.04    -0.02   0.01  -0.23
     2   6     0.08  -0.00   0.08     0.23  -0.00  -0.03    -0.05   0.00  -0.19
     3   6    -0.02  -0.01   0.05    -0.05   0.00  -0.14     0.13  -0.00   0.31
     4   6     0.05   0.00  -0.15    -0.18   0.03   0.11    -0.06  -0.00   0.12
     5   1    -0.15   0.02  -0.36    -0.00   0.00   0.00    -0.17   0.00  -0.69
     6   1    -0.11   0.15   0.02     0.42  -0.14   0.30     0.02  -0.08   0.04
     7   6    -0.15   0.01  -0.02    -0.14  -0.02   0.16    -0.09   0.01  -0.10
     8   7     0.09  -0.01   0.02     0.08  -0.01  -0.05     0.07  -0.00  -0.01
     9   1    -0.14  -0.11   0.58    -0.04   0.12  -0.48     0.06   0.05  -0.42
    10   1     0.14  -0.00  -0.21     0.42   0.05  -0.18     0.08   0.01  -0.24
                     19                     20                     21
                      A                      A                      A
 Frequencies --   1511.1039              2182.1286              3201.8374
 Red. masses --      3.5672                 1.0725                 1.0899
 Frc consts  --      4.7991                 3.0089                 6.5831
 IR Inten    --      1.7001                16.8443                14.8927
  Atom  AN      X      Y      Z        X      Y      Z        X      Y      Z
     1   1    -0.56  -0.00  -0.03     0.01   0.00  -0.01     0.00  -0.00  -0.06
     2   6     0.28  -0.00  -0.03     0.00   0.00  -0.01    -0.00  -0.00   0.00
     3   6    -0.18   0.00   0.11    -0.00  -0.00  -0.00     0.03  -0.00  -0.01
     4   6    -0.10  -0.01   0.05    -0.01  -0.05   0.04    -0.00   0.00   0.00
     5   1    -0.27  -0.01  -0.04    -0.00   0.01  -0.00    -0.34   0.01   0.10
     6   1    -0.07  -0.01  -0.01     0.20   0.96  -0.17     0.00  -0.00   0.00
     7   6     0.23   0.00  -0.18    -0.00   0.00   0.01    -0.04   0.01  -0.07
     8   7    -0.08   0.00   0.03    -0.01  -0.03  -0.02     0.00  -0.00  -0.00
     9   1    -0.13   0.02   0.05     0.03   0.01  -0.02     0.06  -0.01   0.01
    10   1    -0.53  -0.01   0.28     0.01   0.01  -0.01     0.50  -0.09   0.78
                     22                     23                     24
                      A                      A                      A
 Frequencies --   3226.8424              3232.3509              3250.7734
 Red. masses --      1.0948                 1.0928                 1.1040
 Frc consts  --      6.7164                 6.7272                 6.8734
 IR Inten    --      7.0943                 0.4936                 1.1001
  Atom  AN      X      Y      Z        X      Y      Z        X      Y      Z
     1   1    -0.00  -0.00   0.43    -0.01  -0.00  -0.29    -0.00  -0.00   0.85
     2   6     0.00   0.00  -0.04     0.00   0.00   0.02     0.00   0.00  -0.08
     3   6    -0.07   0.00   0.02    -0.03   0.00   0.01     0.03  -0.00  -0.01
     4   6     0.02  -0.00   0.01    -0.07   0.02  -0.01    -0.04   0.01  -0.01
     5   1     0.75  -0.01  -0.23     0.38  -0.01  -0.12    -0.28   0.00   0.08
     6   1     0.00   0.01   0.00    -0.01  -0.01  -0.00    -0.00  -0.00   0.00
     7   6    -0.01   0.00  -0.03    -0.00   0.00  -0.01     0.00  -0.00   0.01
     8   7     0.00  -0.00   0.00     0.00   0.00  -0.00    -0.00   0.00   0.00
     9   1    -0.24   0.05  -0.06     0.82  -0.18   0.19     0.41  -0.09   0.09
    10   1     0.18  -0.03   0.29     0.04  -0.01   0.07    -0.04   0.01  -0.07

 -------------------
 - Thermochemistry -
 -------------------
 Temperature   298.150 Kelvin.  Pressure   1.00000 Atm.
 Atom     1 has atomic number  1 and mass   1.00783
 Atom     2 has atomic number  6 and mass  12.00000
 Atom     3 has atomic number  6 and mass  12.00000
 Atom     4 has atomic number  6 and mass  12.00000
 Atom     5 has atomic number  1 and mass   1.00783
 Atom     6 has atomic number  1 and mass   1.00783
 Atom     7 has atomic number  6 and mass  12.00000
 Atom     8 has atomic number  7 and mass  14.00307
 Atom     9 has atomic number  1 and mass   1.00783
 Atom    10 has atomic number  1 and mass   1.00783
 Molecular mass:    67.04220 amu.
 Principal axes and moments of inertia in atomic units:
                           1         2         3
     Eigenvalues --   196.16430 204.14993 392.69390
           X           -0.38175   0.92426  -0.00371
           Y           -0.01612  -0.00265   0.99987
           Z            0.92413   0.38175   0.01591
 This molecule is an asymmetric top.
 Rotational symmetry number  1.
 Rotational temperatures (Kelvin)      0.44154     0.42427     0.22056
 Rotational constants (GHZ):           9.20015     8.84027     4.59580
    1 imaginary frequencies ignored.
 Zero-point vibrational energy     202885.2 (Joules/Mol)
                                   48.49073 (Kcal/Mol)
 Warning -- explicit consideration of   1 degrees of freedom as
           vibrations may cause significant error
 Vibrational temperatures:    849.49   920.30  1085.66  1202.75  1258.07
          (Kelvin)           1271.03  1282.91  1352.42  1374.00  1535.71
                             1572.55  1633.50  1693.31  1797.25  1887.65
                             2061.66  2133.74  2174.14  3139.60  4606.73
                             4642.71  4650.63  4677.14
 
 Zero-point correction=                           0.077275 (Hartree/Particle)
 Thermal correction to Energy=                    0.080971
 Thermal correction to Enthalpy=                  0.081916
 Thermal correction to Gibbs Free Energy=         0.050990
 Sum of electronic and zero-point Energies=           -210.104131
 Sum of electronic and thermal Energies=              -210.100434
 Sum of electronic and thermal Enthalpies=            -210.099490
 Sum of electronic and thermal Free Energies=         -210.130415
 
                     E (Thermal)             CV                S
                      KCal/Mol        Cal/Mol-Kelvin    Cal/Mol-Kelvin
 Total                   50.810             13.368             65.088
 Electronic               0.000              0.000              0.000
 Translational            0.889              2.981             38.526
 Rotational               0.889              2.981             24.268
 Vibrational             49.033              7.407              2.294
 Vibration     1          0.948              1.052              0.466
                       Q            Log10(Q)             Ln(Q)
 Total Bot       0.351689D-23        -23.453841        -54.004464
 Total V=0       0.123059D+13         12.090113         27.838515
 Vib (Bot)       0.363100D-35        -35.439974        -81.603556
 Vib (Bot)    1  0.255389D+00         -0.592797         -1.364967
 Vib (V=0)       0.127052D+01          0.103980          0.239423
 Vib (V=0)    1  0.106145D+01          0.025899          0.059634
 Electronic      0.100000D+01          0.000000          0.000000
 Translational   0.215763D+08          7.333976         16.887104
 Rotational      0.448908D+05          4.652157         10.711988
 -------------------------------------------------------------------
 Center     Atomic                   Forces (Hartrees/Bohr)
 Number     Number              X              Y              Z
 -------------------------------------------------------------------
      1        1          -0.000537339   -0.000090462   -0.000000072
      2        6           0.000540453    0.000301358   -0.000000136
      3        6           0.000000585   -0.000208479   -0.000001461
      4        6          -0.000007909   -0.000000777   -0.000001610
      5        1           0.000000032   -0.000000320   -0.000000161
      6        1          -0.000002084    0.000001086    0.000000835
      7        6           0.000003121    0.000000839    0.000003495
      8        7           0.000002764   -0.000002988    0.000001207
      9        1          -0.000000689   -0.000000706   -0.000002309
     10        1           0.000001065    0.000000449    0.000000212
 -------------------------------------------------------------------
 Cartesian Forces:  Max     0.000540453 RMS     0.000155286
 -----------------------------------------------------------------------------------------------
                       Internal Coordinate Forces (Hartree/Bohr or radian)
  Cent   Atom   N1       Length/X         N2         Alpha/Y        N3         Beta/Z          J
 -----------------------------------------------------------------------------------------------
      1  H 
      2  C        1   0.000000(     1)
      3  C        2   0.000005(     2)      1  -0.000019(    10)
      4  C        2   0.000005(     3)      1  -0.000017(    11)      3   0.000002(    18)     0
      5  H        3   0.000000(     4)      2  -0.000000(    12)      1  -0.000004(    19)     0
      6  H        4  -0.000000(     5)      2   0.000006(    13)      1  -0.000006(    20)     0
      7  C        3   0.000002(     6)      2   0.000015(    14)      5  -0.000003(    21)     0
      8  N        4   0.000002(     7)      2  -0.000006(    15)      6  -0.000008(    22)     0
      9  H        4   0.000001(     8)      2  -0.000004(    16)      6   0.000002(    23)     0
     10  H        7   0.000001(     9)      3  -0.000002(    17)      2   0.000001(    24)     0
 -----------------------------------------------------------------------------------------------
 Internal  Forces:  Max     0.000018774 RMS     0.000007004

 GradGradGradGradGradGradGradGradGradGradGradGradGradGradGradGradGradGrad
 Berny optimization.
 Search for a saddle point.
 Step number   1 out of a maximum of    2
 All quantities printed in internal units (Hartrees-Bohrs-Radians)
 Swapping is turned off.
 Second derivative matrix not updated -- analytic derivatives used.
 ITU=  0
     Eigenvalues ---   -0.23902   0.01568   0.03627   0.04223   0.05630
     Eigenvalues ---    0.09990   0.12355   0.17566   0.20588   0.22038
     Eigenvalues ---    0.23273   0.28646   0.33959   0.36089   0.36263
     Eigenvalues ---    0.36830   0.36860   0.41234   0.47558   0.49913
     Eigenvalues ---    0.64639   2.12576   2.89202  21.67150
 Eigenvectors required to have negative eigenvalues:
                          D8        R6        D6        R8        R4
   1                    0.65916  -0.53105  -0.33252   0.18406   0.15213
                          D5        A6        A8        D4        R3
   1                   -0.13783  -0.12610  -0.12512  -0.12218  -0.12015
 Angle between quadratic step and forces=  79.91 degrees.
 Linear search not attempted -- option 19 set.
 Variable       Old X    -DE/DX   Delta X   Delta X   Delta X     New X
                                 (Linear)    (Quad)   (Total)
    R2        2.03783   0.00000   0.00000   0.00000   0.00000   2.03783
    R3        2.63108   0.00001   0.00000  -0.00000  -0.00000   2.63107
    R4        2.64154   0.00001   0.00000   0.00001   0.00001   2.64155
    R5        2.04006   0.00000   0.00000   0.00000   0.00000   2.04006
    R6        2.44318  -0.00000   0.00000  -0.00000  -0.00000   2.44318
    R7        2.63421   0.00000   0.00000   0.00000   0.00000   2.63421
    R8        2.75531   0.00000   0.00000   0.00002   0.00002   2.75533
    R9        2.03925   0.00000   0.00000   0.00000   0.00000   2.03925
   R10        2.04207   0.00000   0.00000   0.00000   0.00000   2.04207
    A3        2.21759  -0.00002   0.00000  -0.00001  -0.00001   2.21758
    A4        2.20387  -0.00002   0.00000   0.00000   0.00000   2.20387
    A5        2.20007  -0.00000   0.00000  -0.00000  -0.00000   2.20007
    A6        2.00028   0.00001   0.00000   0.00002   0.00002   2.00029
    A7        1.87735   0.00002   0.00000   0.00000   0.00000   1.87735
    A8        1.90957  -0.00001   0.00000  -0.00001  -0.00001   1.90956
    A9        2.26277  -0.00000   0.00000  -0.00001  -0.00001   2.26276
   A10        2.23053  -0.00000   0.00000  -0.00000  -0.00000   2.23053
    D4        3.14726   0.00000   0.00000   0.00010   0.00010   3.14736
    D5       -0.02198  -0.00000   0.00000   0.00007   0.00007  -0.02191
    D6        2.12339  -0.00001   0.00000  -0.00006  -0.00006   2.12332
    D7       -3.09823  -0.00000   0.00000  -0.00000  -0.00000  -3.09823
    D8        1.03209  -0.00001   0.00000  -0.00000  -0.00000   1.03208
    D9       -2.40448   0.00000   0.00000  -0.00000  -0.00000  -2.40448
   D10        3.03140   0.00000   0.00000   0.00002   0.00002   3.03141
         Item               Value     Threshold  Converged?
 Maximum Force            0.000019     0.000450     YES
 RMS     Force            0.000007     0.000300     YES
 Maximum Displacement     0.000102     0.001800     YES
 RMS     Displacement     0.000029     0.001200     YES
 Predicted change in Energy=-4.333421D-10
 Optimization completed.
    -- Stationary point found.
                       ----------------------------
                       !   Optimized Parameters   !
                       ! (Angstroms and Degrees)  !
 ----------------------                            ----------------------
 !      Name          Value   Derivative information (Atomic Units)     !
 ------------------------------------------------------------------------
 !       R2          1.0784   -DE/DX =    0.0                           !
 !       R3          1.3923   -DE/DX =    0.0                           !
 !       R4          1.3978   -DE/DX =    0.0                           !
 !       R5          1.0796   -DE/DX =    0.0                           !
 !       R6          1.2929   -DE/DX =    0.0                           !
 !       R7          1.394    -DE/DX =    0.0                           !
 !       R8          1.458    -DE/DX =    0.0                           !
 !       R9          1.0791   -DE/DX =    0.0                           !
 !       R10         1.0806   -DE/DX =    0.0                           !
 !       A3        127.0585   -DE/DX =    0.0                           !
 !       A4        126.2722   -DE/DX =    0.0                           !
 !       A5        126.0549   -DE/DX =    0.0                           !
 !       A6        114.6075   -DE/DX =    0.0                           !
 !       A7        107.5641   -DE/DX =    0.0                           !
 !       A8        109.4103   -DE/DX =    0.0                           !
 !       A9        129.6471   -DE/DX =    0.0                           !
 !       A10       127.7998   -DE/DX =    0.0                           !
 !       D4        180.3244   -DE/DX =    0.0                           !
 !       D5         -1.2595   -DE/DX =    0.0                           !
 !       D6        121.6612   -DE/DX =    0.0                           !
 !       D7       -177.5153   -DE/DX =    0.0                           !
 !       D8         59.1341   -DE/DX =    0.0                           !
 !       D9       -137.7667   -DE/DX =    0.0                           !
 !       D10       173.6862   -DE/DX =    0.0                           !
 ------------------------------------------------------------------------
 GradGradGradGradGradGradGradGradGradGradGradGradGradGradGradGradGradGrad


 ----------------------------------------------------------------------

 Electric dipole moment (input orientation):
 (Debye = 10**-18 statcoulomb cm , SI units = C m)
                  (au)            (Debye)         (10**-30 SI)
   Tot        0.985769D+00      0.250557D+01      0.835770D+01
   x          0.305816D-01      0.777307D-01      0.259282D+00
   y         -0.359385D+00     -0.913466D+00     -0.304699D+01
   z         -0.917413D+00     -0.233183D+01     -0.777815D+01

 Dipole polarizability, Alpha (input orientation).
 (esu units = cm**3 , SI units = C**2 m**2 J**-1)
 Alpha(0;0):
               (au)            (10**-24 esu)      (10**-40 SI)
   iso        0.504546D+02      0.747660D+01      0.831884D+01
   aniso      0.247339D+02      0.366519D+01      0.407807D+01
   xx         0.595736D+02      0.882790D+01      0.982236D+01
   yx         0.178725D+01      0.264843D+00      0.294678D+00
   yy         0.343192D+02      0.508559D+01      0.565848D+01
   zx         0.179575D+01      0.266102D+00      0.296079D+00
   zy        -0.106537D+01     -0.157872D+00     -0.175656D+00
   zz         0.574710D+02      0.851633D+01      0.947569D+01

 ----------------------------------------------------------------------

 Dipole orientation:
     1          0.00000000          0.00000000          0.00000000
     6          0.06321968          0.74293702         -1.89651785
     6          2.21101540          1.30869154         -3.30699792
     6         -2.01692274          1.33639397         -3.41261306
     1          4.14331558          1.11508590         -2.68202191
     1         -2.09979538          3.66041751         -4.16174027
     6          1.40943422          2.26898261         -5.62526306
     7         -1.13642967          2.25516515         -5.85645247
     1         -3.97127317          0.78966700         -3.21222730
     1          2.55740856          3.06598482         -7.11422166

 Electric dipole moment (dipole orientation):
 (Debye = 10**-18 statcoulomb cm , SI units = C m)
                  (au)            (Debye)         (10**-30 SI)
   Tot        0.985769D+00      0.250557D+01      0.835770D+01
   x          0.000000D+00      0.000000D+00      0.000000D+00
   y          0.000000D+00      0.000000D+00      0.000000D+00
   z          0.985769D+00      0.250557D+01      0.835770D+01

 Dipole polarizability, Alpha (dipole orientation).
 (esu units = cm**3 , SI units = C**2 m**2 J**-1)
 Alpha(0;0):
               (au)            (10**-24 esu)      (10**-40 SI)
   iso        0.504546D+02      0.747660D+01      0.831884D+01
   aniso      0.247339D+02      0.366519D+01      0.407807D+01
   xx         0.597026D+02      0.884702D+01      0.984363D+01
   yx        -0.866931D+00     -0.128466D+00     -0.142938D+00
   yy         0.381325D+02      0.565065D+01      0.628719D+01
   zx        -0.218710D+01     -0.324095D+00     -0.360604D+00
   zy        -0.865918D+01     -0.128316D+01     -0.142771D+01
   zz         0.535288D+02      0.793215D+01      0.882571D+01

 ----------------------------------------------------------------------
 1\1\GINC-BHC0069\Freq\RB3LYP\def2TZVP\C4H5N1\DHANAWAY\10-Jun-2022\1\\#
 N Geom=AllCheck Guess=TCheck SCRF=Check GenChk RB3LYP/def2TZVP Freq\\t
 s_zmat_initalOpt\\0,1\H\C,1,R2\C,2,R3,1,A3\C,2,R4,1,A4,3,D4,0\H,3,R5,2
 ,A5,1,D5,0\H,4,R6,2,A6,1,D6,0\C,3,R7,2,A7,5,D7,0\N,4,R8,2,A8,6,D8,0\H,
 4,R9,2,A9,6,D9,0\H,7,R10,3,A10,2,D10,0\\R2=1.07837073\R3=1.39230523\R4
 =1.39784224\R5=1.07955551\R6=1.29287695\R7=1.39396212\R8=1.45804979\R9
 =1.07912591\R10=1.08061761\A3=127.05847548\A4=126.27217513\A5=126.0549
 354\A6=114.60746937\A7=107.56408838\A8=109.4103032\A9=129.64710651\A10
 =127.79983084\D4=180.32443457\D5=-1.25950496\D6=121.66122192\D7=-177.5
 1530003\D8=59.13414381\D9=-137.7667147\D10=173.68620852\\Version=ES64L
 -G16RevA.03\HF=-210.1814056\RMSD=6.108e-09\RMSF=1.553e-04\ZeroPoint=0.
 0772749\Thermal=0.0809714\Dipole=0.0305816,-0.3593851,-0.9174133\Dipol
 eDeriv=0.1041375,-0.0038452,0.0036598,-0.0135727,0.1720657,0.0028201,-
 0.0034527,0.0038747,0.0203512,-0.0091656,0.0907769,-0.0013501,0.085577
 9,-0.1652166,0.0443763,0.0485877,0.0011524,-0.017351,0.0607987,-0.0358
 527,-0.0388796,0.0070181,-0.1623749,0.0418179,-0.06827,-0.0366474,-0.0
 234755,-0.0379779,-0.1369691,-0.054288,-0.3592424,-0.1678904,0.0181669
 ,-0.184681,-0.0407987,0.1150089,-0.051853,-0.0000963,0.0357986,0.00079
 04,0.1646367,-0.0093277,0.0325948,-0.0008758,0.0873231,0.0541428,0.001
 9523,0.0263369,-0.0014182,0.1048374,0.0244124,-0.1347322,-0.1164794,0.
 2694929,0.0045667,-0.0837791,0.0404407,-0.0079848,-0.1406035,-0.127053
 4,-0.0325824,-0.0142061,0.1845239,-0.1672291,0.1348439,0.0843311,0.151
 065,-0.1329,-0.0612073,0.4373447,0.176502,-0.6431025,0.0384175,0.02779
 73,-0.0136203,0.121668,0.177642,0.012072,0.0023811,0.0100199,0.0760441
 ,0.0041625,0.005172,-0.0824291,0.0160987,0.1498036,0.0539227,-0.09719,
 0.0174584,-0.0688151\Polar=59.5736046,1.7872492,34.3192469,1.7957472,-
 1.0653723,57.4710328\PG=C01 [X(C4H5N1)]\NImag=1\\0.04941521,0.00057551
 ,0.02377114,-0.00008450,-0.00026993,0.36951963,-0.05839932,0.00094683,
 0.00025582,0.56328809,-0.00116019,-0.03225014,0.00045877,-0.00286567,0
 .13283812,0.00034940,-0.00123228,-0.35409498,0.00305667,-0.00364672,0.
 84018140,0.00782033,0.00005347,0.00402935,-0.25652000,0.00036758,-0.12
 249660,0.81550267,0.00017207,0.00162057,-0.00012487,0.00113560,-0.0645
 8710,-0.00003346,-0.00372390,0.13411920,-0.02364827,0.00001501,-0.0067
 9320,-0.07663847,0.00079471,-0.19521152,-0.06983216,-0.00543630,0.5911
 5749,0.00829608,-0.00086868,-0.00432427,-0.23496566,0.00372816,0.11791
 094,-0.06715398,-0.00003341,-0.03828687,0.78372680,0.00089067,-0.00046
 962,-0.00031954,0.04703875,-0.06835960,0.00092763,-0.00890065,0.010234
 01,-0.03731258,-0.10331843,0.13875235,0.02224004,0.00160879,-0.0073109
 3,0.08267406,0.00293992,-0.17509037,0.02253812,0.00230886,0.05119974,0
 .01124075,-0.00303240,0.42317885,0.00051430,-0.00010378,-0.00023076,-0
 .01170909,0.00022395,0.01050059,-0.32302018,0.00457710,0.08021101,-0.0
 0326659,0.00054399,-0.00124657,0.33925102,0.00001534,-0.00294868,0.000
 02507,-0.00062655,0.00133152,-0.00040019,0.00583954,-0.03531585,-0.001
 43327,-0.00063634,0.00584795,-0.00120393,-0.00536836,0.02517401,0.0011
 4040,-0.00007419,0.00024465,-0.01804978,0.00026963,0.01207600,0.080842
 21,-0.00160261,-0.08446237,-0.00455797,-0.00046329,-0.00307029,-0.0876
 2986,0.00168991,0.07620891,0.00056405,0.00082653,0.00000434,0.01527797
 ,-0.01027124,-0.00381491,-0.00928683,-0.00145018,-0.01787720,-0.020613
 40,-0.03106251,0.03628885,0.00008646,0.00312220,-0.00041693,0.04532085
 ,0.00043143,0.00050316,-0.00005456,0.00704833,0.00263582,-0.00595904,-
 0.00304357,-0.00020625,-0.00735305,-0.00724834,-0.09626716,0.06683856,
 0.00024927,0.00084810,-0.00044136,0.02182028,0.15964942,0.00110395,-0.
 00007941,-0.00021517,0.05456379,0.00407475,-0.01045572,-0.00806757,0.0
 0240469,-0.04129982,-0.03405333,-0.04427884,0.04185069,-0.00017554,-0.
 00197963,-0.00135286,-0.02367174,-0.03667976,-0.04985739,-0.00484573,-
 0.00062073,-0.00097011,0.05019020,0.00141001,-0.00444678,-0.13720062,0
 .00493939,0.03997758,-0.08331246,-0.04812546,-0.00121443,-0.00111793,-
 0.00207262,0.02477226,-0.03699520,-0.00999545,-0.05935940,0.62845037,0
 .00005307,0.00495667,0.00013660,-0.00752813,0.01240077,0.00210409,0.00
 208274,-0.06617656,0.01753996,0.00578322,0.01322952,-0.01019680,0.0002
 0814,-0.00138138,-0.00076584,-0.01684108,0.00495349,0.00842957,-0.0114
 7284,0.14645469,-0.00369113,0.00020119,-0.00110371,-0.06517738,-0.0006
 2973,-0.05629344,0.08265157,0.00492186,-0.29605067,-0.03236628,0.01997
 391,-0.06053769,-0.00260037,-0.00011075,0.00385685,0.01207381,0.009475
 11,0.01788640,0.11106341,-0.03990709,0.75946101,-0.00419983,-0.0003755
 0,0.00072061,-0.05710860,0.00483669,0.00492218,-0.03834005,-0.00518065
 ,0.09394928,-0.05127733,0.07600164,-0.11689982,-0.00018387,-0.00010130
 ,0.00544243,0.00522346,-0.01057439,0.06862943,-0.28852161,0.01400068,0
 .01899209,0.45620613,-0.00101676,0.00583084,0.00010029,-0.03905349,0.0
 1123667,0.00881928,0.00752691,0.01582521,0.03057174,0.03257596,0.02723
 948,-0.06955050,-0.00005520,0.00768862,0.00143097,0.01831946,-0.072954
 78,0.05598723,0.04715256,-0.08553935,-0.01947075,-0.06495183,0.1087797
 6,0.00453488,-0.00015371,-0.00002822,0.00349626,0.00101713,-0.06852250
 ,0.02306083,-0.00572901,-0.00615022,0.03345551,0.04970926,-0.20574638,
 -0.00007995,0.00299433,-0.00465993,0.00054427,-0.02478186,0.04514997,0
 .01404409,-0.00272483,-0.09490981,-0.04825927,-0.01499001,0.33001944,-
 0.00001027,-0.00058462,0.00036192,-0.00926243,0.00349870,-0.00916685,-
 0.00260150,0.00072114,0.00320110,-0.32543114,0.06519474,-0.05719698,-0
 .00044561,-0.00019568,-0.00061679,0.00035022,0.00017957,0.00114496,0.0
 0241262,0.00111803,-0.00038789,-0.00318417,-0.00220325,-0.00226706,0.3
 3828802,0.00002351,-0.00175929,0.00009120,-0.00844334,-0.00002050,-0.0
 0035303,0.00015294,0.00356608,0.00539443,0.07189411,-0.03360481,0.0089
 1793,-0.00023467,0.00071210,-0.00006078,0.01586411,-0.00070104,0.01357
 579,0.00489940,0.00177551,-0.00298448,-0.01554213,-0.01254495,-0.00770
 664,-0.06789167,0.04075963,-0.00079806,0.00013429,0.00000502,0.0139875
 9,-0.00562204,0.01198891,0.00448949,0.00107750,-0.00202250,-0.05091003
 ,0.01376431,-0.06527674,0.00065357,0.00063064,0.00101202,-0.00342048,-
 0.00118242,-0.00242361,0.00034149,0.00058391,-0.00806235,-0.02752479,0
 .00868392,-0.00174401,0.06490511,-0.01690680,0.06626714,0.00084518,0.0
 0015098,0.00023760,-0.00079116,0.00023200,0.00318535,0.01080018,-0.001
 15715,0.00894400,-0.00600233,0.00173726,0.00157599,-0.00010851,0.00002
 377,-0.00092596,0.00007241,0.00113287,-0.00011455,-0.12905962,0.012596
 17,-0.12055784,-0.01861413,0.00170565,-0.02852956,-0.00011573,-0.00072
 225,-0.00172387,0.14297371,0.00001536,0.00074535,-0.00004303,0.0023476
 7,0.00477444,-0.00022628,-0.00035506,0.00092070,-0.00278065,-0.0018762
 4,0.00339790,0.00136957,-0.00004044,-0.00195639,0.00001754,-0.00032756
 ,0.00153924,-0.00145439,0.01388575,-0.03067336,0.02853075,0.00188678,-
 0.00556149,0.00236534,0.00016304,0.00181727,-0.00116330,-0.01569931,0.
 02499635,-0.00114671,-0.00014977,-0.00022310,0.00183146,0.00034359,-0.
 00457779,-0.01721523,0.00221335,-0.01036693,0.00189155,0.00103153,0.00
 080311,0.00059789,-0.00021217,0.00014701,0.00028999,0.00013838,0.00071
 751,-0.12420811,0.02480043,-0.26424660,0.00002786,-0.00158218,0.006591
 65,0.00002247,0.00003238,0.00025611,0.13790884,-0.02661554,0.27089902\
 \0.00053734,0.00009046,0.00000007,-0.00054045,-0.00030136,0.00000014,-
 0.00000058,0.00020848,0.00000146,0.00000791,0.00000078,0.00000161,-0.0
 0000003,0.00000032,0.00000016,0.00000208,-0.00000109,-0.00000084,-0.00
 000312,-0.00000084,-0.00000349,-0.00000276,0.00000299,-0.00000121,0.00
 000069,0.00000071,0.00000231,-0.00000107,-0.00000045,-0.00000021\\\@


 MODELS ARE TO BE USED, NOT BELIEVED.

    -- PARAPHRASED BY H. THIEL IN "PRINCIPLES OF ECONOMETRICS"
 Job cpu time:       0 days  0 hours 17 minutes 34.8 seconds.
 Elapsed time:       0 days  0 hours  1 minutes 28.7 seconds.
 File lengths (MBytes):  RWF=     34 Int=      0 D2E=      0 Chk=     32 Scr=      1
 Normal termination of Gaussian 16 at Fri Jun 10 23:20:21 2022.
