 Entering Gaussian System, Link 0=g16
 Input=int_zmat_field_N100.gjf
 Output=int_zmat_field_N100.out
 Initial command:
 /software/gaussian/g16-a03/l1.exe "/local_scratch/11171417/Gau-10448.inp" -scrdir="/local_scratch/11171417/"
 Entering Link 1 = /software/gaussian/g16-a03/l1.exe PID=     10449.
  
 Copyright (c) 1988,1990,1992,1993,1995,1998,2003,2009,2016,
            Gaussian, Inc.  All Rights Reserved.
  
 This is part of the Gaussian(R) 16 program.  It is based on
 the Gaussian(R) 09 system (copyright 2009, Gaussian, Inc.),
 the Gaussian(R) 03 system (copyright 2003, Gaussian, Inc.),
 the Gaussian(R) 98 system (copyright 1998, Gaussian, Inc.),
 the Gaussian(R) 94 system (copyright 1995, Gaussian, Inc.),
 the Gaussian 92(TM) system (copyright 1992, Gaussian, Inc.),
 the Gaussian 90(TM) system (copyright 1990, Gaussian, Inc.),
 the Gaussian 88(TM) system (copyright 1988, Gaussian, Inc.),
 the Gaussian 86(TM) system (copyright 1986, Carnegie Mellon
 University), and the Gaussian 82(TM) system (copyright 1983,
 Carnegie Mellon University). Gaussian is a federally registered
 trademark of Gaussian, Inc.
  
 This software contains proprietary and confidential information,
 including trade secrets, belonging to Gaussian, Inc.
  
 This software is provided under written license and may be
 used, copied, transmitted, or stored only in accord with that
 written license.
  
 The following legend is applicable only to US Government
 contracts under FAR:
  
                    RESTRICTED RIGHTS LEGEND
  
 Use, reproduction and disclosure by the US Government is
 subject to restrictions as set forth in subparagraphs (a)
 and (c) of the Commercial Computer Software - Restricted
 Rights clause in FAR 52.227-19.
  
 Gaussian, Inc.
 340 Quinnipiac St., Bldg. 40, Wallingford CT 06492
  
  
 ---------------------------------------------------------------
 Warning -- This program may not be used in any manner that
 competes with the business of Gaussian, Inc. or will provide
 assistance to any competitor of Gaussian, Inc.  The licensee
 of this program is prohibited from giving any competitor of
 Gaussian, Inc. access to this program.  By using this program,
 the user acknowledges that Gaussian, Inc. is engaged in the
 business of creating and licensing software in the field of
 computational chemistry and represents and warrants to the
 licensee that it is not a competitor of Gaussian, Inc. and that
 it will not use this program in any manner prohibited above.
 ---------------------------------------------------------------
  

 Cite this work as:
 Gaussian 16, Revision A.03,
 M. J. Frisch, G. W. Trucks, H. B. Schlegel, G. E. Scuseria, 
 M. A. Robb, J. R. Cheeseman, G. Scalmani, V. Barone, 
 G. A. Petersson, H. Nakatsuji, X. Li, M. Caricato, A. V. Marenich, 
 J. Bloino, B. G. Janesko, R. Gomperts, B. Mennucci, H. P. Hratchian, 
 J. V. Ortiz, A. F. Izmaylov, J. L. Sonnenberg, D. Williams-Young, 
 F. Ding, F. Lipparini, F. Egidi, J. Goings, B. Peng, A. Petrone, 
 T. Henderson, D. Ranasinghe, V. G. Zakrzewski, J. Gao, N. Rega, 
 G. Zheng, W. Liang, M. Hada, M. Ehara, K. Toyota, R. Fukuda, 
 J. Hasegawa, M. Ishida, T. Nakajima, Y. Honda, O. Kitao, H. Nakai, 
 T. Vreven, K. Throssell, J. A. Montgomery, Jr., J. E. Peralta, 
 F. Ogliaro, M. J. Bearpark, J. J. Heyd, E. N. Brothers, K. N. Kudin, 
 V. N. Staroverov, T. A. Keith, R. Kobayashi, J. Normand, 
 K. Raghavachari, A. P. Rendell, J. C. Burant, S. S. Iyengar, 
 J. Tomasi, M. Cossi, J. M. Millam, M. Klene, C. Adamo, R. Cammi, 
 J. W. Ochterski, R. L. Martin, K. Morokuma, O. Farkas, 
 J. B. Foresman, and D. J. Fox, Gaussian, Inc., Wallingford CT, 2016.
 
 ******************************************
 Gaussian 16:  ES64L-G16RevA.03 25-Dec-2016
                10-Jun-2022 
 ******************************************
 %nprocshared=12
 Will use up to   12 processors via shared memory.
 %chk=checkpoint.chk
 %mem=12GB
 ----------------------------------------------------------------------
 # Opt=(Z-matrix, MaxStep=10) B3LYP/Def2TZVP geom=allcheckpoint guess=r
 ead Field=read NoSymm freq=noraman pop=none
 ----------------------------------------------------------------------
 1/8=10,10=7,18=40,26=3,29=7,38=1/1,3;
 2/12=2,15=1,29=3,40=1/2;
 3/5=44,7=101,11=2,14=-6,25=1,30=1,71=1,74=-5,116=-2/1,2,3;
 4/5=1/1;
 5/5=2,38=6/2;
 7/29=1,30=1/1,2,3,16;
 1/8=10,10=7,18=40,26=3/3(2);
 2/15=1,29=3/2;
 99//99;
 2/15=1,29=3/2;
 3/5=44,7=101,11=2,14=-2,25=1,30=1,71=1,74=-5/1,2,3;
 4/5=5,16=3,69=1/1;
 5/5=2,38=5/2;
 7/30=1/1,2,3,16;
 1/8=10,18=40,26=3/3(-5);
 2/15=1,29=3/2;
 99/9=1/99;
 Structure from the checkpoint file:  "checkpoint.chk"
 ------------------
 int_zmat_initalOpt
 ------------------
 Charge =  0 Multiplicity = 1
 Z-Matrix found in chk file.
 C
 C,1,R2
 C,1,R3,2,A3
 H,1,R4,2,A4,3,D4,0
 O,3,R5,1,A5,2,D5,0
 C,2,R6,1,A6,3,D6,0
 H,2,R7,1,A7,6,D7,0
 C,6,R8,2,A8,1,D8,0
 H,6,R9,2,A9,8,D9,0
 C,8,R10,6,A10,2,D10,0
 N,8,R11,6,A11,10,D11,0
 H,10,R12,8,A12,6,D12,0
 C,10,R13,8,A13,12,D13,0
 C,11,R14,8,A14,6,D14,0
 H,11,R15,8,A15,14,D15,0
 H,13,R16,10,A16,8,D16,0
 H,14,R17,11,A17,8,D17,0
      Variables:
 R2=1.45638124
 R3=1.32007927
 R4=1.08700524
 R5=1.16215507
 R6=1.34813304
 R7=1.08275023
 R8=1.44093355
 R9=1.08597782
 R10=1.39131214
 R11=1.38087756
 R12=1.0765581
 R13=1.41229819
 R14=1.361531
 R15=1.00652562
 R16=1.07698827
 R17=1.07679858
 A3=132.47267189
 A4=116.85431308
 A5=172.90136553
 A6=130.4101579
 A7=112.78273814
 A8=129.31547709
 A9=115.59736849
 A10=133.1517571
 A11=120.65829283
 A12=125.79964692
 A13=108.11548222
 A14=110.61248257
 A15=124.75381096
 A16=127.14944097
 A17=121.35896586
 D4=-171.17717168
 D5=168.9379804
 D6=-10.59161915
 D7=177.0422428
 D8=-5.6041814
 D9=-180.74977547
 D10=-28.007743
 D11=-176.04462534
 D12=-1.03595899
 D13=-176.08124015
 D14=178.12202246
 D15=175.08300566
 D16=179.67545948
 D17=178.44727453
 Recover connectivity data from disk.

 GradGradGradGradGradGradGradGradGradGradGradGradGradGradGradGradGradGrad
 Berny optimization.
 Initialization pass.
                       ----------------------------
                       !    Initial Parameters    !
                       ! (Angstroms and Degrees)  !
 ----------------------                            ----------------------
 !      Name          Value   Derivative information (Atomic Units)     !
 ------------------------------------------------------------------------
 !       R2          1.4564   estimate D2E/DX2                          !
 !       R3          1.3201   estimate D2E/DX2                          !
 !       R4          1.087    estimate D2E/DX2                          !
 !       R5          1.1622   estimate D2E/DX2                          !
 !       R6          1.3481   estimate D2E/DX2                          !
 !       R7          1.0828   estimate D2E/DX2                          !
 !       R8          1.4409   estimate D2E/DX2                          !
 !       R9          1.086    estimate D2E/DX2                          !
 !       R10         1.3913   estimate D2E/DX2                          !
 !       R11         1.3809   estimate D2E/DX2                          !
 !       R12         1.0766   estimate D2E/DX2                          !
 !       R13         1.4123   estimate D2E/DX2                          !
 !       R14         1.3615   estimate D2E/DX2                          !
 !       R15         1.0065   estimate D2E/DX2                          !
 !       R16         1.077    estimate D2E/DX2                          !
 !       R17         1.0768   estimate D2E/DX2                          !
 !       A3        132.4727   estimate D2E/DX2                          !
 !       A4        116.8543   estimate D2E/DX2                          !
 !       A5        172.9014   estimate D2E/DX2                          !
 !       A6        130.4102   estimate D2E/DX2                          !
 !       A7        112.7827   estimate D2E/DX2                          !
 !       A8        129.3155   estimate D2E/DX2                          !
 !       A9        115.5974   estimate D2E/DX2                          !
 !       A10       133.1518   estimate D2E/DX2                          !
 !       A11       120.6583   estimate D2E/DX2                          !
 !       A12       125.7996   estimate D2E/DX2                          !
 !       A13       108.1155   estimate D2E/DX2                          !
 !       A14       110.6125   estimate D2E/DX2                          !
 !       A15       124.7538   estimate D2E/DX2                          !
 !       A16       127.1494   estimate D2E/DX2                          !
 !       A17       121.359    estimate D2E/DX2                          !
 !       D4       -171.1772   estimate D2E/DX2                          !
 !       D5        168.938    estimate D2E/DX2                          !
 !       D6        -10.5916   estimate D2E/DX2                          !
 !       D7        177.0422   estimate D2E/DX2                          !
 !       D8         -5.6042   estimate D2E/DX2                          !
 !       D9       -180.7498   estimate D2E/DX2                          !
 !       D10       -28.0077   estimate D2E/DX2                          !
 !       D11      -176.0446   estimate D2E/DX2                          !
 !       D12        -1.036    estimate D2E/DX2                          !
 !       D13      -176.0812   estimate D2E/DX2                          !
 !       D14       178.122    estimate D2E/DX2                          !
 !       D15       175.083    estimate D2E/DX2                          !
 !       D16       179.6755   estimate D2E/DX2                          !
 !       D17       178.4473   estimate D2E/DX2                          !
 ------------------------------------------------------------------------
 Trust Radius=1.00D-01 FncErr=1.00D-07 GrdErr=1.00D-06 EigMax=2.50D+02 EigMin=1.00D-04
 Number of steps in this run=     55 maximum allowed number of steps=    100.
 GradGradGradGradGradGradGradGradGradGradGradGradGradGradGradGradGradGrad

 ---------------------------------------------------------------------------------------------------
                            Z-MATRIX (ANGSTROMS AND DEGREES)
   CD    Cent   Atom    N1       Length/X        N2       Alpha/Y        N3        Beta/Z          J
 ---------------------------------------------------------------------------------------------------
      1      1  C 
      2      2  C        1   1.456381(     1)
      3      3  C        1   1.320079(     2)      2  132.473(    17)
      4      4  H        1   1.087005(     3)      2  116.854(    18)      3 -171.177(    32)      0
      5      5  O        3   1.162155(     4)      1  172.901(    19)      2  168.938(    33)      0
      6      6  C        2   1.348133(     5)      1  130.410(    20)      3  -10.592(    34)      0
      7      7  H        2   1.082750(     6)      1  112.783(    21)      6  177.042(    35)      0
      8      8  C        6   1.440934(     7)      2  129.315(    22)      1   -5.604(    36)      0
      9      9  H        6   1.085978(     8)      2  115.597(    23)      8 -180.750(    37)      0
     10     10  C        8   1.391312(     9)      6  133.152(    24)      2  -28.008(    38)      0
     11     11  N        8   1.380878(    10)      6  120.658(    25)     10 -176.045(    39)      0
     12     12  H       10   1.076558(    11)      8  125.800(    26)      6   -1.036(    40)      0
     13     13  C       10   1.412298(    12)      8  108.115(    27)     12 -176.081(    41)      0
     14     14  C       11   1.361531(    13)      8  110.612(    28)      6  178.122(    42)      0
     15     15  H       11   1.006526(    14)      8  124.754(    29)     14  175.083(    43)      0
     16     16  H       13   1.076988(    15)     10  127.149(    30)      8  179.675(    44)      0
     17     17  H       14   1.076799(    16)     11  121.359(    31)      8  178.447(    45)      0
 ---------------------------------------------------------------------------------------------------
                         Z-Matrix orientation:                         
 ---------------------------------------------------------------------
 Center     Atomic      Atomic             Coordinates (Angstroms)
 Number     Number       Type             X           Y           Z
 ---------------------------------------------------------------------
      1          6           0        0.000000    0.000000    0.000000
      2          6           0        0.000000    0.000000    1.456381
      3          6           0        0.973690    0.000000   -0.891368
      4          1           0       -0.958305    0.148744   -0.491026
      5          8           0        1.729151   -0.027556   -1.774048
      6          6           0        1.009011   -0.188678    2.330315
      7          1           0       -0.970490    0.233879    1.875663
      8          6           0        2.379276   -0.555663    2.077365
      9          1           0        0.759855   -0.031820    3.375621
     10          6           0        2.998284   -1.283553    1.066050
     11          7           0        3.372173   -0.236994    2.982588
     12          1           0        2.502596   -1.749684    0.231789
     13          6           0        4.373328   -1.380525    1.373353
     14          6           0        4.575837   -0.714106    2.561488
     15          1           0        3.241339    0.336132    3.799596
     16          1           0        5.134136   -1.882531    0.799711
     17          1           0        5.475922   -0.541348    3.126728
 ---------------------------------------------------------------------
                    Distance matrix (angstroms):
                    1          2          3          4          5
     1  C    0.000000
     2  C    1.456381   0.000000
     3  C    1.320079   2.541653   0.000000
     4  H    1.087005   2.175516   1.978637   0.000000
     5  O    2.477492   3.664205   1.162155   2.983228   0.000000
     6  C    2.546384   1.348133   3.227397   3.456031   4.170175
     7  H    2.124774   1.082750   3.389838   2.368251   4.547175
     8  C    3.207049   2.520980   3.331338   4.269926   3.941439
     9  H    3.460233   2.064430   4.272462   4.235048   5.240100
    10  C    3.431279   3.284748   3.094830   4.486709   3.354756
    11  N    4.508164   3.709046   4.562502   5.564874   5.036762
    12  H    3.062370   3.289986   2.580781   4.013020   2.754510
    13  C    4.787269   4.586801   4.311885   5.851571   4.327625
    14  C    5.292395   4.761249   5.040598   6.378799   5.231811
    15  H    5.005616   4.013716   5.221146   6.006793   5.786579
    16  H    5.526555   5.507675   4.869598   6.550566   4.653933
    17  H    6.328918   5.750551   6.058734   7.413748   6.190306
                    6          7          8          9         10
     6  C    0.000000
     7  H    2.074533   0.000000
     8  C    1.440934   3.447462   0.000000
     9  H    1.085978   2.305334   2.140656   0.000000
    10  C    2.598908   4.325418   1.391312   3.451306   0.000000
    11  N    2.452005   4.506188   1.380878   2.649675   2.215445
    12  H    3.011868   4.324254   2.201600   3.983954   1.076558
    13  C    3.695254   5.604909   2.269861   4.345719   1.412298
    14  C    3.612722   5.668401   2.254852   3.961066   2.247060
    15  H    2.723509   4.631574   2.122388   2.544191   3.186648
    16  H    4.714715   6.550063   3.313944   5.403219   2.234184
    17  H    4.551038   6.612289   3.269646   4.750037   3.306955
                   11         12         13         14         15
    11  N    0.000000
    12  H    3.257498   0.000000
    13  C    2.213506   2.222406   0.000000
    14  C    1.361531   3.286069   1.377240   0.000000
    15  H    1.006526   4.198288   3.180403   2.101617   0.000000
    16  H    3.252269   2.695401   1.076988   2.186498   4.183833
    17  H    2.130532   4.322201   2.234783   1.076799   2.493208
                   16         17
    16  H    0.000000
    17  H    2.707508   0.000000
 Symmetry turned off by external request.
 Stoichiometry    C8H7NO
 Framework group  C1[X(C8H7NO)]
 Deg. of freedom    45
 Full point group                 C1      NOp   1
 Rotational constants (GHZ):           2.3486326           0.9931796           0.7304369
 Standard basis: def2TZVP (5D, 7F)
 The following finite field(s) will be applied:
 An electric field of             -0.0069 -0.0038 -0.0062
   352 basis functions,   566 primitive gaussians,   402 cartesian basis functions
    35 alpha electrons       35 beta electrons
       nuclear repulsion energy       460.3047576873 Hartrees.
 NAtoms=   17 NActive=   17 NUniq=   17 SFac= 1.00D+00 NAtFMM=   60 NAOKFM=F Big=F
 Integral buffers will be    131072 words long.
 Raffenetti 2 integral format.
 Two-electron integral symmetry is turned off.
 One-electron integrals computed using PRISM.
   1 Symmetry operations used in ECPInt.
 ECPInt:  NShTT=    9591 NPrTT=   29644 LenC2=    9224 LenP2D=   22150.
 LDataN:  DoStor=T MaxTD1= 6 Len=  172
 NBasis=   352 RedAO= T EigKep=  3.31D-05  NBF=   352
 NBsUse=   352 1.00D-06 EigRej= -1.00D+00 NBFU=   352
 The nuclear repulsion energy is now       457.6359017768 hartrees.
 Initial guess from the checkpoint file:  "checkpoint.chk"
 B after Tr=     0.000000   -0.000000    0.000000
         Rot=    1.000000    0.000000    0.000000   -0.000000 Ang=   0.00 deg.
 Requested convergence on RMS density matrix=1.00D-08 within 128 cycles.
 Requested convergence on MAX density matrix=1.00D-06.
 Requested convergence on             energy=1.00D-06.
 No special actions if energy rises.
 SCF Done:  E(RB3LYP) =  -439.164691817     A.U. after   11 cycles
            NFock= 11  Conv=0.62D-08     -V/T= 2.0050
   1 Symmetry operations used in ECPInt.
 ECPInt:  NShTT=    9591 NPrTT=   29644 LenC2=    9224 LenP2D=   22150.
 LDataN:  DoStor=T MaxTD1= 7 Len=  274
 Calling FoFJK, ICntrl=      2127 FMM=F ISym2X=0 I1Cent= 0 IOpClX= 0 NMat=1 NMatS=1 NMatT=0.
 -------------------------------------------------------------------
 Center     Atomic                   Forces (Hartrees/Bohr)
 Number     Number              X              Y              Z
 -------------------------------------------------------------------
      1        6          -0.001678041   -0.000057845   -0.000774750
      2        6           0.001004526   -0.000064518    0.000752508
      3        6          -0.000718401   -0.000297451    0.001770216
      4        1          -0.000102982    0.000272179   -0.000004528
      5        8           0.000808259   -0.000305584   -0.001999125
      6        6           0.001320736   -0.000453957   -0.000213848
      7        1          -0.000066054    0.000190653    0.000051677
      8        6          -0.000859585    0.000692126    0.001006381
      9        1           0.000077544    0.000254601   -0.000057261
     10        6           0.000784133   -0.000214203   -0.000508846
     11        7           0.000788116   -0.000756044   -0.000653186
     12        1          -0.000110555   -0.000093018   -0.000144604
     13        6          -0.000748640   -0.000475813   -0.000798382
     14        6          -0.001135830    0.000800260    0.000861365
     15        1           0.000369921    0.000312036    0.000505761
     16        1           0.000110482    0.000083249    0.000137959
     17        1           0.000156370    0.000113329    0.000068662
 -------------------------------------------------------------------
 Cartesian Forces:  Max     0.001999125 RMS     0.000702337
 -----------------------------------------------------------------------------------------------
                       Internal Coordinate Forces (Hartree/Bohr or radian)
  Cent   Atom   N1       Length/X         N2         Alpha/Y        N3         Beta/Z          J
 -----------------------------------------------------------------------------------------------
      1  C 
      2  C        1   0.001008(     1)
      3  C        1   0.000221(     2)      2   0.001776(    17)
      4  H        1   0.000130(     3)      2  -0.000125(    18)      3   0.000464(    32)     0
      5  O        3   0.002051(     4)      1  -0.001586(    19)      2  -0.000033(    33)     0
      6  C        2   0.000659(     5)      1  -0.000671(    20)      3   0.000994(    34)     0
      7  H        2   0.000120(     6)      1   0.000011(    21)      6  -0.000320(    35)     0
      8  C        6  -0.000815(     7)      2   0.000143(    22)      1   0.000096(    36)     0
      9  H        6  -0.000036(     8)      2   0.000002(    23)      8  -0.000499(    37)     0
     10  C        8   0.001337(     9)      6  -0.003119(    24)      2   0.000080(    38)     0
     11  N        8   0.000750(    10)      6  -0.002361(    25)     10  -0.000293(    39)     0
     12  H       10   0.000203(    11)      8  -0.000036(    26)      6   0.000242(    40)     0
     13  C       10  -0.000738(    12)      8   0.001382(    27)     12   0.000263(    41)     0
     14  C       11  -0.001474(    13)      8   0.001788(    28)      6   0.000323(    42)     0
     15  H       11   0.000540(    14)      8   0.000837(    29)     14  -0.000105(    43)     0
     16  H       13  -0.000034(    15)     10   0.000390(    30)      8   0.000031(    44)     0
     17  H       14   0.000185(    16)     11  -0.000045(    31)      8  -0.000149(    45)     0
 -----------------------------------------------------------------------------------------------
 Internal  Forces:  Max     0.003119266 RMS     0.000956683

 GradGradGradGradGradGradGradGradGradGradGradGradGradGradGradGradGradGrad
 Berny optimization.
 Search for a local minimum.
 Step number   1 out of a maximum of   55
 All quantities printed in internal units (Hartrees-Bohrs-Radians)
 Second derivative matrix not updated -- first step.
 ITU=  0
     Eigenvalues ---    0.03050   0.03879   0.04435   0.04737   0.08633
     Eigenvalues ---    0.09608   0.10903   0.11203   0.18277   0.19215
     Eigenvalues ---    0.19432   0.20514   0.23648   0.25301   0.25453
     Eigenvalues ---    0.25846   0.27158   0.30296   0.33038   0.35161
     Eigenvalues ---    0.35246   0.35282   0.35666   0.36367   0.36384
     Eigenvalues ---    0.36414   0.37421   0.39452   0.44997   0.46286
     Eigenvalues ---    0.46612   0.48539   0.52656   0.52703   0.54281
     Eigenvalues ---    0.55421   0.56658   0.59579   0.61912   0.67382
     Eigenvalues ---    1.22934   1.26395   1.31303   1.93041  24.93226
 RFO step:  Lambda=-5.41873183D-05 EMin= 3.04957958D-02
 Linear search not attempted -- first point.
 Variable       Old X    -DE/DX   Delta X   Delta X   Delta X     New X
                                 (Linear)    (Quad)   (Total)
    R2        2.75216   0.00101   0.00000   0.00269   0.00269   2.75486
    R3        2.49459   0.00022   0.00000   0.00035   0.00035   2.49494
    R4        2.05414   0.00013   0.00000   0.00037   0.00037   2.05452
    R5        2.19615   0.00205   0.00000   0.00165   0.00165   2.19780
    R6        2.54760   0.00066   0.00000   0.00121   0.00121   2.54881
    R7        2.04610   0.00012   0.00000   0.00034   0.00034   2.04644
    R8        2.72297  -0.00081   0.00000  -0.00209  -0.00209   2.72088
    R9        2.05220  -0.00004   0.00000  -0.00010  -0.00010   2.05210
   R10        2.62920   0.00134   0.00000   0.00160   0.00160   2.63080
   R11        2.60948   0.00075   0.00000   0.00046   0.00046   2.60995
   R12        2.03440   0.00020   0.00000   0.00056   0.00056   2.03496
   R13        2.66886  -0.00074   0.00000  -0.00134  -0.00134   2.66752
   R14        2.57292  -0.00147   0.00000  -0.00230  -0.00230   2.57062
   R15        1.90206   0.00054   0.00000   0.00117   0.00117   1.90323
   R16        2.03521  -0.00003   0.00000  -0.00009  -0.00009   2.03512
   R17        2.03485   0.00018   0.00000   0.00051   0.00051   2.03536
    A3        2.31208   0.00178   0.00000   0.00541   0.00541   2.31750
    A4        2.03949  -0.00012   0.00000  -0.00335  -0.00335   2.03614
    A5        3.01770  -0.00159   0.00000  -0.00622  -0.00622   3.01148
    A6        2.27609  -0.00067   0.00000  -0.00142  -0.00142   2.27467
    A7        1.96843   0.00001   0.00000   0.00062   0.00062   1.96905
    A8        2.25698   0.00014   0.00000   0.00076   0.00076   2.25774
    A9        2.01755   0.00000   0.00000  -0.00039  -0.00039   2.01716
   A10        2.32394  -0.00312   0.00000  -0.00185  -0.00185   2.32209
   A11        2.10588  -0.00236   0.00000   0.00152   0.00152   2.10741
   A12        2.19562  -0.00004   0.00000   0.00017   0.00017   2.19579
   A13        1.88697   0.00138   0.00000  -0.00066  -0.00066   1.88631
   A14        1.93055   0.00179   0.00000  -0.00038  -0.00038   1.93018
   A15        2.17736   0.00084   0.00000   0.00253   0.00253   2.17989
   A16        2.21918   0.00039   0.00000   0.00098   0.00098   2.22015
   A17        2.11811  -0.00005   0.00000  -0.00034  -0.00034   2.11777
    D4       -2.98761   0.00046   0.00000   0.00435   0.00435  -2.98325
    D5        2.94852  -0.00003   0.00000   0.00144   0.00144   2.94996
    D6       -0.18486   0.00099   0.00000   0.00811   0.00811  -0.17675
    D7        3.08997  -0.00032   0.00000  -0.00749  -0.00749   3.08248
    D8       -0.09781   0.00010   0.00000  -0.00347  -0.00347  -0.10129
    D9       -3.15468  -0.00050   0.00000  -0.00265  -0.00265  -3.15733
   D10       -0.48883   0.00008   0.00000   0.00322   0.00322  -0.48561
   D11       -3.07256  -0.00029   0.00000   0.00008   0.00008  -3.07248
   D12       -0.01808   0.00024   0.00000   0.00058   0.00058  -0.01750
   D13       -3.07320   0.00026   0.00000   0.00169   0.00169  -3.07151
   D14        3.10882   0.00032   0.00000  -0.00153  -0.00153   3.10729
   D15        3.05577  -0.00011   0.00000  -0.00024  -0.00024   3.05553
   D16        3.13593   0.00003   0.00000  -0.00149  -0.00149   3.13444
   D17        3.11449  -0.00015   0.00000   0.00031   0.00031   3.11480
         Item               Value     Threshold  Converged?
 Maximum Force            0.003119     0.000450     NO 
 RMS     Force            0.000957     0.000300     NO 
 Maximum Displacement     0.008107     0.001800     NO 
 RMS     Displacement     0.002600     0.001200     NO 
 Predicted change in Energy=-2.710190D-05
 GradGradGradGradGradGradGradGradGradGradGradGradGradGradGradGradGradGrad

 ---------------------------------------------------------------------------------------------------
                            Z-MATRIX (ANGSTROMS AND DEGREES)
   CD    Cent   Atom    N1       Length/X        N2       Alpha/Y        N3        Beta/Z          J
 ---------------------------------------------------------------------------------------------------
      1      1  C 
      2      2  C        1   1.457807(     1)
      3      3  C        1   1.320265(     2)      2  132.783(    17)
      4      4  H        1   1.087204(     3)      2  116.662(    18)      3 -170.928(    32)      0
      5      5  O        3   1.163026(     4)      1  172.545(    19)      2  169.021(    33)      0
      6      6  C        2   1.348772(     5)      1  130.329(    20)      3  -10.127(    34)      0
      7      7  H        2   1.082930(     6)      1  112.818(    21)      6  176.613(    35)      0
      8      8  C        6   1.439828(     7)      2  129.359(    22)      1   -5.803(    36)      0
      9      9  H        6   1.085925(     8)      2  115.575(    23)      8 -180.901(    37)      0
     10     10  C        8   1.392157(     9)      6  133.046(    24)      2  -27.823(    38)      0
     11     11  N        8   1.381124(    10)      6  120.746(    25)     10 -176.040(    39)      0
     12     12  H       10   1.076852(    11)      8  125.809(    26)      6   -1.003(    40)      0
     13     13  C       10   1.411588(    12)      8  108.078(    27)     12 -175.984(    41)      0
     14     14  C       11   1.360312(    13)      8  110.591(    28)      6  178.035(    42)      0
     15     15  H       11   1.007145(    14)      8  124.899(    29)     14  175.069(    43)      0
     16     16  H       13   1.076942(    15)     10  127.205(    30)      8  179.590(    44)      0
     17     17  H       14   1.077068(    16)     11  121.339(    31)      8  178.465(    45)      0
 ---------------------------------------------------------------------------------------------------
                         Z-Matrix orientation:                         
 ---------------------------------------------------------------------
 Center     Atomic      Atomic             Coordinates (Angstroms)
 Number     Number       Type             X           Y           Z
 ---------------------------------------------------------------------
      1          6           0        0.000000    0.000000    0.000000
      2          6           0        0.000000    0.000000    1.457807
      3          6           0        0.968988    0.000000   -0.896751
      4          1           0       -0.959443    0.153200   -0.487863
      5          8           0        1.714743   -0.028739   -1.788745
      6          6           0        1.012205   -0.180796    2.330698
      7          1           0       -0.970541    0.233258    1.877781
      8          6           0        2.383277   -0.540038    2.077301
      9          1           0        0.764334   -0.020351    3.375711
     10          6           0        3.003931   -1.264884    1.063650
     11          7           0        3.376349   -0.217472    2.981327
     12          1           0        2.508798   -1.732309    0.229404
     13          6           0        4.378617   -1.358117    1.370453
     14          6           0        4.579891   -0.690106    2.558773
     15          1           0        3.246908    0.355631    3.799336
     16          1           0        5.141344   -1.857619    0.797261
     17          1           0        5.480270   -0.514147    3.123071
 ---------------------------------------------------------------------
                    Distance matrix (angstroms):
                    1          2          3          4          5
     1  C    0.000000
     2  C    1.457807   0.000000
     3  C    1.320265   2.546150   0.000000
     4  H    1.087204   2.174772   1.977247   0.000000
     5  O    2.478059   3.671685   1.163026   2.979373   0.000000
     6  C    2.547430   1.348772   3.232798   3.455899   4.181686
     7  H    2.126598   1.082930   3.393259   2.367024   4.552230
     8  C    3.207309   2.520997   3.337190   4.270178   3.956599
     9  H    3.461220   2.064698   4.277409   4.234233   5.251186
    10  C    3.428540   3.283123   3.095820   4.486256   3.365445
    11  N    4.509472   3.710544   4.569701   5.565228   5.054715
    12  H    3.057382   3.286934   2.576845   4.012270   2.757825
    13  C    4.784863   4.585237   4.313962   5.850838   4.340968
    14  C    5.291405   4.760648   5.045345   6.377882   5.248561
    15  H    5.010373   4.018911   5.231503   6.009529   5.807058
    16  H    5.524472   5.506404   4.871240   6.550919   4.666243
    17  H    6.328608   5.750722   6.064238   7.413103   6.208120
                    6          7          8          9         10
     6  C    0.000000
     7  H    2.075537   0.000000
     8  C    1.439828   3.447592   0.000000
     9  H    1.085925   2.306058   2.139374   0.000000
    10  C    2.597621   4.324774   1.392157   3.451128   0.000000
    11  N    2.452313   4.507374   1.381124   2.648965   2.216585
    12  H    3.010386   4.322777   2.202723   3.984119   1.076852
    13  C    3.693358   5.603869   2.269420   4.344389   1.411588
    14  C    3.611066   5.667772   2.253763   3.959095   2.247089
    15  H    2.727371   4.636187   2.124497   2.546369   3.188900
    16  H    4.713063   6.549384   3.313828   5.402053   2.234017
    17  H    4.550009   6.612286   3.268894   4.748443   3.307124
                   11         12         13         14         15
    11  N    0.000000
    12  H    3.258904   0.000000
    13  C    2.213714   2.222215   0.000000
    14  C    1.360312   3.286575   1.377990   0.000000
    15  H    1.007145   4.201038   3.180750   2.099858   0.000000
    16  H    3.251989   2.696009   1.076942   2.186605   4.183278
    17  H    2.129458   4.322832   2.235530   1.077068   2.490331
                   16         17
    16  H    0.000000
    17  H    2.707246   0.000000
 Symmetry turned off by external request.
 Stoichiometry    C8H7NO
 Framework group  C1[X(C8H7NO)]
 Deg. of freedom    45
 Full point group                 C1      NOp   1
 Rotational constants (GHZ):           2.3472788           0.9908293           0.7286483
 Standard basis: def2TZVP (5D, 7F)
 The following finite field(s) will be applied:
 An electric field of             -0.0069 -0.0038 -0.0062
   352 basis functions,   566 primitive gaussians,   402 cartesian basis functions
    35 alpha electrons       35 beta electrons
       nuclear repulsion energy       460.0906150095 Hartrees.
 NAtoms=   17 NActive=   17 NUniq=   17 SFac= 1.00D+00 NAtFMM=   60 NAOKFM=F Big=F
 Integral buffers will be    131072 words long.
 Raffenetti 2 integral format.
 Two-electron integral symmetry is turned off.
 One-electron integrals computed using PRISM.
   1 Symmetry operations used in ECPInt.
 ECPInt:  NShTT=    9591 NPrTT=   29644 LenC2=    9223 LenP2D=   22146.
 LDataN:  DoStor=T MaxTD1= 6 Len=  172
 NBasis=   352 RedAO= T EigKep=  3.31D-05  NBF=   352
 NBsUse=   352 1.00D-06 EigRej= -1.00D+00 NBFU=   352
 The nuclear repulsion energy is now       457.4180734984 hartrees.
 Initial guess from the checkpoint file:  "checkpoint.chk"
 B after Tr=    -0.006351   -0.003054    0.000168
         Rot=    0.999996    0.001376   -0.000955   -0.002185 Ang=   0.32 deg.
 Requested convergence on RMS density matrix=1.00D-08 within 128 cycles.
 Requested convergence on MAX density matrix=1.00D-06.
 Requested convergence on             energy=1.00D-06.
 No special actions if energy rises.
 SCF Done:  E(RB3LYP) =  -439.164731703     A.U. after   11 cycles
            NFock= 11  Conv=0.37D-08     -V/T= 2.0050
   1 Symmetry operations used in ECPInt.
 ECPInt:  NShTT=    9591 NPrTT=   29644 LenC2=    9223 LenP2D=   22146.
 LDataN:  DoStor=T MaxTD1= 7 Len=  274
 Calling FoFJK, ICntrl=      2127 FMM=F ISym2X=0 I1Cent= 0 IOpClX= 0 NMat=1 NMatS=1 NMatT=0.
 -------------------------------------------------------------------
 Center     Atomic                   Forces (Hartrees/Bohr)
 Number     Number              X              Y              Z
 -------------------------------------------------------------------
      1        6          -0.001814592   -0.000004818    0.000099051
      2        6           0.001790561    0.000213377    0.000100677
      3        6          -0.000458741   -0.000403382    0.000953218
      4        1          -0.000052492    0.000205512   -0.000097189
      5        8           0.000233248   -0.000296241   -0.000852093
      6        6           0.000562157   -0.000062154   -0.000266778
      7        1           0.000064246    0.000016056   -0.000082923
      8        6          -0.000628552    0.000478571    0.000391461
      9        1          -0.000017491    0.000151664    0.000001982
     10        6           0.000416737   -0.000071442   -0.000015832
     11        7           0.000153448   -0.000444935   -0.000277907
     12        1          -0.000042855   -0.000048082    0.000070461
     13        6          -0.000230318   -0.000122215   -0.000462589
     14        6          -0.000253586    0.000260800    0.000399502
     15        1           0.000136766   -0.000000592    0.000034544
     16        1           0.000100190    0.000081205    0.000060849
     17        1           0.000041274    0.000046677   -0.000056436
 -------------------------------------------------------------------
 Cartesian Forces:  Max     0.001814592 RMS     0.000466103
 -----------------------------------------------------------------------------------------------
                       Internal Coordinate Forces (Hartree/Bohr or radian)
  Cent   Atom   N1       Length/X         N2         Alpha/Y        N3         Beta/Z          J
 -----------------------------------------------------------------------------------------------
      1  C 
      2  C        1  -0.000103(     1)
      3  C        1  -0.000234(     2)      2   0.001005(    17)
      4  H        1   0.000119(     3)      2   0.000101(    18)      3   0.000357(    32)     0
      5  O        3   0.000810(     4)      1  -0.000908(    19)      2  -0.000058(    33)     0
      6  C        2   0.000064(     5)      1  -0.000828(    20)      3   0.001087(    34)     0
      7  H        2  -0.000086(     6)      1  -0.000110(    21)      6  -0.000058(    35)     0
      8  C        6  -0.000363(     7)      2  -0.000341(    22)      1   0.000355(    36)     0
      9  H        6   0.000028(     8)      2  -0.000101(    23)      8  -0.000262(    37)     0
     10  C        8   0.000445(     9)      6  -0.000607(    24)      2   0.000146(    38)     0
     11  N        8   0.000089(    10)      6  -0.000293(    25)     10   0.000250(    39)     0
     12  H       10  -0.000014(    11)      8  -0.000093(    26)      6  -0.000542(    40)     0
     13  C       10  -0.000211(    12)      8   0.000634(    27)     12  -0.000406(    41)     0
     14  C       11  -0.000401(    13)      8   0.000705(    28)      6   0.000156(    42)     0
     15  H       11   0.000010(    14)      8   0.000267(    29)     14  -0.000018(    43)     0
     16  H       13   0.000001(    15)     10   0.000268(    30)      8   0.000089(    44)     0
     17  H       14   0.000013(    16)     11   0.000075(    31)      8  -0.000130(    45)     0
 -----------------------------------------------------------------------------------------------
 Internal  Forces:  Max     0.001086963 RMS     0.000410264

 GradGradGradGradGradGradGradGradGradGradGradGradGradGradGradGradGradGrad
 Berny optimization.
 Search for a local minimum.
 Step number   2 out of a maximum of   55
 All quantities printed in internal units (Hartrees-Bohrs-Radians)
 Update second derivatives using D2CorN and points    1    2
 DE= -3.99D-05 DEPred=-2.71D-05 R= 1.47D+00
 TightC=F SS=  1.41D+00  RLast= 1.74D-02 DXNew= 1.6818D-01 5.2327D-02
 Trust test= 1.47D+00 RLast= 1.74D-02 DXMaxT set to 1.00D-01
 ITU=  1  0
     Eigenvalues ---    0.01708   0.03689   0.04259   0.04470   0.07678
     Eigenvalues ---    0.09263   0.10802   0.11201   0.17506   0.18302
     Eigenvalues ---    0.19343   0.20478   0.23206   0.24201   0.25525
     Eigenvalues ---    0.25895   0.27174   0.30275   0.32947   0.35138
     Eigenvalues ---    0.35198   0.35283   0.35676   0.36366   0.36383
     Eigenvalues ---    0.36416   0.37499   0.39253   0.44828   0.46424
     Eigenvalues ---    0.46540   0.48495   0.51963   0.52668   0.54016
     Eigenvalues ---    0.55413   0.56560   0.59635   0.61948   0.67391
     Eigenvalues ---    1.22929   1.26041   1.31351   1.93042  24.93162
 RFO step:  Lambda=-3.26900836D-05 EMin= 1.70834571D-02
 Quartic linear search produced a step of  0.89093.
 Variable       Old X    -DE/DX   Delta X   Delta X   Delta X     New X
                                 (Linear)    (Quad)   (Total)
    R2        2.75486  -0.00010   0.00240  -0.00270  -0.00030   2.75455
    R3        2.49494  -0.00023   0.00031  -0.00120  -0.00089   2.49405
    R4        2.05452   0.00012   0.00033   0.00054   0.00088   2.05540
    R5        2.19780   0.00081   0.00147   0.00018   0.00165   2.19945
    R6        2.54881   0.00006   0.00108  -0.00063   0.00044   2.54925
    R7        2.04644  -0.00009   0.00030  -0.00084  -0.00054   2.04591
    R8        2.72088  -0.00036  -0.00186  -0.00069  -0.00255   2.71833
    R9        2.05210   0.00003  -0.00009   0.00027   0.00018   2.05229
   R10        2.63080   0.00044   0.00142   0.00010   0.00152   2.63232
   R11        2.60995   0.00009   0.00041  -0.00055  -0.00014   2.60981
   R12        2.03496  -0.00001   0.00050  -0.00053  -0.00004   2.03492
   R13        2.66752  -0.00021  -0.00120  -0.00012  -0.00131   2.66620
   R14        2.57062  -0.00040  -0.00205   0.00055  -0.00150   2.56911
   R15        1.90323   0.00001   0.00104  -0.00085   0.00019   1.90342
   R16        2.03512   0.00000  -0.00008   0.00008  -0.00000   2.03512
   R17        2.03536   0.00001   0.00045  -0.00030   0.00016   2.03552
    A3        2.31750   0.00100   0.00482   0.00294   0.00776   2.32526
    A4        2.03614   0.00010  -0.00298  -0.00111  -0.00409   2.03205
    A5        3.01148  -0.00091  -0.00554  -0.00427  -0.00981   3.00167
    A6        2.27467  -0.00083  -0.00126  -0.00211  -0.00338   2.27129
    A7        1.96905  -0.00011   0.00056   0.00011   0.00067   1.96972
    A8        2.25774  -0.00034   0.00067  -0.00098  -0.00031   2.25743
    A9        2.01716  -0.00010  -0.00035  -0.00034  -0.00069   2.01647
   A10        2.32209  -0.00061  -0.00165   0.00004  -0.00160   2.32048
   A11        2.10741  -0.00029   0.00136   0.00183   0.00319   2.11059
   A12        2.19579  -0.00009   0.00015  -0.00141  -0.00126   2.19453
   A13        1.88631   0.00063  -0.00059   0.00184   0.00125   1.88756
   A14        1.93018   0.00071  -0.00033   0.00141   0.00108   1.93125
   A15        2.17989   0.00027   0.00225  -0.00059   0.00166   2.18155
   A16        2.22015   0.00027   0.00087   0.00138   0.00225   2.22240
   A17        2.11777   0.00007  -0.00030   0.00090   0.00060   2.11837
    D4       -2.98325   0.00036   0.00388   0.00508   0.00896  -2.97430
    D5        2.94996  -0.00006   0.00128   0.00169   0.00297   2.95294
    D6       -0.17675   0.00109   0.00722   0.01568   0.02290  -0.15385
    D7        3.08248  -0.00006  -0.00667  -0.01094  -0.01761   3.06487
    D8       -0.10129   0.00035  -0.00310  -0.01012  -0.01322  -0.11450
    D9       -3.15733  -0.00026  -0.00236   0.00242   0.00006  -3.15726
   D10       -0.48561   0.00015   0.00287   0.00691   0.00978  -0.47583
   D11       -3.07248   0.00025   0.00007   0.00301   0.00308  -3.06940
   D12       -0.01750  -0.00054   0.00052  -0.00323  -0.00271  -0.02021
   D13       -3.07151  -0.00041   0.00150  -0.00007   0.00143  -3.07008
   D14        3.10729   0.00016  -0.00136   0.00147   0.00011   3.10740
   D15        3.05553  -0.00002  -0.00022  -0.00156  -0.00178   3.05375
   D16        3.13444   0.00009  -0.00133   0.00191   0.00058   3.13502
   D17        3.11480  -0.00013   0.00028  -0.00040  -0.00012   3.11468
         Item               Value     Threshold  Converged?
 Maximum Force            0.001087     0.000450     NO 
 RMS     Force            0.000410     0.000300     NO 
 Maximum Displacement     0.022900     0.001800     NO 
 RMS     Displacement     0.005667     0.001200     NO 
 Predicted change in Energy=-2.598272D-05
 GradGradGradGradGradGradGradGradGradGradGradGradGradGradGradGradGradGrad

 ---------------------------------------------------------------------------------------------------
                            Z-MATRIX (ANGSTROMS AND DEGREES)
   CD    Cent   Atom    N1       Length/X        N2       Alpha/Y        N3        Beta/Z          J
 ---------------------------------------------------------------------------------------------------
      1      1  C 
      2      2  C        1   1.457648(     1)
      3      3  C        1   1.319793(     2)      2  133.227(    17)
      4      4  H        1   1.087668(     3)      2  116.428(    18)      3 -170.415(    32)      0
      5      5  O        3   1.163898(     4)      1  171.983(    19)      2  169.191(    33)      0
      6      6  C        2   1.349005(     5)      1  130.135(    20)      3   -8.815(    34)      0
      7      7  H        2   1.082647(     6)      1  112.857(    21)      6  175.604(    35)      0
      8      8  C        6   1.438480(     7)      2  129.341(    22)      1   -6.561(    36)      0
      9      9  H        6   1.086023(     8)      2  115.535(    23)      8 -180.898(    37)      0
     10     10  C        8   1.392962(     9)      6  132.954(    24)      2  -27.263(    38)      0
     11     11  N        8   1.381051(    10)      6  120.928(    25)     10 -175.863(    39)      0
     12     12  H       10   1.076833(    11)      8  125.737(    26)      6   -1.158(    40)      0
     13     13  C       10   1.410894(    12)      8  108.149(    27)     12 -175.902(    41)      0
     14     14  C       11   1.359517(    13)      8  110.653(    28)      6  178.041(    42)      0
     15     15  H       11   1.007246(    14)      8  124.994(    29)     14  174.967(    43)      0
     16     16  H       13   1.076940(    15)     10  127.334(    30)      8  179.623(    44)      0
     17     17  H       14   1.077152(    16)     11  121.374(    31)      8  178.458(    45)      0
 ---------------------------------------------------------------------------------------------------
                         Z-Matrix orientation:                         
 ---------------------------------------------------------------------
 Center     Atomic      Atomic             Coordinates (Angstroms)
 Number     Number       Type             X           Y           Z
 ---------------------------------------------------------------------
      1          6           0        0.000000    0.000000    0.000000
      2          6           0        0.000000    0.000000    1.457648
      3          6           0        0.961655    0.000000   -0.903920
      4          1           0       -0.960404    0.162188   -0.484089
      5          8           0        1.692228   -0.030442   -1.809457
      6          6           0        1.019162   -0.158049    2.327212
      7          1           0       -0.971233    0.228002    1.878177
      8          6           0        2.392623   -0.499669    2.070061
      9          1           0        0.773417    0.008785    3.371828
     10          6           0        3.017792   -1.217418    1.053035
     11          7           0        3.386652   -0.169662    2.970229
     12          1           0        2.523225   -1.692048    0.222553
     13          6           0        4.394636   -1.293961    1.351468
     14          6           0        4.592962   -0.627175    2.541528
     15          1           0        3.257122    0.400309    3.790532
     16          1           0        5.161627   -1.783255    0.775172
     17          1           0        5.494031   -0.443217    3.102321
 ---------------------------------------------------------------------
                    Distance matrix (angstroms):
                    1          2          3          4          5
     1  C    0.000000
     2  C    1.457648   0.000000
     3  C    1.319793   2.549860   0.000000
     4  H    1.087668   2.172331   1.974050   0.000000
     5  O    2.477639   3.679475   1.163898   2.971559   0.000000
     6  C    2.545503   1.349005   3.235507   3.453208   4.193010
     7  H    2.126694   1.082647   3.395307   2.363207   4.556255
     8  C    3.203040   2.519794   3.337949   4.266676   3.970061
     9  H    3.459404   2.064543   4.279899   4.230574   5.262268
    10  C    3.420242   3.279159   3.088605   4.482422   3.370443
    11  N    4.507821   3.712963   4.573666   5.562313   5.073051
    12  H    3.046181   3.279504   2.563293   4.009140   2.753280
    13  C    4.776361   4.582405   4.306561   5.845177   4.346370
    14  C    5.286587   4.760613   5.044883   6.373172   5.263213
    15  H    5.013704   4.026343   5.240926   6.009710   5.830464
    16  H    5.515730   5.503468   4.862007   6.545972   4.667910
    17  H    6.324967   5.752023   6.065381   7.408683   6.224921
                    6          7          8          9         10
     6  C    0.000000
     7  H    2.076618   0.000000
     8  C    1.438480   3.447006   0.000000
     9  H    1.086023   2.307131   2.138913   0.000000
    10  C    2.596211   4.322317   1.392962   3.452187   0.000000
    11  N    2.453286   4.510197   1.381051   2.649929   2.215735
    12  H    3.007481   4.317281   2.202750   3.984042   1.076833
    13  C    3.692722   5.602352   2.270536   4.346520   1.410894
    14  C    3.610824   5.668477   2.253892   3.960147   2.246143
    15  H    2.731581   4.643897   2.125404   2.548999   3.188764
    16  H    4.712763   6.547805   3.315375   5.404666   2.234593
    17  H    4.550447   6.614281   3.269171   4.749857   3.306164
                   11         12         13         14         15
    11  N    0.000000
    12  H    3.257742   0.000000
    13  C    2.213700   2.221509   0.000000
    14  C    1.359517   3.285636   1.378470   0.000000
    15  H    1.007246   4.200838   3.180177   2.097667   0.000000
    16  H    3.251537   2.697197   1.076940   2.186301   4.181805
    17  H    2.129161   4.321843   2.235603   1.077152   2.487757
                   16         17
    16  H    0.000000
    17  H    2.705885   0.000000
 Symmetry turned off by external request.
 Stoichiometry    C8H7NO
 Framework group  C1[X(C8H7NO)]
 Deg. of freedom    45
 Full point group                 C1      NOp   1
 Rotational constants (GHZ):           2.3463362           0.9905984           0.7274019
 Standard basis: def2TZVP (5D, 7F)
 The following finite field(s) will be applied:
 An electric field of             -0.0069 -0.0038 -0.0062
   352 basis functions,   566 primitive gaussians,   402 cartesian basis functions
    35 alpha electrons       35 beta electrons
       nuclear repulsion energy       460.0616018985 Hartrees.
 NAtoms=   17 NActive=   17 NUniq=   17 SFac= 1.00D+00 NAtFMM=   60 NAOKFM=F Big=F
 Integral buffers will be    131072 words long.
 Raffenetti 2 integral format.
 Two-electron integral symmetry is turned off.
 One-electron integrals computed using PRISM.
   1 Symmetry operations used in ECPInt.
 ECPInt:  NShTT=    9591 NPrTT=   29644 LenC2=    9222 LenP2D=   22145.
 LDataN:  DoStor=T MaxTD1= 6 Len=  172
 NBasis=   352 RedAO= T EigKep=  3.31D-05  NBF=   352
 NBsUse=   352 1.00D-06 EigRej= -1.00D+00 NBFU=   352
 The nuclear repulsion energy is now       457.3793410835 hartrees.
 Initial guess from the checkpoint file:  "checkpoint.chk"
 B after Tr=    -0.012406   -0.006936   -0.002856
         Rot=    0.999975    0.002839   -0.002470   -0.006030 Ang=   0.81 deg.
 ExpMin= 9.52D-02 ExpMax= 2.70D+04 ExpMxC= 9.22D+02 IAcc=2 IRadAn=         4 AccDes= 0.00D+00
 Harris functional with IExCor=  402 and IRadAn=       4 diagonalized for initial guess.
 HarFok:  IExCor=  402 AccDes= 0.00D+00 IRadAn=         4 IDoV= 1 UseB2=F ITyADJ=14
 ICtDFT=  3500011 ScaDFX=  1.000000  1.000000  1.000000  1.000000
 FoFCou: FMM=F IPFlag=           0 FMFlag=      100000 FMFlg1=           0
         NFxFlg=           0 DoJE=T BraDBF=F KetDBF=T FulRan=T
         wScrn=  0.000000 ICntrl=       500 IOpCl=  0 I1Cent=   200000004 NGrid=           0
         NMat0=    1 NMatS0=      1 NMatT0=    0 NMatD0=    1 NMtDS0=    0 NMtDT0=    0
 Symmetry not used in FoFCou.
 Requested convergence on RMS density matrix=1.00D-08 within 128 cycles.
 Requested convergence on MAX density matrix=1.00D-06.
 Requested convergence on             energy=1.00D-06.
 No special actions if energy rises.
 Integral accuracy reduced to 1.0D-05 until final iterations.
 Initial convergence to 1.0D-05 achieved.  Increase integral accuracy.
 SCF Done:  E(RB3LYP) =  -439.164759186     A.U. after   12 cycles
            NFock= 12  Conv=0.58D-08     -V/T= 2.0050
   1 Symmetry operations used in ECPInt.
 ECPInt:  NShTT=    9591 NPrTT=   29644 LenC2=    9222 LenP2D=   22145.
 LDataN:  DoStor=T MaxTD1= 7 Len=  274
 Calling FoFJK, ICntrl=      2127 FMM=F ISym2X=0 I1Cent= 0 IOpClX= 0 NMat=1 NMatS=1 NMatT=0.
 -------------------------------------------------------------------
 Center     Atomic                   Forces (Hartrees/Bohr)
 Number     Number              X              Y              Z
 -------------------------------------------------------------------
      1        6          -0.002782319    0.000031003    0.000597203
      2        6           0.002771893    0.001114720   -0.000413840
      3        6           0.000113328   -0.000518070   -0.000409165
      4        1           0.000033766    0.000025443   -0.000174472
      5        8          -0.000088817   -0.000277940    0.000124879
      6        6          -0.000037341   -0.000117425    0.000361420
      7        1          -0.000031483   -0.000184944    0.000015586
      8        6           0.000162496   -0.000394851   -0.000022968
      9        1           0.000035770   -0.000092907    0.000009624
     10        6          -0.000086268    0.000236976   -0.000337049
     11        7          -0.000040139    0.000253831    0.000305402
     12        1           0.000019792   -0.000032495   -0.000002150
     13        6          -0.000041331   -0.000187258    0.000171286
     14        6           0.000143076    0.000045410   -0.000114235
     15        1          -0.000103106   -0.000016246   -0.000035219
     16        1          -0.000034301    0.000022219   -0.000035429
     17        1          -0.000035016    0.000092534   -0.000040873
 -------------------------------------------------------------------
 Cartesian Forces:  Max     0.002782319 RMS     0.000604202
 -----------------------------------------------------------------------------------------------
                       Internal Coordinate Forces (Hartree/Bohr or radian)
  Cent   Atom   N1       Length/X         N2         Alpha/Y        N3         Beta/Z          J
 -----------------------------------------------------------------------------------------------
      1  C 
      2  C        1  -0.000138(     1)
      3  C        1   0.000213(     2)      2   0.000454(    17)
      4  H        1   0.000052(     3)      2   0.000348(    18)      3   0.000057(    32)     0
      5  O        3  -0.000146(     4)      1  -0.000095(    19)      2  -0.000085(    33)     0
      6  C        2   0.000177(     5)      1   0.000053(    20)      3   0.000938(    34)     0
      7  H        2  -0.000005(     6)      1   0.000039(    21)      6   0.000353(    35)     0
      8  C        6   0.000001(     7)      2  -0.000248(    22)      1   0.000762(    36)     0
      9  H        6  -0.000013(     8)      2   0.000113(    23)      8   0.000153(    37)     0
     10  C        8   0.000064(     9)      6  -0.000477(    24)      2  -0.000177(    38)     0
     11  N        8   0.000139(    10)      6  -0.000847(    25)     10  -0.000645(    39)     0
     12  H       10   0.000007(    11)      8   0.000058(    26)      6   0.000498(    40)     0
     13  C       10  -0.000036(    12)      8  -0.000019(    27)     12   0.000538(    41)     0
     14  C       11   0.000098(    13)      8   0.000003(    28)      6   0.000570(    42)     0
     15  H       11  -0.000025(    14)      8  -0.000202(    29)     14   0.000026(    43)     0
     16  H       13  -0.000016(    15)     10  -0.000084(    30)      8   0.000051(    44)     0
     17  H       14  -0.000035(    16)     11  -0.000074(    31)      8  -0.000164(    45)     0
 -----------------------------------------------------------------------------------------------
 Internal  Forces:  Max     0.000938427 RMS     0.000317384

 GradGradGradGradGradGradGradGradGradGradGradGradGradGradGradGradGradGrad
 Berny optimization.
 Search for a local minimum.
 Step number   3 out of a maximum of   55
 All quantities printed in internal units (Hartrees-Bohrs-Radians)
 Update second derivatives using D2CorN and points    1    2    3
 DE= -2.75D-05 DEPred=-2.60D-05 R= 1.06D+00
 TightC=F SS=  1.41D+00  RLast= 3.80D-02 DXNew= 1.6818D-01 1.1405D-01
 Trust test= 1.06D+00 RLast= 3.80D-02 DXMaxT set to 1.14D-01
 ITU=  1  1  0
     Eigenvalues ---    0.02271   0.03774   0.04264   0.04541   0.07558
     Eigenvalues ---    0.09274   0.10794   0.11224   0.17096   0.18303
     Eigenvalues ---    0.19371   0.20499   0.23080   0.24133   0.25536
     Eigenvalues ---    0.25890   0.27179   0.30272   0.32924   0.35124
     Eigenvalues ---    0.35190   0.35283   0.35676   0.36366   0.36384
     Eigenvalues ---    0.36417   0.37530   0.39225   0.44756   0.46438
     Eigenvalues ---    0.46540   0.48483   0.51792   0.52673   0.54030
     Eigenvalues ---    0.55412   0.56545   0.59625   0.61952   0.67415
     Eigenvalues ---    1.22939   1.26012   1.31369   1.93042  24.93147
 RFO step:  Lambda=-1.01165543D-05 EMin= 2.27078829D-02
 Quartic linear search produced a step of  0.02299.
 Variable       Old X    -DE/DX   Delta X   Delta X   Delta X     New X
                                 (Linear)    (Quad)   (Total)
    R2        2.75455  -0.00014  -0.00001  -0.00035  -0.00036   2.75419
    R3        2.49405   0.00021  -0.00002   0.00033   0.00031   2.49436
    R4        2.05540   0.00005   0.00002   0.00021   0.00023   2.05563
    R5        2.19945  -0.00015   0.00004  -0.00003   0.00000   2.19945
    R6        2.54925   0.00018   0.00001   0.00039   0.00040   2.54965
    R7        2.04591  -0.00000  -0.00001  -0.00004  -0.00005   2.04586
    R8        2.71833   0.00000  -0.00006  -0.00021  -0.00026   2.71807
    R9        2.05229  -0.00001   0.00000  -0.00003  -0.00003   2.05226
   R10        2.63232   0.00006   0.00003   0.00011   0.00015   2.63246
   R11        2.60981   0.00014  -0.00000   0.00018   0.00017   2.60998
   R12        2.03492   0.00001  -0.00000   0.00003   0.00003   2.03495
   R13        2.66620  -0.00004  -0.00003  -0.00017  -0.00020   2.66600
   R14        2.56911   0.00010  -0.00003   0.00019   0.00016   2.56927
   R15        1.90342  -0.00002   0.00000  -0.00004  -0.00003   1.90339
   R16        2.03512  -0.00002  -0.00000  -0.00005  -0.00005   2.03508
   R17        2.03552  -0.00003   0.00000  -0.00008  -0.00008   2.03544
    A3        2.32526   0.00045   0.00018   0.00153   0.00171   2.32696
    A4        2.03205   0.00035  -0.00009   0.00032   0.00023   2.03228
    A5        3.00167  -0.00010  -0.00023  -0.00118  -0.00140   3.00027
    A6        2.27129   0.00005  -0.00008  -0.00026  -0.00033   2.27096
    A7        1.96972   0.00004   0.00002   0.00027   0.00028   1.97000
    A8        2.25743  -0.00025  -0.00001  -0.00121  -0.00122   2.25621
    A9        2.01647   0.00011  -0.00002   0.00088   0.00087   2.01734
   A10        2.32048  -0.00048  -0.00004  -0.00044  -0.00048   2.32001
   A11        2.11059  -0.00085   0.00007  -0.00024  -0.00016   2.11043
   A12        2.19453   0.00006  -0.00003   0.00033   0.00030   2.19483
   A13        1.88756  -0.00002   0.00003  -0.00058  -0.00055   1.88701
   A14        1.93125   0.00000   0.00002  -0.00064  -0.00061   1.93064
   A15        2.18155  -0.00020   0.00004   0.00016   0.00020   2.18175
   A16        2.22240  -0.00008   0.00005  -0.00045  -0.00040   2.22200
   A17        2.11837  -0.00007   0.00001  -0.00001   0.00001   2.11838
    D4       -2.97430   0.00006   0.00021  -0.00037  -0.00016  -2.97446
    D5        2.95294  -0.00009   0.00007  -0.00136  -0.00129   2.95165
    D6       -0.15385   0.00094   0.00053   0.00506   0.00559  -0.14827
    D7        3.06487   0.00035  -0.00040   0.00094   0.00053   3.06540
    D8       -0.11450   0.00076  -0.00030   0.00143   0.00113  -0.11338
    D9       -3.15726   0.00015   0.00000  -0.00001  -0.00000  -3.15727
   D10       -0.47583  -0.00018   0.00022   0.00154   0.00177  -0.47406
   D11       -3.06940  -0.00065   0.00007  -0.00226  -0.00219  -3.07158
   D12       -0.02021   0.00050  -0.00006  -0.00077  -0.00084  -0.02105
   D13       -3.07008   0.00054   0.00003   0.00341   0.00345  -3.06663
   D14        3.10740   0.00057   0.00000  -0.00114  -0.00113   3.10627
   D15        3.05375   0.00003  -0.00004   0.00052   0.00048   3.05423
   D16        3.13502   0.00005   0.00001  -0.00289  -0.00288   3.13214
   D17        3.11468  -0.00016  -0.00000   0.00065   0.00065   3.11533
         Item               Value     Threshold  Converged?
 Maximum Force            0.000938     0.000450     NO 
 RMS     Force            0.000317     0.000300     NO 
 Maximum Displacement     0.005585     0.001800     NO 
 RMS     Displacement     0.001286     0.001200     NO 
 Predicted change in Energy=-4.996074D-06
 GradGradGradGradGradGradGradGradGradGradGradGradGradGradGradGradGradGrad

 ---------------------------------------------------------------------------------------------------
                            Z-MATRIX (ANGSTROMS AND DEGREES)
   CD    Cent   Atom    N1       Length/X        N2       Alpha/Y        N3        Beta/Z          J
 ---------------------------------------------------------------------------------------------------
      1      1  C 
      2      2  C        1   1.457457(     1)
      3      3  C        1   1.319956(     2)      2  133.325(    17)
      4      4  H        1   1.087792(     3)      2  116.441(    18)      3 -170.424(    32)      0
      5      5  O        3   1.163900(     4)      1  171.903(    19)      2  169.117(    33)      0
      6      6  C        2   1.349218(     5)      1  130.116(    20)      3   -8.495(    34)      0
      7      7  H        2   1.082621(     6)      1  112.873(    21)      6  175.634(    35)      0
      8      8  C        6   1.438340(     7)      2  129.271(    22)      1   -6.496(    36)      0
      9      9  H        6   1.086008(     8)      2  115.585(    23)      8 -180.898(    37)      0
     10     10  C        8   1.393039(     9)      6  132.927(    24)      2  -27.162(    38)      0
     11     11  N        8   1.381143(    10)      6  120.919(    25)     10 -175.989(    39)      0
     12     12  H       10   1.076850(    11)      8  125.754(    26)      6   -1.206(    40)      0
     13     13  C       10   1.410787(    12)      8  108.118(    27)     12 -175.705(    41)      0
     14     14  C       11   1.359599(    13)      8  110.618(    28)      6  177.976(    42)      0
     15     15  H       11   1.007229(    14)      8  125.005(    29)     14  174.995(    43)      0
     16     16  H       13   1.076916(    15)     10  127.311(    30)      8  179.459(    44)      0
     17     17  H       14   1.077111(    16)     11  121.374(    31)      8  178.495(    45)      0
 ---------------------------------------------------------------------------------------------------
                         Z-Matrix orientation:                         
 ---------------------------------------------------------------------
 Center     Atomic      Atomic             Coordinates (Angstroms)
 Number     Number       Type             X           Y           Z
 ---------------------------------------------------------------------
      1          6           0        0.000000    0.000000    0.000000
      2          6           0        0.000000    0.000000    1.457457
      3          6           0        0.960229    0.000000   -0.905673
      4          1           0       -0.960429    0.162030   -0.484369
      5          8           0        1.688028   -0.030953   -1.813426
      6          6           0        1.020478   -0.152421    2.326814
      7          1           0       -0.972471    0.222023    1.878259
      8          6           0        2.395540   -0.485177    2.067386
      9          1           0        0.774795    0.011731    3.371852
     10          6           0        3.023373   -1.196464    1.047360
     11          7           0        3.388727   -0.149509    2.966531
     12          1           0        2.530555   -1.672179    0.216438
     13          6           0        4.400283   -1.268683    1.346066
     14          6           0        4.596841   -0.600614    2.535863
     15          1           0        3.256989    0.419428    3.787181
     16          1           0        5.168777   -1.754790    0.769122
     17          1           0        5.497702   -0.412397    3.095498
 ---------------------------------------------------------------------
                    Distance matrix (angstroms):
                    1          2          3          4          5
     1  C    0.000000
     2  C    1.457457   0.000000
     3  C    1.319956   2.550769   0.000000
     4  H    1.087792   2.172410   1.972988   0.000000
     5  O    2.477682   3.680906   1.163900   2.969505   0.000000
     6  C    2.545323   1.349218   3.236639   3.453349   4.195469
     7  H    2.126699   1.082621   3.396307   2.363420   4.557498
     8  C    3.201264   2.519131   3.336854   4.265309   3.970843
     9  H    3.459745   2.065274   4.281559   4.231316   5.265257
    10  C    3.416032   3.277269   3.082601   4.479105   3.365362
    11  N    4.506233   3.712564   4.573175   5.560659   5.074882
    12  H    3.040844   3.277197   2.553672   4.005299   2.742959
    13  C    4.773252   4.580879   4.302773   5.842488   4.344041
    14  C    5.284154   4.759690   5.042802   6.370768   5.263271
    15  H    5.012648   4.026352   5.241556   6.008245   5.833634
    16  H    5.512449   5.501759   4.857582   6.543134   4.664417
    17  H    6.322729   5.751346   6.063671   7.406273   6.225484
                    6          7          8          9         10
     6  C    0.000000
     7  H    2.076838   0.000000
     8  C    1.438340   3.446650   0.000000
     9  H    1.086008   2.308242   2.139010   0.000000
    10  C    2.595884   4.320795   1.393039   3.452406   0.000000
    11  N    2.453131   4.510258   1.381143   2.650081   2.216488
    12  H    3.007271   4.315187   2.203001   3.984330   1.076850
    13  C    3.692016   5.601064   2.270061   4.345968   1.410787
    14  C    3.610395   5.668017   2.253558   3.960036   2.246437
    15  H    2.731605   4.644490   2.125582   2.549510   3.189405
    16  H    4.711939   6.546213   3.314853   5.403877   2.234256
    17  H    4.550164   6.614174   3.268902   4.749959   3.306348
                   11         12         13         14         15
    11  N    0.000000
    12  H    3.258527   0.000000
    13  C    2.213979   2.221430   0.000000
    14  C    1.359599   3.285959   1.378611   0.000000
    15  H    1.007229   4.201515   3.180547   2.097972   0.000000
    16  H    3.251786   2.696758   1.076916   2.186460   4.182205
    17  H    2.129206   4.322037   2.235636   1.077111   2.488203
                   16         17
    16  H    0.000000
    17  H    2.705963   0.000000
 Symmetry turned off by external request.
 Stoichiometry    C8H7NO
 Framework group  C1[X(C8H7NO)]
 Deg. of freedom    45
 Full point group                 C1      NOp   1
 Rotational constants (GHZ):           2.3458289           0.9916306           0.7275327
 Standard basis: def2TZVP (5D, 7F)
 The following finite field(s) will be applied:
 An electric field of             -0.0069 -0.0038 -0.0062
   352 basis functions,   566 primitive gaussians,   402 cartesian basis functions
    35 alpha electrons       35 beta electrons
       nuclear repulsion energy       460.1178014814 Hartrees.
 NAtoms=   17 NActive=   17 NUniq=   17 SFac= 1.00D+00 NAtFMM=   60 NAOKFM=F Big=F
 Integral buffers will be    131072 words long.
 Raffenetti 2 integral format.
 Two-electron integral symmetry is turned off.
 One-electron integrals computed using PRISM.
   1 Symmetry operations used in ECPInt.
 ECPInt:  NShTT=    9591 NPrTT=   29644 LenC2=    9222 LenP2D=   22148.
 LDataN:  DoStor=T MaxTD1= 6 Len=  172
 NBasis=   352 RedAO= T EigKep=  3.31D-05  NBF=   352
 NBsUse=   352 1.00D-06 EigRej= -1.00D+00 NBFU=   352
 The nuclear repulsion energy is now       457.4310022613 hartrees.
 Initial guess from the checkpoint file:  "checkpoint.chk"
 B after Tr=    -0.003711   -0.004476   -0.001835
         Rot=    0.999996    0.000824   -0.000619   -0.002738 Ang=   0.34 deg.
 Requested convergence on RMS density matrix=1.00D-08 within 128 cycles.
 Requested convergence on MAX density matrix=1.00D-06.
 Requested convergence on             energy=1.00D-06.
 No special actions if energy rises.
 SCF Done:  E(RB3LYP) =  -439.164765035     A.U. after   10 cycles
            NFock= 10  Conv=0.63D-08     -V/T= 2.0050
   1 Symmetry operations used in ECPInt.
 ECPInt:  NShTT=    9591 NPrTT=   29644 LenC2=    9222 LenP2D=   22148.
 LDataN:  DoStor=T MaxTD1= 7 Len=  274
 Calling FoFJK, ICntrl=      2127 FMM=F ISym2X=0 I1Cent= 0 IOpClX= 0 NMat=1 NMatS=1 NMatT=0.
 -------------------------------------------------------------------
 Center     Atomic                   Forces (Hartrees/Bohr)
 Number     Number              X              Y              Z
 -------------------------------------------------------------------
      1        6          -0.002760685    0.000075918    0.000379972
      2        6           0.002865904    0.001095614   -0.000249203
      3        6          -0.000041527   -0.000495722   -0.000191539
      4        1           0.000012328    0.000003586   -0.000084259
      5        8          -0.000020901   -0.000251570    0.000004804
      6        6          -0.000119404   -0.000066467    0.000100443
      7        1          -0.000046700   -0.000185491    0.000003206
      8        6           0.000060457    0.000015337   -0.000105010
      9        1           0.000006338   -0.000073250   -0.000017143
     10        6          -0.000130672   -0.000108321    0.000155847
     11        7          -0.000006662   -0.000059037    0.000040616
     12        1           0.000057128   -0.000107110    0.000111123
     13        6           0.000130718    0.000179077    0.000020712
     14        6           0.000086675   -0.000131659   -0.000079395
     15        1          -0.000101656   -0.000045990   -0.000017378
     16        1           0.000017647    0.000083819   -0.000056466
     17        1          -0.000008988    0.000071266   -0.000016329
 -------------------------------------------------------------------
 Cartesian Forces:  Max     0.002865904 RMS     0.000592160
 -----------------------------------------------------------------------------------------------
                       Internal Coordinate Forces (Hartree/Bohr or radian)
  Cent   Atom   N1       Length/X         N2         Alpha/Y        N3         Beta/Z          J
 -----------------------------------------------------------------------------------------------
      1  C 
      2  C        1  -0.000109(     1)
      3  C        1   0.000083(     2)      2   0.000475(    17)
      4  H        1   0.000027(     3)      2   0.000166(    18)      3   0.000010(    32)     0
      5  O        3  -0.000010(     4)      1  -0.000132(    19)      2  -0.000076(    33)     0
      6  C        2   0.000109(     5)      1   0.000504(    20)      3   0.000755(    34)     0
      7  H        2   0.000005(     6)      1   0.000003(    21)      6   0.000360(    35)     0
      8  C        6   0.000114(     7)      2   0.000398(    22)      1   0.000439(    36)     0
      9  H        6  -0.000029(     8)      2   0.000033(    23)      8   0.000126(    37)     0
     10  C        8  -0.000160(     9)      6   0.000794(    24)      2  -0.000408(    38)     0
     11  N        8  -0.000109(    10)      6   0.000168(    25)     10   0.000228(    39)     0
     12  H       10  -0.000065(    11)      8   0.000092(    26)      6  -0.000978(    40)     0
     13  C       10   0.000124(    12)      8  -0.000217(    27)     12  -0.000739(    41)     0
     14  C       11   0.000119(    13)      8  -0.000117(    28)      6   0.000119(    42)     0
     15  H       11  -0.000027(    14)      8  -0.000186(    29)     14   0.000077(    43)     0
     16  H       13   0.000005(    15)     10  -0.000005(    30)      8   0.000166(    44)     0
     17  H       14  -0.000004(    16)     11  -0.000059(    31)      8  -0.000118(    45)     0
 -----------------------------------------------------------------------------------------------
 Internal  Forces:  Max     0.000977647 RMS     0.000307796

 GradGradGradGradGradGradGradGradGradGradGradGradGradGradGradGradGradGrad
 Berny optimization.
 Search for a local minimum.
 Step number   4 out of a maximum of   55
 All quantities printed in internal units (Hartrees-Bohrs-Radians)
 Update second derivatives using D2CorN and points    1    2    3    4
 DE= -5.85D-06 DEPred=-5.00D-06 R= 1.17D+00
 TightC=F SS=  1.41D+00  RLast= 8.62D-03 DXNew= 1.9181D-01 2.5873D-02
 Trust test= 1.17D+00 RLast= 8.62D-03 DXMaxT set to 1.14D-01
 ITU=  1  1  1  0
     Eigenvalues ---    0.00769   0.03780   0.04280   0.04673   0.07453
     Eigenvalues ---    0.09273   0.10985   0.11965   0.16059   0.18617
     Eigenvalues ---    0.19662   0.20375   0.23258   0.24264   0.25421
     Eigenvalues ---    0.26358   0.27387   0.30263   0.32355   0.35090
     Eigenvalues ---    0.35180   0.35283   0.35676   0.36366   0.36383
     Eigenvalues ---    0.36425   0.37525   0.39245   0.43933   0.45486
     Eigenvalues ---    0.46539   0.48482   0.51541   0.52613   0.54001
     Eigenvalues ---    0.55399   0.56550   0.59586   0.61932   0.67544
     Eigenvalues ---    1.22776   1.26003   1.32685   1.93039  24.93188
 RFO step:  Lambda=-3.87928365D-05 EMin= 7.69089962D-03
 Quartic linear search produced a step of  0.19138.
 Variable       Old X    -DE/DX   Delta X   Delta X   Delta X     New X
                                 (Linear)    (Quad)   (Total)
    R2        2.75419  -0.00011  -0.00007  -0.00152  -0.00159   2.75260
    R3        2.49436   0.00008   0.00006   0.00032   0.00038   2.49473
    R4        2.05563   0.00003   0.00004   0.00128   0.00132   2.05695
    R5        2.19945  -0.00001   0.00000   0.00112   0.00112   2.20057
    R6        2.54965   0.00011   0.00008   0.00171   0.00179   2.55144
    R7        2.04586   0.00001  -0.00001  -0.00033  -0.00034   2.04552
    R8        2.71807   0.00011  -0.00005  -0.00116  -0.00121   2.71685
    R9        2.05226  -0.00003  -0.00001  -0.00027  -0.00028   2.05198
   R10        2.63246  -0.00016   0.00003   0.00052   0.00055   2.63301
   R11        2.60998  -0.00011   0.00003   0.00023   0.00026   2.61025
   R12        2.03495  -0.00006   0.00001  -0.00070  -0.00070   2.03426
   R13        2.66600   0.00012  -0.00004  -0.00101  -0.00105   2.66495
   R14        2.56927   0.00012   0.00003   0.00015   0.00018   2.56945
   R15        1.90339  -0.00003  -0.00001  -0.00007  -0.00008   1.90331
   R16        2.03508   0.00001  -0.00001  -0.00000  -0.00001   2.03507
   R17        2.03544  -0.00000  -0.00001   0.00004   0.00002   2.03547
    A3        2.32696   0.00047   0.00033   0.01363   0.01396   2.34092
    A4        2.03228   0.00017   0.00004  -0.00425  -0.00421   2.02807
    A5        3.00027  -0.00013  -0.00027  -0.01239  -0.01266   2.98761
    A6        2.27096   0.00050  -0.00006  -0.00012  -0.00018   2.27078
    A7        1.97000   0.00000   0.00005  -0.00019  -0.00014   1.96987
    A8        2.25621   0.00040  -0.00023  -0.00127  -0.00151   2.25470
    A9        2.01734   0.00003   0.00017   0.00149   0.00166   2.01900
   A10        2.32001   0.00079  -0.00009  -0.00175  -0.00184   2.31817
   A11        2.11043   0.00017  -0.00003   0.00307   0.00304   2.11347
   A12        2.19483   0.00009   0.00006   0.00022   0.00027   2.19510
   A13        1.88701  -0.00022  -0.00010   0.00097   0.00087   1.88788
   A14        1.93064  -0.00012  -0.00012   0.00048   0.00036   1.93101
   A15        2.18175  -0.00019   0.00004   0.00083   0.00086   2.18261
   A16        2.22200  -0.00001  -0.00008   0.00010   0.00002   2.22202
   A17        2.11838  -0.00006   0.00000   0.00137   0.00137   2.11974
    D4       -2.97446   0.00001  -0.00003  -0.00129  -0.00132  -2.97578
    D5        2.95165  -0.00008  -0.00025  -0.00962  -0.00987   2.94178
    D6       -0.14827   0.00075   0.00107   0.04029   0.04136  -0.10691
    D7        3.06540   0.00036   0.00010  -0.01203  -0.01193   3.05347
    D8       -0.11338   0.00044   0.00022  -0.01792  -0.01770  -0.13108
    D9       -3.15727   0.00013  -0.00000   0.00822   0.00822  -3.14905
   D10       -0.47406  -0.00041   0.00034   0.01237   0.01271  -0.46135
   D11       -3.07158   0.00023  -0.00042  -0.00178  -0.00219  -3.07378
   D12       -0.02105  -0.00098  -0.00016  -0.02571  -0.02587  -0.04692
   D13       -3.06663  -0.00074   0.00066   0.01273   0.01339  -3.05324
   D14        3.10627   0.00012  -0.00022   0.00763   0.00741   3.11368
   D15        3.05423   0.00008   0.00009  -0.00074  -0.00065   3.05358
   D16        3.13214   0.00017  -0.00055  -0.00052  -0.00107   3.13107
   D17        3.11533  -0.00012   0.00012   0.00187   0.00199   3.11732
         Item               Value     Threshold  Converged?
 Maximum Force            0.000978     0.000450     NO 
 RMS     Force            0.000308     0.000300     NO 
 Maximum Displacement     0.041360     0.001800     NO 
 RMS     Displacement     0.009208     0.001200     NO 
 Predicted change in Energy=-1.724226D-05
 GradGradGradGradGradGradGradGradGradGradGradGradGradGradGradGradGradGrad

 ---------------------------------------------------------------------------------------------------
                            Z-MATRIX (ANGSTROMS AND DEGREES)
   CD    Cent   Atom    N1       Length/X        N2       Alpha/Y        N3        Beta/Z          J
 ---------------------------------------------------------------------------------------------------
      1      1  C 
      2      2  C        1   1.456614(     1)
      3      3  C        1   1.320156(     2)      2  134.125(    17)
      4      4  H        1   1.088491(     3)      2  116.200(    18)      3 -170.500(    32)      0
      5      5  O        3   1.164491(     4)      1  171.177(    19)      2  168.551(    33)      0
      6      6  C        2   1.350166(     5)      1  130.106(    20)      3   -6.125(    34)      0
      7      7  H        2   1.082440(     6)      1  112.865(    21)      6  174.951(    35)      0
      8      8  C        6   1.437698(     7)      2  129.185(    22)      1   -7.510(    36)      0
      9      9  H        6   1.085862(     8)      2  115.680(    23)      8 -180.427(    37)      0
     10     10  C        8   1.393329(     9)      6  132.821(    24)      2  -26.433(    38)      0
     11     11  N        8   1.381283(    10)      6  121.093(    25)     10 -176.114(    39)      0
     12     12  H       10   1.076481(    11)      8  125.770(    26)      6   -2.688(    40)      0
     13     13  C       10   1.410233(    12)      8  108.168(    27)     12 -174.938(    41)      0
     14     14  C       11   1.359694(    13)      8  110.639(    28)      6  178.401(    42)      0
     15     15  H       11   1.007188(    14)      8  125.054(    29)     14  174.957(    43)      0
     16     16  H       13   1.076910(    15)     10  127.312(    30)      8  179.397(    44)      0
     17     17  H       14   1.077122(    16)     11  121.452(    31)      8  178.609(    45)      0
 ---------------------------------------------------------------------------------------------------
                         Z-Matrix orientation:                         
 ---------------------------------------------------------------------
 Center     Atomic      Atomic             Coordinates (Angstroms)
 Number     Number       Type             X           Y           Z
 ---------------------------------------------------------------------
      1          6           0        0.000000    0.000000    0.000000
      2          6           0        0.000000    0.000000    1.456614
      3          6           0        0.947637    0.000000   -0.919128
      4          1           0       -0.963262    0.161197   -0.480577
      5          8           0        1.651765   -0.035452   -1.845942
      6          6           0        1.026787   -0.110190    2.326393
      7          1           0       -0.978477    0.193286    1.877208
      8          6           0        2.409713   -0.405091    2.066540
      9          1           0        0.778246    0.052401    3.370849
     10          6           0        3.054153   -1.100381    1.045445
[...]

 ----------------------------------------------------------------------
 1\1\GINC-BHC0034\Freq\RB3LYP\def2TZVP\C8H7N1O1\DHANAWAY\10-Jun-2022\1\
 \#N Geom=AllCheck Guess=TCheck SCRF=Check GenChk RB3LYP/def2TZVP Freq\
 \int_zmat_initalOpt\\0,1\C\C,1,R2\C,1,R3,2,A3\H,1,R4,2,A4,3,D4,0\O,3,R
 5,1,A5,2,D5,0\C,2,R6,1,A6,3,D6,0\H,2,R7,1,A7,6,D7,0\C,6,R8,2,A8,1,D8,0
 \H,6,R9,2,A9,8,D9,0\C,8,R10,6,A10,2,D10,0\N,8,R11,6,A11,10,D11,0\H,10,
 R12,8,A12,6,D12,0\C,10,R13,8,A13,12,D13,0\C,11,R14,8,A14,6,D14,0\H,11,
 R15,8,A15,14,D15,0\H,13,R16,10,A16,8,D16,0\H,14,R17,11,A17,8,D17,0\\R2
 =1.4565902\R3=1.32010388\R4=1.08813594\R5=1.16432585\R6=1.34954174\R7=
 1.08265801\R8=1.43804179\R9=1.08601418\R10=1.39297021\R11=1.38121694\R
 12=1.07672912\R13=1.41085521\R14=1.35973417\R15=1.00712896\R16=1.07688
 901\R17=1.07713424\A3=133.78957625\A4=116.32065755\A5=171.49388039\A6=
 130.2635387\A7=112.81113887\A8=129.25129001\A9=115.57234874\A10=132.95
 097083\A11=120.92076512\A12=125.7945309\A13=108.12869106\A14=110.61195
 622\A15=124.98549084\A16=127.30691957\A17=121.37376536\D4=-171.2266408
 5\D5=166.3935325\D6=-5.67222779\D7=176.19673747\D8=-5.73857688\D9=-181
 .24242229\D10=-27.88551701\D11=-176.42822969\D12=-2.08599398\D13=-175.
 43722451\D14=178.46547844\D15=175.09319577\D16=179.4769915\D17=178.489
 81568\\Version=ES64L-G16RevA.03\HF=-439.1648017\RMSD=3.765e-09\RMSF=5.
 802e-04\ZeroPoint=0.1299501\Thermal=0.1388811\Dipole=0.7665439,0.59989
 69,1.793066\DipoleDeriv=-0.2778385,-0.0444069,0.5795379,-0.0639225,-0.
 2686041,-0.0568933,0.0655967,-0.0032172,-0.5193511,-0.4475334,0.053434
 6,-0.291376,-0.0949492,-0.1801627,-0.0458411,-0.0772951,0.0179575,0.43
 94098,0.6485481,0.0689476,-1.2474583,0.0265184,0.150909,0.1275221,-0.3
 023771,-0.1629569,1.7782051,-0.0344793,0.0282451,-0.0808946,0.0480845,
 0.1723342,0.0257473,-0.0214186,0.0110075,0.0031896,-0.3221618,-0.07910
 31,0.9682515,-0.010055,-0.1329507,-0.1195224,0.083143,0.156127,-1.6860
 791,0.8711097,-0.2067087,0.2318799,-0.1488912,-0.0808312,-0.0306243,-0
 .0211647,0.0139719,-0.0814872,-0.1226915,0.0378365,0.0454297,0.0274864
 ,0.139077,-0.0109919,0.0371936,-0.0057483,-0.0025705,-0.6539255,0.1750
 665,-0.1155816,0.2442549,0.0088359,0.2037056,0.3124303,0.1019895,0.278
 4429,0.0294369,0.0121275,0.0050419,0.0854257,0.1113461,0.0093963,0.048
 8774,-0.0278278,-0.0667275,0.4429716,-0.0677677,0.1570641,-0.0591003,-
 0.1292064,0.0194341,-0.1476704,0.0683936,-0.2528551,0.2471238,0.023229
 5,0.2943469,-0.082318,-0.2593958,-0.1702321,0.1516885,-0.2117205,-0.44
 09118,0.032116,-0.04597,-0.0714392,-0.0443054,0.0972304,-0.0881634,-0.
 0493007,-0.085385,0.0142573,-0.3389374,0.0186974,-0.1631381,-0.2075112
 ,-0.1739898,-0.0319229,-0.3688113,0.1114639,-0.2542561,-0.3614575,-0.0
 429101,-0.368283,0.2016384,-0.0099679,0.2734736,0.2235672,0.1273571,0.
 292312,0.1731994,0.0180617,0.0248472,0.0353316,0.2740035,-0.0094703,0.
 0252005,-0.0022411,0.3174156,0.0051893,0.0478449,0.0315308,0.0293273,0
 .1292156,-0.0604473,0.052453,-0.0627032,0.0750392,0.10933,0.0033752,0.
 0002409,0.0129856,0.1521569,-0.03517,-0.0121124,-0.0464679,0.1059667\P
 olar=147.0556148,-12.0252967,64.8039535,17.1290884,4.4297024,119.91812
 8\PG=C01 [X(C8H7N1O1)]\NImag=0\\0.62434216,-0.05091621,0.07139189,-0.1
 1744120,-0.01434235,0.67703489,-0.07967464,0.00508254,0.01199233,0.711
 55658,0.00605014,-0.03519599,-0.00265852,-0.08554108,0.10978733,-0.020
 42679,0.00457885,-0.22883114,0.08535382,-0.00069203,0.62737699,-0.2707
 1267,0.01372608,0.18265233,-0.01424068,-0.00111290,0.02797436,0.699404
 32,0.00681082,-0.03221072,-0.00143738,0.00319514,-0.00663210,0.0026511
 6,-0.03322523,0.08184013,0.18941275,-0.00290443,-0.29914800,0.03901914
 ,0.00114498,-0.02992739,-0.65477956,0.02303607,0.93246093,-0.26317899,
 0.03567055,-0.10524256,0.00136397,0.00035371,0.00090014,-0.03193930,0.
 00491375,-0.00515851,0.28744906,0.04064452,-0.02173266,0.01751458,0.00
 030015,0.00354886,0.00013417,-0.00279750,0.00037689,0.00062896,-0.0400
 0602,0.01326486,-0.09981254,0.01635401,-0.09196506,-0.02866579,0.00443
 749,-0.01411581,0.01847531,-0.00292933,0.00724434,0.10954371,-0.018632
 96,0.10534008,-0.01492042,-0.00357970,0.04355075,0.00616512,0.00156671
 ,-0.00472919,-0.39228760,0.01956736,0.43219129,0.00457332,0.00156904,-
 0.00161539,0.40327483,-0.00247309,0.00938583,0.00158294,-0.00203924,0.
 00553244,-0.00284409,0.02265530,-0.04357553,-0.02256283,-0.00076682,0.
 00258318,0.00079467,-0.01959210,0.02629895,0.04494290,-0.00034180,-0.0
 0175983,-0.01226063,-0.00166619,-0.00093280,0.43434446,-0.02192495,-0.
 61062514,-0.00065137,0.00072981,-0.00307704,-0.46912329,0.02091316,0.6
 1990826,0.00540801,-0.00016192,-0.01561805,-0.30480606,0.03390828,-0.1
 5835204,0.01182644,-0.00357958,-0.00406576,0.00086260,-0.00083729,0.00
 216667,-0.01083530,0.00317790,0.01103109,0.69184063,-0.00138627,0.0045
 8846,0.00221389,0.02432256,-0.05395755,0.00810564,0.00056109,0.0025522
 5,0.00145569,0.00017929,0.00168656,-0.00005490,0.00083066,-0.00156762,
 -0.00213117,-0.08053056,0.14448843,-0.01712017,0.00114919,-0.04188117,
 -0.18295702,0.01543610,-0.24979149,-0.01389200,0.00006155,0.00778275,0
 .00042571,-0.00023242,-0.00400850,0.00400583,0.00042252,-0.00305322,0.
 09485932,0.04552472,0.68954004,-0.00008208,-0.00015775,-0.00198023,-0.
 28263958,0.04317529,0.09875554,0.00166920,0.00000276,-0.00111552,0.001
 24882,-0.00035892,-0.00001275,0.00007766,0.00020228,0.00010155,-0.0231
 8966,0.00426896,0.00980482,0.30331660,0.00044775,0.00009143,-0.0002550
 5,0.04411571,-0.03408010,-0.01931367,-0.00076776,0.00059766,0.00086536
 ,-0.00049699,-0.00000746,0.00017795,0.00043754,0.00068491,-0.00042717,
 0.00399557,0.00110658,0.00006942,-0.04699406,0.02829512,0.02582268,-0.
 00375963,-0.01692943,0.09994215,-0.01783880,-0.09502568,-0.00056241,-0
 .00069747,-0.00594053,0.00043671,0.00010665,0.00120923,0.00140561,0.00
 023325,0.00018512,-0.02109191,0.00386135,0.00845150,-0.10192563,0.0177
 1934,0.10850766,0.00078475,-0.00159319,0.01012080,-0.04782484,0.002390
 38,-0.01647026,-0.00081767,0.00252386,0.00278120,-0.00004649,0.0009873
 9,0.00077015,0.00396075,-0.00225793,-0.00572576,-0.24507494,0.03785563
 ,0.05139672,0.00020905,-0.00010711,-0.00208382,0.73676328,0.00038434,-
 0.00431374,-0.00323228,0.00728495,0.00571284,0.00566666,-0.00277670,-0
 .00315092,-0.00171986,0.00028701,0.00012461,-0.00028321,0.00005850,0.0
 0193272,0.00254108,0.02830541,-0.06335477,-0.02603804,0.00025810,0.009
 77417,-0.00045150,-0.08093248,0.25968847,0.00062047,0.00053505,-0.0003
 4044,-0.01539995,0.00463144,0.01694773,-0.00142469,-0.00009865,-0.0025
 1913,0.00025724,-0.00029370,-0.00030027,-0.00057934,0.00059661,0.00273
 803,0.01817130,-0.02113322,-0.11026321,-0.00373775,0.00074614,-0.00186
 557,-0.03658223,0.19890750,0.49652996,-0.00144930,0.00162659,-0.003846
 65,0.00656639,-0.00179490,-0.02429237,-0.00154370,0.00002698,0.0003266
 2,-0.00012956,0.00010357,-0.00076108,0.00045098,-0.00001224,-0.0000598
 1,-0.07348637,0.01083765,0.06475539,0.00069229,-0.00143939,-0.00092919
 ,-0.00552147,0.00676881,0.03080050,0.07837702,0.00106004,0.00833576,-0
 .00019301,0.00362529,0.00340450,0.00466362,0.00117457,0.00058403,-0.00
 100471,0.00002941,0.00010341,-0.00002175,-0.00101819,-0.00045032,0.001
 17273,0.00508276,-0.03773193,-0.03878608,-0.00099969,-0.00652989,0.000
 58072,0.00733205,0.00102727,-0.00779835,-0.01587400,0.02987527,-0.0028
 7346,-0.00099979,0.00050715,0.00425189,-0.00235233,-0.02090170,-0.0001
 4103,-0.00015632,0.00043361,-0.00001839,0.00004660,-0.00081548,0.00003
 066,0.00009925,-0.00016842,0.06227029,-0.03764358,-0.30416808,-0.00004
 987,0.00104761,0.00110419,0.00118448,-0.00177356,-0.00506331,-0.064999
 46,0.04065251,0.32648306,-0.00165718,0.00074338,-0.00273097,0.01087986
 ,0.00054793,0.00575341,0.00410648,-0.00202555,-0.00217689,-0.00001074,
 0.00041888,0.00019942,-0.00378090,0.00090782,0.00310847,-0.02678723,0.
 01565066,0.02196664,0.00001092,-0.00030655,0.00007445,-0.13238056,0.04
 846335,0.07110047,-0.00410769,-0.00074290,0.00011550,0.58951747,0.0014
 4868,-0.00044090,-0.00089831,-0.00218160,0.00003053,0.00001400,-0.0046
 9627,0.00197843,0.00386856,-0.00009309,-0.00026742,-0.00004959,0.00418
 371,-0.00176208,-0.00119113,0.00578334,0.00114550,0.00035218,-0.000188
 87,-0.00042139,-0.00009721,0.05413899,-0.13120968,-0.10179344,-0.00145
 073,0.00271095,0.00096917,0.01799124,0.30483620,-0.00064921,-0.0010004
 5,0.00304785,-0.00686692,0.00015208,-0.00505151,0.00196769,0.00330306,
 0.00142913,-0.00025705,-0.00031313,0.00016742,-0.00029150,-0.00143484,
 -0.00383954,0.01762398,-0.00078589,0.00571827,0.00001051,-0.00019236,-
 0.00019099,0.07097120,-0.09482507,-0.21168776,-0.00117818,0.00016167,0
 .00085024,0.09722674,0.30007813,0.60577690,-0.00244138,0.00007956,-0.0
 0048419,0.00539765,0.00119419,0.00493370,0.00639778,-0.00129462,-0.002
 24805,-0.00023996,-0.00021836,-0.00008846,-0.00440003,0.00090508,0.002
 61377,-0.04715117,-0.01197298,-0.03038428,-0.00086077,0.00164808,-0.00
 055424,-0.17818726,-0.03185966,-0.07933058,0.00270706,-0.00162925,-0.0
 0138728,-0.01454328,-0.00882943,-0.02292895,0.63612856,0.00020861,-0.0
 0002881,-0.00011317,0.00094740,0.00182494,-0.00152769,-0.00043530,-0.0
 0018839,-0.00090393,0.00005879,-0.00006348,-0.00005191,-0.00011217,0.0
 0015415,0.00016670,0.00785584,0.00032177,0.00791148,0.00090945,0.00064
 150,0.00020919,-0.03505232,-0.08764877,-0.05725813,0.00061140,-0.00109
 628,0.00037045,0.00696723,-0.01149494,-0.04227028,-0.08247975,0.336031
 04,-0.00164568,0.00052509,-0.00009668,0.00600917,-0.00136567,0.0012569
 5,0.00549742,-0.00138749,-0.00250905,-0.00008930,-0.00007038,0.0002150
 0,-0.00382774,0.00093886,0.00278405,-0.00499114,0.00626984,0.00716732,
 0.00023230,-0.00079717,0.00047298,-0.07074701,-0.05610370,-0.17214628,
 -0.00060436,0.00066861,0.00143588,0.00636669,-0.04473107,-0.06292683,-
 0.03731886,0.38157790,0.68982082,-0.00085421,0.00011605,-0.00006170,0.
 00021504,0.00008947,0.00001461,0.00069213,0.00106646,-0.00153214,-0.00
 005470,0.00006649,0.00001252,-0.00133655,0.00071135,-0.00042997,-0.000
 14196,-0.00062364,-0.00059455,0.00000942,-0.00001192,-0.00001107,0.011
 98875,0.00638775,0.01130664,0.00009209,-0.00012640,-0.00003205,-0.1112
 4467,-0.05803045,-0.09753960,-0.00224810,0.00261901,0.00360579,0.10860
 202,-0.00139874,-0.00012796,-0.00029723,0.00127340,-0.00041900,-0.0007
 7328,0.00483894,-0.00146643,-0.00006626,-0.00014585,0.00051169,0.00021
 426,-0.00221770,0.00024682,0.00082879,-0.00065711,-0.00185498,0.001846
 56,0.00003632,0.00011126,0.00015713,-0.00897989,-0.00394717,-0.0045043
 5,-0.00002815,0.00000885,0.00001389,-0.05850335,-0.10291710,-0.1244494
 9,0.00018047,0.00140400,-0.00379734,0.06219216,0.10331278,0.00036640,0
 .00036612,0.00022789,0.00017611,0.00011449,0.00005554,-0.00213343,0.00
 013660,-0.00003555,0.00005426,-0.00012174,-0.00006215,-0.00029744,0.00
 129806,-0.00135384,-0.00080073,0.00167590,-0.00085596,0.00002874,-0.00
 002416,0.00001657,-0.01174577,-0.00472452,-0.00953682,0.00012976,-0.00
 001656,-0.00003397,-0.09542937,-0.12276625,-0.21864381,0.00242689,-0.0
 0365272,-0.00166931,0.10866411,0.13015108,0.23053998,0.00262309,-0.000
 14063,-0.00067405,-0.00592050,-0.00092812,-0.00070558,-0.00791868,0.00
 143669,0.00295332,0.00010516,-0.00018427,-0.00022938,0.00517191,-0.000
 73872,-0.00357583,0.01054335,0.00057295,0.00221753,-0.00007340,-0.0002
 3720,-0.00022812,-0.05886477,0.03430697,0.04643703,-0.00053685,0.00117
 010,-0.00010376,-0.28495365,-0.00607675,-0.04921468,-0.00800065,0.0114
 9037,0.01431332,-0.00142965,0.00212171,0.00052827,0.68166818,0.0009573
 7,0.00011429,0.00139285,-0.00399517,0.00007673,-0.00130038,-0.00264335
 ,-0.00020373,0.00027472,0.00012156,-0.00017659,-0.00008949,0.00190147,
 0.00015794,-0.00112752,0.00568421,0.00032214,-0.00457020,0.00011463,-0
 .00003590,-0.00004689,0.00459662,0.00857170,-0.00263551,0.00104180,0.0
 0021748,-0.00020497,0.01287456,-0.07389431,-0.02162264,0.03612348,-0.0
 1097659,-0.03637506,-0.01451617,0.00204455,-0.00057933,-0.11931154,0.2
 9347681,0.00049954,-0.00012295,-0.00016161,-0.00526029,-0.00061567,-0.
 00241308,-0.00307084,0.00019297,0.00300692,-0.00009600,0.00047602,0.00
 006655,0.00261190,-0.00040923,-0.00323439,0.01020842,-0.00426569,-0.00
 235592,0.00000621,-0.00030934,0.00004821,-0.00449860,0.00091043,0.0130
 6237,0.00084568,0.00100050,0.00026605,-0.02262516,-0.02595673,-0.10125
 525,0.05606718,-0.04095108,-0.04675204,-0.02183046,0.00350186,-0.00021
 119,-0.09581980,0.27370044,0.55640186,0.00190444,-0.00041085,-0.000526
 79,-0.00646299,-0.00018418,0.00082826,-0.00518983,0.00060629,0.0043527
 3,0.00001610,0.00033204,-0.00003945,0.00413740,-0.00067838,-0.00438929
 ,0.00910963,-0.00088805,-0.00356580,-0.00024819,-0.00031156,-0.0001966
 8,-0.09117063,-0.00547121,-0.02677551,-0.00082942,0.00093974,0.0008753
 3,-0.01156355,-0.01177796,-0.02158783,-0.29003098,0.05526565,0.0554786
 1,-0.00647424,0.00196496,-0.00069820,-0.11204382,-0.01808030,-0.038099
 37,0.75294109,-0.00162059,-0.00004669,0.00070314,0.00322465,0.00082159
 ,0.00046730,0.00468814,-0.00067780,-0.00155530,-0.00010333,-0.00004381
 ,0.00005277,-0.00292932,0.00048700,0.00187908,-0.00864170,0.00028949,-
 0.00330881,-0.00022689,0.00022015,-0.00004451,0.01513957,0.00928739,-0
 .00547851,0.00009176,-0.00079792,-0.00031425,-0.03968586,0.00764014,-0
 .01509272,0.04610027,-0.08886954,-0.04418722,0.00004331,0.00215191,-0.
 00162838,-0.00326033,-0.13945932,-0.12500896,0.02794701,0.27240517,-0.
 00161631,0.00001040,-0.00007205,0.00424141,0.00100546,0.00203831,0.004
 94472,-0.00054068,-0.00122623,-0.00013623,0.00007281,0.00009114,-0.003
 21634,0.00026306,0.00195062,-0.01173578,-0.00334485,-0.00542355,-0.000
 32187,0.00056246,-0.00007848,0.00321780,-0.01004039,-0.00295659,0.0003
 8022,-0.00100922,-0.00001893,-0.07141180,-0.00876032,-0.01825970,0.048
 16882,-0.04415590,-0.11998692,-0.00169382,-0.00241230,0.00172330,-0.01
 440228,-0.12734440,-0.28243946,0.14711776,0.25158269,0.57200916,-0.000
 30052,-0.00009084,0.00053735,-0.00047773,0.00030748,-0.00010412,0.0010
 1026,-0.00012131,-0.00040953,-0.00001403,0.00000720,0.00008326,-0.0005
 6960,0.00007210,0.00039351,0.00245020,-0.00015583,-0.00076787,-0.00003
 101,0.00001931,-0.00001526,0.01235061,-0.01354902,-0.01633318,-0.00094
 158,-0.00004472,0.00083126,-0.00443274,-0.00201886,-0.00453745,-0.0837
 5304,0.03994354,0.04628604,0.00085489,-0.00020111,-0.00098652,-0.00678
 255,0.00215509,0.00207262,0.00615940,0.01621765,0.02582122,0.07349165,
 -0.00001655,0.00001788,0.00014212,0.00025065,-0.00014426,0.00013991,0.
 00027547,-0.00005241,-0.00040599,0.00002682,0.00003427,0.00004111,-0.0
 0026934,0.00006147,0.00031909,0.00008995,-0.00127039,0.00102607,0.0000
 7253,0.00007280,0.00001224,0.00261766,-0.00664787,0.00029933,-0.000649
 49,0.00048520,0.00008450,-0.00042820,0.00088545,-0.00077614,0.04161451
 ,-0.14446684,-0.20466986,0.00020363,0.00187384,-0.00107336,0.00066145,
 0.00188294,-0.00079745,-0.00183575,-0.00567621,-0.00060404,-0.04246230
 ,0.15263675,-0.00011295,0.00000115,0.00024162,0.00009197,0.00015293,-0
 .00043657,0.00019400,0.00004168,-0.00035019,0.00001106,-0.00001441,0.0
 0001362,-0.00015340,-0.00004391,0.00042750,0.00009617,0.00128259,0.000
 81339,0.00004898,-0.00009929,0.00001733,0.00784373,-0.00452791,-0.0118
 1415,-0.00020796,-0.00016313,0.00006732,-0.00434648,-0.00078701,-0.000
 22198,0.04699715,-0.20033009,-0.30428462,0.00045335,-0.00116198,0.0003
 2736,0.00201621,-0.00032757,0.00313192,0.00072024,-0.00057893,-0.00527
 326,-0.05351152,0.20598658,0.31699792,0.00017872,0.00000015,-0.0001864
 9,-0.00012250,-0.00001870,0.00020773,-0.00043887,0.00009088,0.00059234
 ,-0.00001511,-0.00000490,-0.00001333,0.00037661,-0.00008863,-0.0004713
 2,0.00034523,0.00060505,0.00094398,-0.00004154,-0.00004297,-0.00002985
 ,-0.00502358,-0.00027517,-0.00219913,-0.00037289,0.00004433,0.00006422
 ,-0.00994363,0.01103806,0.01639557,0.00099067,-0.00104643,-0.00263991,
 0.00080745,-0.00052397,-0.00031444,-0.21992071,0.09243332,0.11745723,0
 .00813381,-0.00316521,-0.00354884,0.00065163,0.00002298,-0.00023278,0.
 22454208,0.00009630,0.00006317,-0.00003744,-0.00029265,-0.00001835,0.0
 0006084,-0.00016907,0.00017342,-0.00011536,0.00001292,-0.00001776,-0.0
 0000148,0.00003483,-0.00010700,0.00006463,0.00056984,0.00106230,-0.000
 58919,-0.00001115,-0.00011944,0.00000667,-0.00120070,0.00312437,-0.001
 86801,0.00015518,-0.00021973,0.00008625,-0.00249055,0.00127956,0.00324
 658,0.00027975,0.00188662,-0.00453158,0.00035820,-0.00169343,0.0012603
 5,0.09026696,-0.08449962,-0.07914231,0.01137934,-0.00335138,-0.0019758
 5,0.00062424,0.00156060,-0.00079281,-0.09916228,0.08285867,0.00003281,
 -0.00003847,-0.00002858,0.00018070,0.00001011,0.00004464,-0.00007881,-
 0.00005398,0.00016513,-0.00000314,-0.00000840,-0.00000033,0.00009101,0
 .00002566,-0.00009550,-0.00021466,-0.00022895,0.00102544,0.00001285,0.
 00005314,-0.00000741,-0.00283981,-0.00197537,0.00004346,-0.00032585,0.
 00013839,0.00006792,-0.00690439,0.00621041,0.00793667,-0.00098398,-0.0
 0480620,-0.00331099,0.00093500,0.00095087,-0.00068471,0.11538380,-0.07
 832892,-0.13545761,0.02060192,-0.00546324,-0.00602345,0.00115322,-0.00
 089738,0.00053632,-0.12671435,0.08287708,0.13621101,0.00003023,0.00000
 619,-0.00006070,0.00002493,-0.00000370,0.00035877,-0.00001761,0.000005
 31,-0.00014341,0.00000985,-0.00002200,-0.00001285,-0.00005819,0.000015
 33,0.00015152,-0.00091340,-0.00012716,-0.00109426,-0.00006773,0.000051
 56,-0.00005344,-0.00114497,0.00235904,0.00366869,0.00003299,-0.0000231
 5,-0.00001834,0.00089111,0.00075997,0.00085568,-0.01976509,-0.00775131
 ,-0.01592533,0.00052227,0.00004791,0.00003135,0.00633353,0.00054241,0.
 00153173,-0.25838819,-0.05381912,-0.12580868,0.00033417,-0.00017401,0.
 00009223,-0.00014738,-0.00045116,-0.00032633,0.27232350,-0.00029710,0.
 00010876,-0.00008478,0.00042728,-0.00029241,-0.00003100,0.00070451,0.0
 0005522,-0.00003566,-0.00004173,0.00007485,0.00004235,-0.00043130,-0.0
 0006285,0.00019486,-0.00004494,0.00217375,-0.00027504,-0.00010299,-0.0
 0040141,0.00004947,0.00254147,0.00102937,-0.00285421,-0.00001482,0.000
 07336,0.00007458,-0.00038207,0.00190105,-0.00417851,0.01015867,0.00256
 962,0.00803622,-0.00054528,0.00076037,-0.00041559,-0.01114964,0.002381
 48,-0.00220282,-0.05879679,-0.05438018,-0.05330892,-0.00070265,-0.0012
 5324,0.00136211,0.00009349,-0.00198200,0.00153526,0.05858389,0.0472442
 6,0.00000076,-0.00000998,0.00015459,0.00015191,0.00010413,-0.00029297,
 0.00003250,-0.00019683,-0.00024160,0.00002372,-0.00002245,-0.00000271,
 -0.00005343,0.00012686,0.00014615,0.00044282,-0.00080137,0.00130240,0.
 00014211,0.00017678,0.00002530,0.00240718,-0.00233026,-0.00082802,-0.0
 0003327,-0.00004594,-0.00004549,-0.00028673,-0.00446139,-0.00284909,0.
 01450134,0.00578537,0.01052972,-0.00126666,-0.00020218,0.00019667,-0.0
 1889601,-0.00081514,-0.00170332,-0.13409594,-0.05202416,-0.13605392,-0
 .00051303,0.00117325,-0.00019352,0.00068935,0.00145162,-0.00042201,0.1
 3675337,0.05209170,0.13027784\\0.00282719,-0.00006073,0.00004603,-0.00
 278381,-0.00069017,-0.00001224,-0.00007231,0.00094092,-0.00003734,-0.0
 0000458,-0.00002311,-0.00000876,0.00003370,-0.00015396,0.00001727,0.00
 000607,-0.00008483,0.00001307,0.00000328,0.00000533,-0.00000073,-0.000
 00368,0.00007241,-0.00002232,0.00000484,0.00002039,-0.00000151,0.00000
 908,-0.00006884,0.00003013,-0.00000592,0.00001715,-0.00000303,-0.00000
 525,0.00001689,-0.00001763,-0.00001140,0.00004805,-0.00003253,-0.00001
 208,-0.00004272,0.00004096,0.00001326,0.00000977,-0.00000283,-0.000002
 58,0.00000065,-0.00000277,0.00000420,-0.00000722,-0.00000578\\\@


 THE MOST BEAUTIFUL EXPERIENCE WE CAN HAVE IS THE MYSTERIOUS.
 IT IS THE FUNDAMENTAL EMOTION WHICH STANDS AT AT THE CRADLE 
 OF TRUE ART AND TRUE SCIENCE.

                                    -- ALBERT EINSTEIN
 Job cpu time:       0 days  2 hours  1 minutes 41.9 seconds.
 Elapsed time:       0 days  0 hours 10 minutes  9.1 seconds.
 File lengths (MBytes):  RWF=    182 Int=      0 D2E=      0 Chk=     32 Scr=      1
 Normal termination of Gaussian 16 at Fri Jun 10 05:21:15 2022.
