 Entering Gaussian System, Link 0=g16
 Input=int_zmat_field_N50.gjf
 Output=int_zmat_field_N50.out
 Initial command:
 /software/gaussian/g16-a03/l1.exe "/local_scratch/11171397/Gau-10133.inp" -scrdir="/local_scratch/11171397/"
 Entering Link 1 = /software/gaussian/g16-a03/l1.exe PID=     10134.
  
 Copyright (c) 1988,1990,1992,1993,1995,1998,2003,2009,2016,
            Gaussian, Inc.  All Rights Reserved.
  
 This is part of the Gaussian(R) 16 program.  It is based on
 the Gaussian(R) 09 system (copyright 2009, Gaussian, Inc.),
 the Gaussian(R) 03 system (copyright 2003, Gaussian, Inc.),
 the Gaussian(R) 98 system (copyright 1998, Gaussian, Inc.),
 the Gaussian(R) 94 system (copyright 1995, Gaussian, Inc.),
 the Gaussian 92(TM) system (copyright 1992, Gaussian, Inc.),
 the Gaussian 90(TM) system (copyright 1990, Gaussian, Inc.),
 the Gaussian 88(TM) system (copyright 1988, Gaussian, Inc.),
 the Gaussian 86(TM) system (copyright 1986, Carnegie Mellon
 University), and the Gaussian 82(TM) system (copyright 1983,
 Carnegie Mellon University). Gaussian is a federally registered
 trademark of Gaussian, Inc.
  
 This software contains proprietary and confidential information,
 including trade secrets, belonging to Gaussian, Inc.
  
 This software is provided under written license and may be
 used, copied, transmitted, or stored only in accord with that
 written license.
  
 The following legend is applicable only to US Government
 contracts under FAR:
  
                    RESTRICTED RIGHTS LEGEND
  
 Use, reproduction and disclosure by the US Government is
 subject to restrictions as set forth in subparagraphs (a)
 and (c) of the Commercial Computer Software - Restricted
 Rights clause in FAR 52.227-19.
  
 Gaussian, Inc.
 340 Quinnipiac St., Bldg. 40, Wallingford CT 06492
  
  
 ---------------------------------------------------------------
 Warning -- This program may not be used in any manner that
 competes with the business of Gaussian, Inc. or will provide
 assistance to any competitor of Gaussian, Inc.  The licensee
 of this program is prohibited from giving any competitor of
 Gaussian, Inc. access to this program.  By using this program,
 the user acknowledges that Gaussian, Inc. is engaged in the
 business of creating and licensing software in the field of
 computational chemistry and represents and warrants to the
 licensee that it is not a competitor of Gaussian, Inc. and that
 it will not use this program in any manner prohibited above.
 ---------------------------------------------------------------
  

 Cite this work as:
 Gaussian 16, Revision A.03,
 M. J. Frisch, G. W. Trucks, H. B. Schlegel, G. E. Scuseria, 
 M. A. Robb, J. R. Cheeseman, G. Scalmani, V. Barone, 
 G. A. Petersson, H. Nakatsuji, X. Li, M. Caricato, A. V. Marenich, 
 J. Bloino, B. G. Janesko, R. Gomperts, B. Mennucci, H. P. Hratchian, 
 J. V. Ortiz, A. F. Izmaylov, J. L. Sonnenberg, D. Williams-Young, 
 F. Ding, F. Lipparini, F. Egidi, J. Goings, B. Peng, A. Petrone, 
 T. Henderson, D. Ranasinghe, V. G. Zakrzewski, J. Gao, N. Rega, 
 G. Zheng, W. Liang, M. Hada, M. Ehara, K. Toyota, R. Fukuda, 
 J. Hasegawa, M. Ishida, T. Nakajima, Y. Honda, O. Kitao, H. Nakai, 
 T. Vreven, K. Throssell, J. A. Montgomery, Jr., J. E. Peralta, 
 F. Ogliaro, M. J. Bearpark, J. J. Heyd, E. N. Brothers, K. N. Kudin, 
 V. N. Staroverov, T. A. Keith, R. Kobayashi, J. Normand, 
 K. Raghavachari, A. P. Rendell, J. C. Burant, S. S. Iyengar, 
 J. Tomasi, M. Cossi, J. M. Millam, M. Klene, C. Adamo, R. Cammi, 
 J. W. Ochterski, R. L. Martin, K. Morokuma, O. Farkas, 
 J. B. Foresman, and D. J. Fox, Gaussian, Inc., Wallingford CT, 2016.
 
 ******************************************
 Gaussian 16:  ES64L-G16RevA.03 25-Dec-2016
                10-Jun-2022 
 ******************************************
 %nprocshared=12
 Will use up to   12 processors via shared memory.
 %chk=checkpoint.chk
 %mem=12GB
 ----------------------------------------------------------------------
 # Opt=(Z-matrix, MaxStep=10) B3LYP/Def2TZVP geom=allcheckpoint guess=r
 ead Field=read NoSymm freq=noraman pop=none
 ----------------------------------------------------------------------
 1/8=10,10=7,18=40,26=3,29=7,38=1/1,3;
 2/12=2,15=1,29=3,40=1/2;
 3/5=44,7=101,11=2,14=-6,25=1,30=1,71=1,74=-5,116=-2/1,2,3;
 4/5=1/1;
 5/5=2,38=6/2;
 7/29=1,30=1/1,2,3,16;
 1/8=10,10=7,18=40,26=3/3(2);
 2/15=1,29=3/2;
 99//99;
 2/15=1,29=3/2;
 3/5=44,7=101,11=2,14=-2,25=1,30=1,71=1,74=-5/1,2,3;
 4/5=5,16=3,69=1/1;
 5/5=2,38=5/2;
 7/30=1/1,2,3,16;
 1/8=10,18=40,26=3/3(-5);
 2/15=1,29=3/2;
 99/9=1/99;
 Structure from the checkpoint file:  "checkpoint.chk"
 ------------------
 int_zmat_initalOpt
 ------------------
 Charge =  0 Multiplicity = 1
 Z-Matrix found in chk file.
 C
 C,1,R2
 C,1,R3,2,A3
 H,1,R4,2,A4,3,D4,0
 O,3,R5,1,A5,2,D5,0
 C,2,R6,1,A6,3,D6,0
 H,2,R7,1,A7,6,D7,0
 C,6,R8,2,A8,1,D8,0
 H,6,R9,2,A9,8,D9,0
 C,8,R10,6,A10,2,D10,0
 N,8,R11,6,A11,10,D11,0
 H,10,R12,8,A12,6,D12,0
 C,10,R13,8,A13,12,D13,0
 C,11,R14,8,A14,6,D14,0
 H,11,R15,8,A15,14,D15,0
 H,13,R16,10,A16,8,D16,0
 H,14,R17,11,A17,8,D17,0
      Variables:
 R2=1.45530572
 R3=1.31990635
 R4=1.08553352
 R5=1.15931265
 R6=1.34715625
 R7=1.08305999
 R8=1.44406788
 R9=1.0861136
 R10=1.38930829
 R11=1.38119669
 R12=1.07603357
 R13=1.41396287
 R14=1.36457303
 R15=1.00536929
 R16=1.0771644
 R17=1.07650881
 A3=130.22470099
 A4=117.76439916
 A5=175.44553506
 A6=130.88218581
 A7=112.65429893
 A8=129.87469127
 A9=115.42348911
 A10=133.74489073
 A11=120.02407642
 A12=125.89782387
 A13=108.12356683
 A14=110.63355084
 A15=124.3387558
 A16=126.83215394
 A17=121.38246667
 D4=-172.14376258
 D5=172.27480178
 D6=-17.47582495
 D7=178.60758693
 D8=-5.27863716
 D9=-179.70298821
 D10=-25.70947833
 D11=-175.57467649
 D12=0.2236456
 D13=-176.77389246
 D14=177.60911273
 D15=175.5396687
 D16=179.67269583
 D17=178.69496102
 Recover connectivity data from disk.

 GradGradGradGradGradGradGradGradGradGradGradGradGradGradGradGradGradGrad
 Berny optimization.
 Initialization pass.
                       ----------------------------
                       !    Initial Parameters    !
                       ! (Angstroms and Degrees)  !
 ----------------------                            ----------------------
 !      Name          Value   Derivative information (Atomic Units)     !
 ------------------------------------------------------------------------
 !       R2          1.4553   estimate D2E/DX2                          !
 !       R3          1.3199   estimate D2E/DX2                          !
 !       R4          1.0855   estimate D2E/DX2                          !
 !       R5          1.1593   estimate D2E/DX2                          !
 !       R6          1.3472   estimate D2E/DX2                          !
 !       R7          1.0831   estimate D2E/DX2                          !
 !       R8          1.4441   estimate D2E/DX2                          !
 !       R9          1.0861   estimate D2E/DX2                          !
 !       R10         1.3893   estimate D2E/DX2                          !
 !       R11         1.3812   estimate D2E/DX2                          !
 !       R12         1.076    estimate D2E/DX2                          !
 !       R13         1.414    estimate D2E/DX2                          !
 !       R14         1.3646   estimate D2E/DX2                          !
 !       R15         1.0054   estimate D2E/DX2                          !
 !       R16         1.0772   estimate D2E/DX2                          !
 !       R17         1.0765   estimate D2E/DX2                          !
 !       A3        130.2247   estimate D2E/DX2                          !
 !       A4        117.7644   estimate D2E/DX2                          !
 !       A5        175.4455   estimate D2E/DX2                          !
 !       A6        130.8822   estimate D2E/DX2                          !
 !       A7        112.6543   estimate D2E/DX2                          !
 !       A8        129.8747   estimate D2E/DX2                          !
 !       A9        115.4235   estimate D2E/DX2                          !
 !       A10       133.7449   estimate D2E/DX2                          !
 !       A11       120.0241   estimate D2E/DX2                          !
 !       A12       125.8978   estimate D2E/DX2                          !
 !       A13       108.1236   estimate D2E/DX2                          !
 !       A14       110.6336   estimate D2E/DX2                          !
 !       A15       124.3388   estimate D2E/DX2                          !
 !       A16       126.8322   estimate D2E/DX2                          !
 !       A17       121.3825   estimate D2E/DX2                          !
 !       D4       -172.1438   estimate D2E/DX2                          !
 !       D5        172.2748   estimate D2E/DX2                          !
 !       D6        -17.4758   estimate D2E/DX2                          !
 !       D7        178.6076   estimate D2E/DX2                          !
 !       D8         -5.2786   estimate D2E/DX2                          !
 !       D9       -179.703    estimate D2E/DX2                          !
 !       D10       -25.7095   estimate D2E/DX2                          !
 !       D11      -175.5747   estimate D2E/DX2                          !
 !       D12         0.2236   estimate D2E/DX2                          !
 !       D13      -176.7739   estimate D2E/DX2                          !
 !       D14       177.6091   estimate D2E/DX2                          !
 !       D15       175.5397   estimate D2E/DX2                          !
 !       D16       179.6727   estimate D2E/DX2                          !
 !       D17       178.695    estimate D2E/DX2                          !
 ------------------------------------------------------------------------
 Trust Radius=1.00D-01 FncErr=1.00D-07 GrdErr=1.00D-06 EigMax=2.50D+02 EigMin=1.00D-04
 Number of steps in this run=     55 maximum allowed number of steps=    100.
 GradGradGradGradGradGradGradGradGradGradGradGradGradGradGradGradGradGrad

 ---------------------------------------------------------------------------------------------------
                            Z-MATRIX (ANGSTROMS AND DEGREES)
   CD    Cent   Atom    N1       Length/X        N2       Alpha/Y        N3        Beta/Z          J
 ---------------------------------------------------------------------------------------------------
      1      1  C 
      2      2  C        1   1.455306(     1)
      3      3  C        1   1.319906(     2)      2  130.225(    17)
      4      4  H        1   1.085534(     3)      2  117.764(    18)      3 -172.144(    32)      0
      5      5  O        3   1.159313(     4)      1  175.446(    19)      2  172.275(    33)      0
      6      6  C        2   1.347156(     5)      1  130.882(    20)      3  -17.476(    34)      0
      7      7  H        2   1.083060(     6)      1  112.654(    21)      6  178.608(    35)      0
      8      8  C        6   1.444068(     7)      2  129.875(    22)      1   -5.279(    36)      0
      9      9  H        6   1.086114(     8)      2  115.423(    23)      8 -179.703(    37)      0
     10     10  C        8   1.389308(     9)      6  133.745(    24)      2  -25.709(    38)      0
     11     11  N        8   1.381197(    10)      6  120.024(    25)     10 -175.575(    39)      0
     12     12  H       10   1.076034(    11)      8  125.898(    26)      6    0.224(    40)      0
     13     13  C       10   1.413963(    12)      8  108.124(    27)     12 -176.774(    41)      0
     14     14  C       11   1.364573(    13)      8  110.634(    28)      6  177.609(    42)      0
     15     15  H       11   1.005369(    14)      8  124.339(    29)     14  175.540(    43)      0
     16     16  H       13   1.077164(    15)     10  126.832(    30)      8  179.673(    44)      0
     17     17  H       14   1.076509(    16)     11  121.382(    31)      8  178.695(    45)      0
 ---------------------------------------------------------------------------------------------------
                         Z-Matrix orientation:                         
 ---------------------------------------------------------------------
 Center     Atomic      Atomic             Coordinates (Angstroms)
 Number     Number       Type             X           Y           Z
 ---------------------------------------------------------------------
      1          6           0        0.000000    0.000000    0.000000
      2          6           0        0.000000    0.000000    1.455306
      3          6           0        1.007772    0.000000   -0.852378
      4          1           0       -0.951541    0.131297   -0.505682
      5          8           0        1.831223   -0.012375   -1.668333
      6          6           0        0.971516   -0.305867    2.337027
      7          1           0       -0.945789    0.323230    1.872468
      8          6           0        2.297493   -0.830223    2.108629
      9          1           0        0.723274   -0.138410    3.381047
     10          6           0        2.868264   -1.591482    1.096264
     11          7           0        3.279166   -0.668375    3.066662
     12          1           0        2.363158   -1.953365    0.217766
     13          6           0        4.206528   -1.870838    1.457234
     14          6           0        4.435658   -1.279645    2.678159
     15          1           0        3.173355   -0.114734    3.899160
     16          1           0        4.921825   -2.443846    0.891287
     17          1           0        5.321540   -1.243072    3.288689
 ---------------------------------------------------------------------
                    Distance matrix (angstroms):
                    1          2          3          4          5
     1  C    0.000000
     2  C    1.455306   0.000000
     3  C    1.319906   2.518136   0.000000
     4  H    1.085534   2.183607   1.994077   0.000000
     5  O    2.477269   3.620863   1.159313   3.019300   0.000000
     6  C    2.549332   1.347156   3.204244   3.459805   4.107084
     7  H    2.122529   1.083060   3.368333   2.385889   4.512393
     8  C    3.227082   2.528750   3.334698   4.279645   3.892521
     9  H    3.460312   2.061738   4.245231   4.240802   5.171041
    10  C    3.458547   3.299798   3.129129   4.486101   3.348436
    11  N    4.539171   3.714313   4.578737   5.594640   4.994702
    12  H    3.073690   3.306305   2.607281   3.982012   2.758218
    13  C    4.828918   4.603794   4.366508   5.870882   4.343401
    14  C    5.337142   4.775764   5.084544   6.414788   5.223126
    15  H    5.028598   4.006965   5.223029   6.039696   5.727894
    16  H    5.566968   5.524026   4.932805   6.563483   4.692071
    17  H    6.378047   5.764140   6.107557   7.459067   6.186193
                    6          7          8          9         10
     6  C    0.000000
     7  H    2.070661   0.000000
     8  C    1.444068   3.450378   0.000000
     9  H    1.086114   2.296670   2.139117   0.000000
    10  C    2.605754   4.337697   1.389308   3.454365   0.000000
    11  N    2.447249   4.501069   1.381197   2.629122   2.214371
    12  H    3.023605   4.343967   2.200254   3.998703   1.076034
    13  C    3.699794   5.615401   2.269716   4.339979   1.413963
    14  C    3.614540   5.672593   2.257896   3.946931   2.248635
    15  H    2.706453   4.611577   2.117797   2.504376   3.182781
    16  H    4.718693   6.561122   3.312524   5.398312   2.232858
    17  H    4.550464   6.613501   3.272284   4.729995   3.308577
                   11         12         13         14         15
    11  N    0.000000
    12  H    3.256759   0.000000
    13  C    2.212731   2.222860   0.000000
    14  C    1.364573   3.286744   1.375742   0.000000
    15  H    1.005369   4.194001   3.180307   2.107432   0.000000
    16  H    3.253134   2.690907   1.077164   2.187380   4.186790
    17  H    2.133275   4.322858   2.234181   1.076509   2.502103
                   16         17
    16  H    0.000000
    17  H    2.710934   0.000000
 Symmetry turned off by external request.
 Stoichiometry    C8H7NO
 Framework group  C1[X(C8H7NO)]
 Deg. of freedom    45
 Full point group                 C1      NOp   1
 Rotational constants (GHZ):           2.3839769           0.9825871           0.7304186
 Standard basis: def2TZVP (5D, 7F)
 The following finite field(s) will be applied:
 An electric field of             -0.0034 -0.0019 -0.0031
   352 basis functions,   566 primitive gaussians,   402 cartesian basis functions
    35 alpha electrons       35 beta electrons
       nuclear repulsion energy       460.2459095937 Hartrees.
 NAtoms=   17 NActive=   17 NUniq=   17 SFac= 1.00D+00 NAtFMM=   60 NAOKFM=F Big=F
 Integral buffers will be    131072 words long.
 Raffenetti 2 integral format.
 Two-electron integral symmetry is turned off.
 One-electron integrals computed using PRISM.
   1 Symmetry operations used in ECPInt.
 ECPInt:  NShTT=    9591 NPrTT=   29644 LenC2=    9223 LenP2D=   22141.
 LDataN:  DoStor=T MaxTD1= 6 Len=  172
 NBasis=   352 RedAO= T EigKep=  3.30D-05  NBF=   352
 NBsUse=   352 1.00D-06 EigRej= -1.00D+00 NBFU=   352
 The nuclear repulsion energy is now       458.9682022606 hartrees.
 Initial guess from the checkpoint file:  "checkpoint.chk"
 B after Tr=     0.000000    0.000000    0.000000
         Rot=    1.000000   -0.000000    0.000000   -0.000000 Ang=   0.00 deg.
 Requested convergence on RMS density matrix=1.00D-08 within 128 cycles.
 Requested convergence on MAX density matrix=1.00D-06.
 Requested convergence on             energy=1.00D-06.
 No special actions if energy rises.
 SCF Done:  E(RB3LYP) =  -439.157450482     A.U. after   11 cycles
            NFock= 11  Conv=0.50D-08     -V/T= 2.0049
   1 Symmetry operations used in ECPInt.
 ECPInt:  NShTT=    9591 NPrTT=   29644 LenC2=    9223 LenP2D=   22141.
 LDataN:  DoStor=T MaxTD1= 7 Len=  274
 Calling FoFJK, ICntrl=      2127 FMM=F ISym2X=0 I1Cent= 0 IOpClX= 0 NMat=1 NMatS=1 NMatT=0.
 -------------------------------------------------------------------
 Center     Atomic                   Forces (Hartrees/Bohr)
 Number     Number              X              Y              Z
 -------------------------------------------------------------------
      1        6          -0.000306370    0.000050127   -0.000949963
      2        6          -0.000034939   -0.000337724    0.001133153
      3        6          -0.000696312   -0.000013502    0.001342263
      4        1           0.000018873    0.000207643    0.000028876
      5        8           0.000677233   -0.000233844   -0.001488864
      6        6           0.000667766   -0.000543147   -0.000328555
      7        1           0.000018102    0.000238882    0.000052215
      8        6          -0.000381800    0.000589736    0.000799594
      9        1           0.000086635    0.000236175   -0.000097548
     10        6           0.000471575   -0.000278257   -0.000284432
     11        7           0.000634890   -0.000822291   -0.000699087
     12        1          -0.000068811    0.000016127   -0.000143419
     13        6          -0.000571292   -0.000345051   -0.000561785
     14        6          -0.001071769    0.000729646    0.000671887
     15        1           0.000379756    0.000264558    0.000436098
     16        1           0.000127393    0.000117331    0.000116114
     17        1           0.000049068    0.000123593   -0.000026547
 -------------------------------------------------------------------
 Cartesian Forces:  Max     0.001488864 RMS     0.000540659
 -----------------------------------------------------------------------------------------------
                       Internal Coordinate Forces (Hartree/Bohr or radian)
  Cent   Atom   N1       Length/X         N2         Alpha/Y        N3         Beta/Z          J
 -----------------------------------------------------------------------------------------------
      1  C 
      2  C        1   0.001068(     1)
      3  C        1   0.000080(     2)      2   0.001582(    17)
      4  H        1  -0.000005(     3)      2  -0.000062(    18)      3   0.000378(    32)     0
      5  O        3   0.001531(     4)      1  -0.001325(    19)      2  -0.000024(    33)     0
      6  C        2   0.000136(     5)      1  -0.001013(    20)      3   0.000160(    34)     0
      7  H        2   0.000076(     6)      1   0.000051(    21)      6  -0.000438(    35)     0
      8  C        6  -0.000588(     7)      2  -0.000315(    22)      1  -0.000260(    36)     0
      9  H        6  -0.000077(     8)      2  -0.000050(    23)      8  -0.000477(    37)     0
     10  C        8   0.000888(     9)      6  -0.002055(    24)      2  -0.000133(    38)     0
     11  N        8   0.000294(    10)      6  -0.001107(    25)     10  -0.000528(    39)     0
     12  H       10   0.000144(    11)      8  -0.000043(    26)      6   0.000353(    40)     0
     13  C       10  -0.000489(    12)      8   0.000797(    27)     12   0.000244(    41)     0
     14  C       11  -0.001433(    13)      8   0.000945(    28)      6   0.000159(    42)     0
     15  H       11   0.000467(    14)      8   0.000782(    29)     14  -0.000204(    43)     0
     16  H       13  -0.000039(    15)     10   0.000382(    30)      8   0.000133(    44)     0
     17  H       14   0.000030(    16)     11  -0.000051(    31)      8  -0.000226(    45)     0
 -----------------------------------------------------------------------------------------------
 Internal  Forces:  Max     0.002054572 RMS     0.000694112

 GradGradGradGradGradGradGradGradGradGradGradGradGradGradGradGradGradGrad
 Berny optimization.
 Search for a local minimum.
 Step number   1 out of a maximum of   55
 All quantities printed in internal units (Hartrees-Bohrs-Radians)
 Second derivative matrix not updated -- first step.
 ITU=  0
     Eigenvalues ---    0.02915   0.03667   0.04292   0.04671   0.07336
     Eigenvalues ---    0.09260   0.10168   0.10468   0.16220   0.16760
     Eigenvalues ---    0.19680   0.20102   0.20797   0.23618   0.24937
     Eigenvalues ---    0.25243   0.25705   0.26599   0.29409   0.32898
     Eigenvalues ---    0.35266   0.35334   0.35624   0.35830   0.36340
     Eigenvalues ---    0.36420   0.36478   0.37558   0.39033   0.40372
     Eigenvalues ---    0.44830   0.46757   0.48559   0.51790   0.52842
     Eigenvalues ---    0.53147   0.54853   0.55631   0.61955   0.64372
     Eigenvalues ---    0.81458   1.28245   1.30361   1.88792  25.00241
 RFO step:  Lambda=-4.00388248D-05 EMin= 2.91538290D-02
 Linear search not attempted -- first point.
 Variable       Old X    -DE/DX   Delta X   Delta X   Delta X     New X
                                 (Linear)    (Quad)   (Total)
    R2        2.75013   0.00107   0.00000   0.00284   0.00284   2.75297
    R3        2.49426   0.00008   0.00000   0.00013   0.00013   2.49439
    R4        2.05136  -0.00000   0.00000  -0.00001  -0.00001   2.05135
    R5        2.19078   0.00153   0.00000   0.00120   0.00120   2.19199
    R6        2.54576   0.00014   0.00000   0.00025   0.00025   2.54600
    R7        2.04669   0.00008   0.00000   0.00022   0.00022   2.04690
    R8        2.72889  -0.00059   0.00000  -0.00151  -0.00151   2.72738
    R9        2.05246  -0.00008   0.00000  -0.00022  -0.00022   2.05224
   R10        2.62541   0.00089   0.00000   0.00111   0.00111   2.62653
   R11        2.61008   0.00029   0.00000  -0.00002  -0.00002   2.61006
   R12        2.03341   0.00014   0.00000   0.00039   0.00039   2.03380
   R13        2.67200  -0.00049   0.00000  -0.00093  -0.00093   2.67107
   R14        2.57867  -0.00143   0.00000  -0.00245  -0.00245   2.57622
   R15        1.89987   0.00047   0.00000   0.00101   0.00101   1.90088
   R16        2.03555  -0.00004   0.00000  -0.00011  -0.00011   2.03544
   R17        2.03431   0.00003   0.00000   0.00008   0.00008   2.03439
    A3        2.27285   0.00158   0.00000   0.00474   0.00474   2.27759
    A4        2.05538  -0.00006   0.00000  -0.00276  -0.00276   2.05261
    A5        3.06210  -0.00133   0.00000  -0.00520  -0.00520   3.05690
    A6        2.28433  -0.00101   0.00000  -0.00191  -0.00191   2.28241
    A7        1.96619   0.00005   0.00000   0.00106   0.00106   1.96725
    A8        2.26674  -0.00032   0.00000   0.00018   0.00018   2.26692
    A9        2.01452  -0.00005   0.00000  -0.00029  -0.00029   2.01422
   A10        2.33429  -0.00205   0.00000  -0.00140  -0.00140   2.33289
   A11        2.09482  -0.00111   0.00000   0.00112   0.00112   2.09593
   A12        2.19733  -0.00004   0.00000   0.00021   0.00021   2.19754
   A13        1.88711   0.00080   0.00000  -0.00062  -0.00062   1.88650
   A14        1.93092   0.00095   0.00000  -0.00033  -0.00033   1.93059
   A15        2.17012   0.00078   0.00000   0.00226   0.00226   2.17238
   A16        2.21364   0.00038   0.00000   0.00133   0.00133   2.21497
   A17        2.11852  -0.00005   0.00000  -0.00073  -0.00073   2.11780
    D4       -3.00448   0.00038   0.00000   0.00473   0.00473  -2.99975
    D5        3.00676  -0.00002   0.00000   0.00182   0.00182   3.00859
    D6       -0.30501   0.00016   0.00000   0.00325   0.00325  -0.30176
    D7        3.11729  -0.00044   0.00000  -0.00673  -0.00673   3.11056
    D8       -0.09213  -0.00026   0.00000  -0.00201  -0.00201  -0.09414
    D9       -3.13641  -0.00048   0.00000  -0.00404  -0.00404  -3.14045
   D10       -0.44872  -0.00013   0.00000   0.00053   0.00053  -0.44818
   D11       -3.06436  -0.00053   0.00000  -0.00081  -0.00081  -3.06517
   D12        0.00390   0.00035   0.00000   0.00072   0.00072   0.00462
   D13       -3.08529   0.00024   0.00000  -0.00062  -0.00062  -3.08591
   D14        3.09986   0.00016   0.00000   0.00043   0.00043   3.10029
   D15        3.06375  -0.00020   0.00000  -0.00179  -0.00179   3.06196
   D16        3.13588   0.00013   0.00000   0.00091   0.00091   3.13679
   D17        3.11882  -0.00023   0.00000  -0.00164  -0.00164   3.11717
         Item               Value     Threshold  Converged?
 Maximum Force            0.002055     0.000450     NO 
 RMS     Force            0.000694     0.000300     NO 
 Maximum Displacement     0.006731     0.001800     NO 
 RMS     Displacement     0.002135     0.001200     NO 
 Predicted change in Energy=-2.001941D-05
 GradGradGradGradGradGradGradGradGradGradGradGradGradGradGradGradGradGrad

 ---------------------------------------------------------------------------------------------------
                            Z-MATRIX (ANGSTROMS AND DEGREES)
   CD    Cent   Atom    N1       Length/X        N2       Alpha/Y        N3        Beta/Z          J
 ---------------------------------------------------------------------------------------------------
      1      1  C 
      2      2  C        1   1.456810(     1)
      3      3  C        1   1.319973(     2)      2  130.496(    17)
      4      4  H        1   1.085527(     3)      2  117.606(    18)      3 -171.873(    32)      0
      5      5  O        3   1.159950(     4)      1  175.147(    19)      2  172.379(    33)      0
      6      6  C        2   1.347286(     5)      1  130.772(    20)      3  -17.290(    34)      0
      7      7  H        2   1.083174(     6)      1  112.715(    21)      6  178.222(    35)      0
      8      8  C        6   1.443267(     7)      2  129.885(    22)      1   -5.394(    36)      0
      9      9  H        6   1.085999(     8)      2  115.407(    23)      8 -179.935(    37)      0
     10     10  C        8   1.389898(     9)      6  133.664(    24)      2  -25.679(    38)      0
     11     11  N        8   1.381184(    10)      6  120.088(    25)     10 -175.621(    39)      0
     12     12  H       10   1.076241(    11)      8  125.910(    26)      6    0.265(    40)      0
     13     13  C       10   1.413469(    12)      8  108.088(    27)     12 -176.810(    41)      0
     14     14  C       11   1.363278(    13)      8  110.614(    28)      6  177.634(    42)      0
     15     15  H       11   1.005902(    14)      8  124.468(    29)     14  175.437(    43)      0
     16     16  H       13   1.077108(    15)     10  126.908(    30)      8  179.725(    44)      0
     17     17  H       14   1.076552(    16)     11  121.341(    31)      8  178.601(    45)      0
 ---------------------------------------------------------------------------------------------------
                         Z-Matrix orientation:                         
 ---------------------------------------------------------------------
 Center     Atomic      Atomic             Coordinates (Angstroms)
 Number     Number       Type             X           Y           Z
 ---------------------------------------------------------------------
      1          6           0        0.000000    0.000000    0.000000
      2          6           0        0.000000    0.000000    1.456810
      3          6           0        1.003772    0.000000   -0.857187
      4          1           0       -0.952284    0.135988   -0.503022
      5          8           0        1.819533   -0.013013   -1.681716
      6          6           0        0.974208   -0.303241    2.336664
      7          1           0       -0.944337    0.326412    1.875078
      8          6           0        2.299981   -0.824946    2.106084
      9          1           0        0.729160   -0.131554    3.380632
     10          6           0        2.868748   -1.585976    1.091610
     11          7           0        3.284443   -0.660747    3.060832
     12          1           0        2.361597   -1.948192    0.214175
     13          6           0        4.207838   -1.863289    1.449144
     14          6           0        4.439481   -1.269708    2.668941
     15          1           0        3.182892   -0.105846    3.893665
     16          1           0        4.923674   -2.434549    0.882222
     17          1           0        5.327522   -1.229665    3.276184
 ---------------------------------------------------------------------
                    Distance matrix (angstroms):
                    1          2          3          4          5
     1  C    0.000000
     2  C    1.456810   0.000000
     3  C    1.319973   2.522328   0.000000
     4  H    1.085527   2.183181   1.992506   0.000000
     5  O    2.477708   3.627839   1.159950   3.015708   0.000000
     6  C    2.549713   1.347286   3.208351   3.459497   4.116575
     7  H    2.124673   1.083174   3.371490   2.385725   4.517186
     8  C    3.225839   2.528242   3.337914   4.278792   3.903523
     9  H    3.460875   2.061571   4.248745   4.240472   5.179801
    10  C    3.454945   3.298242   3.129100   4.484228   3.356546
    11  N    4.537934   3.714436   4.581367   5.593362   5.005725
    12  H    3.068952   3.304048   2.605180   3.979949   2.762817
    13  C    4.824703   4.601935   4.365438   5.868128   4.350840
    14  C    5.333329   4.773930   5.084273   6.411588   5.231789
    15  H    5.030173   4.010021   5.227846   6.040615   5.740404
    16  H    5.563085   5.522658   4.931350   6.561513   4.698224
    17  H    6.374006   5.762351   6.106689   7.455426   6.194110
                    6          7          8          9         10
     6  C    0.000000
     7  H    2.071314   0.000000
     8  C    1.443267   3.450303   0.000000
     9  H    1.085999   2.297176   2.138398   0.000000
    10  C    2.604774   4.337126   1.389898   3.454388   0.000000
    11  N    2.447328   4.501452   1.381184   2.629028   2.215104
    12  H    3.022528   4.342997   2.201090   3.998934   1.076241
    13  C    3.698351   5.614367   2.269282   4.339442   1.413469
    14  C    3.612836   5.671271   2.256564   3.945679   2.248377
    15  H    2.709521   4.614712   2.119454   2.506924   3.184491
    16  H    4.717643   6.560657   3.312465   5.398128   2.233079
    17  H    4.548879   6.612162   3.270923   4.728815   3.308307
                   11         12         13         14         15
    11  N    0.000000
    12  H    3.257701   0.000000
    13  C    2.212760   2.222827   0.000000
    14  C    1.363278   3.286916   1.376190   0.000000
    15  H    1.005902   4.196119   3.180378   2.105598   0.000000
    16  H    3.252660   2.692038   1.077108   2.187158   4.185925
    17  H    2.131717   4.323065   2.234557   1.076552   2.498737
                   16         17
    16  H    0.000000
    17  H    2.710331   0.000000
 Symmetry turned off by external request.
 Stoichiometry    C8H7NO
 Framework group  C1[X(C8H7NO)]
 Deg. of freedom    45
 Full point group                 C1      NOp   1
 Rotational constants (GHZ):           2.3805704           0.9818950           0.7296371
 Standard basis: def2TZVP (5D, 7F)
 The following finite field(s) will be applied:
 An electric field of             -0.0034 -0.0019 -0.0031
   352 basis functions,   566 primitive gaussians,   402 cartesian basis functions
    35 alpha electrons       35 beta electrons
       nuclear repulsion energy       460.1375840701 Hartrees.
 NAtoms=   17 NActive=   17 NUniq=   17 SFac= 1.00D+00 NAtFMM=   60 NAOKFM=F Big=F
 Integral buffers will be    131072 words long.
 Raffenetti 2 integral format.
 Two-electron integral symmetry is turned off.
 One-electron integrals computed using PRISM.
   1 Symmetry operations used in ECPInt.
 ECPInt:  NShTT=    9591 NPrTT=   29644 LenC2=    9223 LenP2D=   22140.
 LDataN:  DoStor=T MaxTD1= 6 Len=  172
 NBasis=   352 RedAO= T EigKep=  3.29D-05  NBF=   352
 NBsUse=   352 1.00D-06 EigRej= -1.00D+00 NBFU=   352
 The nuclear repulsion energy is now       458.8608289854 hartrees.
 Initial guess from the checkpoint file:  "checkpoint.chk"
 B after Tr=    -0.007162   -0.000661   -0.000780
         Rot=    0.999999    0.000791   -0.001311   -0.000608 Ang=   0.19 deg.
 Requested convergence on RMS density matrix=1.00D-08 within 128 cycles.
 Requested convergence on MAX density matrix=1.00D-06.
 Requested convergence on             energy=1.00D-06.
 No special actions if energy rises.
 SCF Done:  E(RB3LYP) =  -439.157479258     A.U. after   10 cycles
            NFock= 10  Conv=0.63D-08     -V/T= 2.0050
   1 Symmetry operations used in ECPInt.
 ECPInt:  NShTT=    9591 NPrTT=   29644 LenC2=    9223 LenP2D=   22140.
 LDataN:  DoStor=T MaxTD1= 7 Len=  274
 Calling FoFJK, ICntrl=      2127 FMM=F ISym2X=0 I1Cent= 0 IOpClX= 0 NMat=1 NMatS=1 NMatT=0.
 -------------------------------------------------------------------
 Center     Atomic                   Forces (Hartrees/Bohr)
 Number     Number              X              Y              Z
 -------------------------------------------------------------------
      1        6          -0.000485414    0.000131784   -0.000011478
      2        6           0.000552125   -0.000104662    0.000218260
      3        6          -0.000361316   -0.000091312    0.000722360
      4        1          -0.000047665    0.000165039   -0.000089143
      5        8           0.000136248   -0.000252521   -0.000612694
      6        6           0.000260363   -0.000169917   -0.000229890
      7        1           0.000069125    0.000057614   -0.000093941
      8        6          -0.000344351    0.000356780    0.000311971
      9        1           0.000010357    0.000119742    0.000010917
     10        6           0.000245012   -0.000088557    0.000012313
     11        7           0.000058500   -0.000335158   -0.000274386
     12        1          -0.000045786    0.000011823    0.000031282
     13        6          -0.000163175   -0.000110622   -0.000311886
     14        6          -0.000193320    0.000185497    0.000337967
     15        1           0.000157681    0.000032394    0.000002283
     16        1           0.000082368    0.000062616    0.000040955
     17        1           0.000069249    0.000029460   -0.000064891
 -------------------------------------------------------------------
 Cartesian Forces:  Max     0.000722360 RMS     0.000239657
 -----------------------------------------------------------------------------------------------
                       Internal Coordinate Forces (Hartree/Bohr or radian)
  Cent   Atom   N1       Length/X         N2         Alpha/Y        N3         Beta/Z          J
 -----------------------------------------------------------------------------------------------
      1  C 
      2  C        1  -0.000009(     1)
      3  C        1  -0.000242(     2)      2   0.000889(    17)
      4  H        1   0.000104(     3)      2   0.000095(    18)      3   0.000285(    32)     0
      5  O        3   0.000534(     4)      1  -0.000797(    19)      2  -0.000037(    33)     0
      6  C        2  -0.000009(     5)      1  -0.000963(    20)      3   0.000287(    34)     0
      7  H        2  -0.000079(     6)      1  -0.000141(    21)      6  -0.000145(    35)     0
      8  C        6  -0.000189(     7)      2  -0.000560(    22)      1  -0.000051(    36)     0
      9  H        6   0.000027(     8)      2  -0.000054(    23)      8  -0.000212(    37)     0
     10  C        8   0.000283(     9)      6  -0.000578(    24)      2  -0.000074(    38)     0
     11  N        8   0.000056(    10)      6   0.000059(    25)     10  -0.000113(    39)     0
     12  H       10  -0.000008(    11)      8  -0.000109(    26)      6  -0.000221(    40)     0
     13  C       10  -0.000136(    12)      8   0.000462(    27)     12  -0.000193(    41)     0
     14  C       11  -0.000280(    13)      8   0.000490(    28)      6  -0.000043(    42)     0
     15  H       11   0.000004(    14)      8   0.000267(    29)     14  -0.000124(    43)     0
     16  H       13  -0.000000(    15)     10   0.000194(    30)      8   0.000094(    44)     0
     17  H       14   0.000022(    16)     11   0.000126(    31)      8  -0.000130(    45)     0
 -----------------------------------------------------------------------------------------------
 Internal  Forces:  Max     0.000962766 RMS     0.000319158

 GradGradGradGradGradGradGradGradGradGradGradGradGradGradGradGradGradGrad
 Berny optimization.
 Search for a local minimum.
 Step number   2 out of a maximum of   55
 All quantities printed in internal units (Hartrees-Bohrs-Radians)
 Update second derivatives using D2CorN and points    1    2
 DE= -2.88D-05 DEPred=-2.00D-05 R= 1.44D+00
 TightC=F SS=  1.41D+00  RLast= 1.43D-02 DXNew= 1.6818D-01 4.2971D-02
 Trust test= 1.44D+00 RLast= 1.43D-02 DXMaxT set to 1.00D-01
 ITU=  1  0
     Eigenvalues ---    0.02545   0.03228   0.03773   0.04605   0.06416
     Eigenvalues ---    0.08159   0.10161   0.10458   0.16048   0.16656
     Eigenvalues ---    0.18436   0.20105   0.20753   0.23545   0.23783
     Eigenvalues ---    0.24981   0.25793   0.26594   0.29377   0.32886
     Eigenvalues ---    0.35268   0.35336   0.35634   0.35797   0.36340
     Eigenvalues ---    0.36419   0.36480   0.37560   0.38922   0.40309
     Eigenvalues ---    0.44772   0.46740   0.48513   0.51692   0.51836
     Eigenvalues ---    0.53093   0.54816   0.55632   0.61985   0.64394
     Eigenvalues ---    0.81076   1.27982   1.30405   1.88788  25.00205
 RFO step:  Lambda=-1.41580187D-05 EMin= 2.54521404D-02
 Quartic linear search produced a step of  0.77843.
 Variable       Old X    -DE/DX   Delta X   Delta X   Delta X     New X
                                 (Linear)    (Quad)   (Total)
    R2        2.75297  -0.00001   0.00221  -0.00202   0.00019   2.75316
    R3        2.49439  -0.00024   0.00010  -0.00090  -0.00080   2.49358
    R4        2.05135   0.00010  -0.00001   0.00062   0.00061   2.05196
    R5        2.19199   0.00053   0.00094  -0.00004   0.00090   2.19289
    R6        2.54600  -0.00001   0.00019  -0.00021  -0.00002   2.54599
    R7        2.04690  -0.00008   0.00017  -0.00060  -0.00044   2.04647
    R8        2.72738  -0.00019  -0.00118   0.00004  -0.00114   2.72624
    R9        2.05224   0.00003  -0.00017   0.00031   0.00014   2.05238
   R10        2.62653   0.00028   0.00087  -0.00006   0.00081   2.62734
   R11        2.61006   0.00006  -0.00002  -0.00020  -0.00021   2.60985
   R12        2.03380  -0.00001   0.00031  -0.00032  -0.00002   2.03378
   R13        2.67107  -0.00014  -0.00073   0.00018  -0.00055   2.67052
   R14        2.57622  -0.00028  -0.00190   0.00084  -0.00106   2.57516
   R15        1.90088   0.00000   0.00078  -0.00069   0.00009   1.90097
   R16        2.03544  -0.00000  -0.00008   0.00007  -0.00001   2.03542
   R17        2.03439   0.00002   0.00006   0.00007   0.00013   2.03452
    A3        2.27759   0.00089   0.00369   0.00189   0.00558   2.28317
    A4        2.05261   0.00010  -0.00215  -0.00063  -0.00278   2.04983
    A5        3.05690  -0.00080  -0.00405  -0.00303  -0.00708   3.04982
    A6        2.28241  -0.00096  -0.00149  -0.00180  -0.00329   2.27912
    A7        1.96725  -0.00014   0.00083  -0.00006   0.00077   1.96802
    A8        2.26692  -0.00056   0.00014  -0.00124  -0.00110   2.26582
    A9        2.01422  -0.00005  -0.00023   0.00030   0.00007   2.01430
   A10        2.33289  -0.00058  -0.00109  -0.00010  -0.00119   2.33170
   A11        2.09593   0.00006   0.00087   0.00146   0.00233   2.09827
   A12        2.19754  -0.00011   0.00016  -0.00114  -0.00097   2.19657
   A13        1.88650   0.00046  -0.00048   0.00129   0.00081   1.88731
   A14        1.93059   0.00049  -0.00026   0.00113   0.00087   1.93146
   A15        2.17238   0.00027   0.00176  -0.00071   0.00105   2.17342
   A16        2.21497   0.00019   0.00104   0.00075   0.00178   2.21675
   A17        2.11780   0.00013  -0.00056   0.00094   0.00038   2.11818
    D4       -2.99975   0.00028   0.00368   0.00463   0.00831  -2.99144
    D5        3.00859  -0.00004   0.00142   0.00213   0.00355   3.01214
    D6       -0.30176   0.00029   0.00253   0.00561   0.00814  -0.29363
    D7        3.11056  -0.00015  -0.00524  -0.00485  -0.01009   3.10047
    D8       -0.09414  -0.00005  -0.00157  -0.00256  -0.00412  -0.09827
    D9       -3.14045  -0.00021  -0.00315  -0.00105  -0.00420  -3.14465
   D10       -0.44818  -0.00007   0.00042   0.00067   0.00109  -0.44709
   D11       -3.06517  -0.00011  -0.00063   0.00084   0.00021  -3.06496
   D12        0.00462  -0.00022   0.00056  -0.00144  -0.00088   0.00374
   D13       -3.08591  -0.00019  -0.00048  -0.00118  -0.00166  -3.08757
   D14        3.10029  -0.00004   0.00033   0.00140   0.00174   3.10203
   D15        3.06196  -0.00012  -0.00139  -0.00200  -0.00340   3.05856
   D16        3.13679   0.00009   0.00071   0.00258   0.00329   3.14008
   D17        3.11717  -0.00013  -0.00128  -0.00131  -0.00259   3.11459
         Item               Value     Threshold  Converged?
 Maximum Force            0.000963     0.000450     NO 
 RMS     Force            0.000319     0.000300     NO 
 Maximum Displacement     0.010092     0.001800     NO 
 RMS     Displacement     0.003134     0.001200     NO 
 Predicted change in Energy=-1.264579D-05
 GradGradGradGradGradGradGradGradGradGradGradGradGradGradGradGradGradGrad

 ---------------------------------------------------------------------------------------------------
                            Z-MATRIX (ANGSTROMS AND DEGREES)
   CD    Cent   Atom    N1       Length/X        N2       Alpha/Y        N3        Beta/Z          J
 ---------------------------------------------------------------------------------------------------
      1      1  C 
      2      2  C        1   1.456909(     1)
      3      3  C        1   1.319548(     2)      2  130.816(    17)
      4      4  H        1   1.085848(     3)      2  117.447(    18)      3 -171.397(    32)      0
      5      5  O        3   1.160425(     4)      1  174.742(    19)      2  172.583(    33)      0
      6      6  C        2   1.347278(     5)      1  130.584(    20)      3  -16.824(    34)      0
      7      7  H        2   1.082943(     6)      1  112.759(    21)      6  177.644(    35)      0
      8      8  C        6   1.442665(     7)      2  129.822(    22)      1   -5.630(    36)      0
      9      9  H        6   1.086074(     8)      2  115.411(    23)      8 -180.175(    37)      0
     10     10  C        8   1.390326(     9)      6  133.596(    24)      2  -25.617(    38)      0
     11     11  N        8   1.381071(    10)      6  120.222(    25)     10 -175.609(    39)      0
     12     12  H       10   1.076231(    11)      8  125.854(    26)      6    0.215(    40)      0
     13     13  C       10   1.413179(    12)      8  108.135(    27)     12 -176.905(    41)      0
     14     14  C       11   1.362717(    13)      8  110.665(    28)      6  177.733(    42)      0
     15     15  H       11   1.005952(    14)      8  124.528(    29)     14  175.243(    43)      0
     16     16  H       13   1.077100(    15)     10  127.011(    30)      8  179.913(    44)      0
     17     17  H       14   1.076622(    16)     11  121.363(    31)      8  178.453(    45)      0
 ---------------------------------------------------------------------------------------------------
                         Z-Matrix orientation:                         
 ---------------------------------------------------------------------
 Center     Atomic      Atomic             Coordinates (Angstroms)
 Number     Number       Type             X           Y           Z
 ---------------------------------------------------------------------
      1          6           0        0.000000    0.000000    0.000000
      2          6           0        0.000000    0.000000    1.456909
      3          6           0        0.998650    0.000000   -0.862500
      4          1           0       -0.952783    0.144152   -0.500491
      5          8           0        1.804247   -0.013729   -1.697611
      6          6           0        0.979402   -0.296138    2.333398
      7          1           0       -0.943192    0.328082    1.875856
      8          6           0        2.306216   -0.810888    2.097010
      9          1           0        0.739150   -0.119831    3.377788
     10          6           0        2.872873   -1.569892    1.079257
     11          7           0        3.296227   -0.642751    3.045149
     12          1           0        2.361342   -1.934951    0.205563
     13          6           0        4.216088   -1.838575    1.426617
     14          6           0        4.451854   -1.244352    2.645652
     15          1           0        3.199345   -0.087524    3.878381
     16          1           0        4.933105   -2.403460    0.854833
     17          1           0        5.344258   -1.198112    3.246145
 ---------------------------------------------------------------------
                    Distance matrix (angstroms):
                    1          2          3          4          5
     1  C    0.000000
     2  C    1.456909   0.000000
     3  C    1.319548   2.525264   0.000000
     4  H    1.085848   2.181740   1.989955   0.000000
     5  O    2.477373   3.634074   1.160425   3.009857   0.000000
     6  C    2.547876   1.347278   3.209646   3.458051   4.124215
     7  H    2.125109   1.082943   3.372978   2.383474   4.520501
     8  C    3.220811   2.527034   3.335561   4.275534   3.909806
     9  H    3.459791   2.061669   4.249911   4.239501   5.187038
    10  C    3.447138   3.295540   3.122130   4.479866   3.357767
    11  N    4.533340   3.714935   4.578395   5.589710   5.011531
    12  H    3.059775   3.299369   2.596483   3.975501   2.761072
    13  C    4.815703   4.599638   4.355723   5.861926   4.348314
    14  C    5.326058   4.772895   5.077417   6.405955   5.233372
    15  H    5.028449   4.013351   5.227491   6.038903   5.748341
    16  H    5.553637   5.520384   4.919938   6.555220   4.692072
    17  H    6.366634   5.761764   6.099242   7.449274   6.194769
                    6          7          8          9         10
     6  C    0.000000
     7  H    2.072526   0.000000
     8  C    1.442665   3.450336   0.000000
     9  H    1.086074   2.299283   2.138609   0.000000
    10  C    2.603949   4.335808   1.390326   3.455242   0.000000
    11  N    2.448347   4.503602   1.381071   2.631109   2.214396
    12  H    3.020455   4.339487   2.200938   3.998647   1.076231
    13  C    3.698310   5.613768   2.270061   4.341687   1.413179
    14  C    3.613106   5.672007   2.256692   3.947751   2.247832
    15  H    2.712681   4.619897   2.119957   2.510815   3.184194
    16  H    4.717915   6.560082   3.313583   5.400881   2.233776
    17  H    4.549575   6.613546   3.271108   4.731494   3.307774
                   11         12         13         14         15
    11  N    0.000000
    12  H    3.256845   0.000000
    13  C    2.212642   2.222688   0.000000
    14  C    1.362717   3.286518   1.376493   0.000000
    15  H    1.005952   4.195810   3.179794   2.103961   0.000000
    16  H    3.252222   2.693514   1.077100   2.186816   4.184653
    17  H    2.131492   4.322714   2.234646   1.076622   2.496754
                   16         17
    16  H    0.000000
    17  H    2.709296   0.000000
 Symmetry turned off by external request.
 Stoichiometry    C8H7NO
 Framework group  C1[X(C8H7NO)]
 Deg. of freedom    45
 Full point group                 C1      NOp   1
 Rotational constants (GHZ):           2.3762958           0.9836156           0.7298551
 Standard basis: def2TZVP (5D, 7F)
 The following finite field(s) will be applied:
 An electric field of             -0.0034 -0.0019 -0.0031
   352 basis functions,   566 primitive gaussians,   402 cartesian basis functions
    35 alpha electrons       35 beta electrons
       nuclear repulsion energy       460.1972023668 Hartrees.
 NAtoms=   17 NActive=   17 NUniq=   17 SFac= 1.00D+00 NAtFMM=   60 NAOKFM=F Big=F
 Integral buffers will be    131072 words long.
 Raffenetti 2 integral format.
 Two-electron integral symmetry is turned off.
 One-electron integrals computed using PRISM.
   1 Symmetry operations used in ECPInt.
 ECPInt:  NShTT=    9591 NPrTT=   29644 LenC2=    9224 LenP2D=   22144.
 LDataN:  DoStor=T MaxTD1= 6 Len=  172
 NBasis=   352 RedAO= T EigKep=  3.29D-05  NBF=   352
 NBsUse=   352 1.00D-06 EigRej= -1.00D+00 NBFU=   352
 The nuclear repulsion energy is now       458.9209757820 hartrees.
 Initial guess from the checkpoint file:  "checkpoint.chk"
 B after Tr=    -0.011228   -0.001981   -0.003335
         Rot=    0.999994    0.001120   -0.002543   -0.002204 Ang=   0.41 deg.
 Requested convergence on RMS density matrix=1.00D-08 within 128 cycles.
 Requested convergence on MAX density matrix=1.00D-06.
 Requested convergence on             energy=1.00D-06.
 No special actions if energy rises.
 SCF Done:  E(RB3LYP) =  -439.157493419     A.U. after   10 cycles
            NFock= 10  Conv=0.45D-08     -V/T= 2.0050
   1 Symmetry operations used in ECPInt.
 ECPInt:  NShTT=    9591 NPrTT=   29644 LenC2=    9224 LenP2D=   22144.
 LDataN:  DoStor=T MaxTD1= 7 Len=  274
 Calling FoFJK, ICntrl=      2127 FMM=F ISym2X=0 I1Cent= 0 IOpClX= 0 NMat=1 NMatS=1 NMatT=0.
 -------------------------------------------------------------------
 Center     Atomic                   Forces (Hartrees/Bohr)
 Number     Number              X              Y              Z
 -------------------------------------------------------------------
      1        6          -0.001327918    0.000315844    0.000450916
      2        6           0.001343214    0.000249594   -0.000310372
      3        6           0.000135789   -0.000152298   -0.000225126
      4        1           0.000015510    0.000043962   -0.000130307
      5        8          -0.000117871   -0.000268110    0.000020564
      6        6          -0.000009003    0.000058653    0.000234621
      7        1          -0.000028673   -0.000129191    0.000004121
      8        6           0.000080770   -0.000307098    0.000028848
      9        1           0.000012692   -0.000072287    0.000004736
     10        6           0.000036971    0.000166973   -0.000238793
     11        7          -0.000094709    0.000173067    0.000219348
     12        1          -0.000003561   -0.000049820    0.000020121
     13        6          -0.000063038   -0.000059257    0.000081791
     14        6           0.000097641    0.000022794   -0.000090014
     15        1          -0.000021961    0.000031357   -0.000020979
     16        1          -0.000049514   -0.000036289   -0.000014373
     17        1          -0.000006336    0.000012106   -0.000035103
 -------------------------------------------------------------------
 Cartesian Forces:  Max     0.001343214 RMS     0.000301173
 -----------------------------------------------------------------------------------------------
                       Internal Coordinate Forces (Hartree/Bohr or radian)
  Cent   Atom   N1       Length/X         N2         Alpha/Y        N3         Beta/Z          J
 -----------------------------------------------------------------------------------------------
      1  C 
      2  C        1  -0.000116(     1)
      3  C        1   0.000147(     2)      2   0.000512(    17)
      4  H        1   0.000052(     3)      2   0.000246(    18)      3   0.000083(    32)     0
      5  O        3  -0.000093(     4)      1  -0.000229(    19)      2  -0.000052(    33)     0
      6  C        2   0.000122(     5)      1   0.000019(    20)      3   0.000244(    34)     0
      7  H        2  -0.000013(     6)      1   0.000020(    21)      6   0.000248(    35)     0
      8  C        6   0.000003(     7)      2  -0.000262(    22)      1   0.000006(    36)     0
      9  H        6  -0.000010(     8)      2   0.000074(    23)      8   0.000117(    37)     0
     10  C        8   0.000067(     9)      6  -0.000400(    24)      2  -0.000255(    38)     0
     11  N        8   0.000061(    10)      6  -0.000341(    25)     10  -0.000422(    39)     0
     12  H       10   0.000002(    11)      8   0.000024(    26)      6   0.000303(    40)     0
     13  C       10  -0.000072(    12)      8   0.000044(    27)     12   0.000390(    41)     0
     14  C       11   0.000099(    13)      8  -0.000170(    28)      6   0.000234(    42)     0
     15  H       11   0.000002(    14)      8  -0.000063(    29)     14  -0.000044(    43)     0
     16  H       13  -0.000006(    15)     10  -0.000102(    30)      8  -0.000062(    44)     0
     17  H       14  -0.000024(    16)     11   0.000029(    31)      8  -0.000043(    45)     0
 -----------------------------------------------------------------------------------------------
 Internal  Forces:  Max     0.000511551 RMS     0.000185702

 GradGradGradGradGradGradGradGradGradGradGradGradGradGradGradGradGradGrad
 Berny optimization.
 Search for a local minimum.
 Step number   3 out of a maximum of   55
 All quantities printed in internal units (Hartrees-Bohrs-Radians)
 Update second derivatives using D2CorN and points    1    2    3
 DE= -1.42D-05 DEPred=-1.26D-05 R= 1.12D+00
 TightC=F SS=  1.41D+00  RLast= 2.10D-02 DXNew= 1.6818D-01 6.3074D-02
 Trust test= 1.12D+00 RLast= 2.10D-02 DXMaxT set to 1.00D-01
 ITU=  1  1  0
     Eigenvalues ---    0.02827   0.03492   0.04070   0.04599   0.06221
     Eigenvalues ---    0.08230   0.10163   0.10470   0.15878   0.16531
     Eigenvalues ---    0.18125   0.20171   0.20720   0.23264   0.23730
     Eigenvalues ---    0.24999   0.25805   0.26590   0.29389   0.32885
     Eigenvalues ---    0.35268   0.35332   0.35634   0.35815   0.36340
     Eigenvalues ---    0.36419   0.36480   0.37632   0.38905   0.40290
     Eigenvalues ---    0.44760   0.46741   0.48494   0.51354   0.51801
     Eigenvalues ---    0.53170   0.54827   0.55634   0.61992   0.64430
     Eigenvalues ---    0.80875   1.27952   1.30434   1.88786  25.00193
 RFO step:  Lambda=-4.01021920D-06 EMin= 2.82729166D-02
 Quartic linear search produced a step of  0.07207.
 Variable       Old X    -DE/DX   Delta X   Delta X   Delta X     New X
                                 (Linear)    (Quad)   (Total)
    R2        2.75316  -0.00012   0.00001  -0.00028  -0.00027   2.75289
    R3        2.49358   0.00015  -0.00006   0.00027   0.00021   2.49379
    R4        2.05196   0.00005   0.00004   0.00016   0.00021   2.05216
    R5        2.19289  -0.00009   0.00006  -0.00008  -0.00001   2.19287
    R6        2.54599   0.00012  -0.00000   0.00025   0.00025   2.54623
    R7        2.04647  -0.00001  -0.00003  -0.00004  -0.00007   2.04640
    R8        2.72624   0.00000  -0.00008  -0.00003  -0.00011   2.72613
    R9        2.05238  -0.00001   0.00001  -0.00004  -0.00003   2.05236
   R10        2.62734   0.00007   0.00006   0.00005   0.00011   2.62744
   R11        2.60985   0.00006  -0.00002   0.00008   0.00006   2.60991
   R12        2.03378   0.00000  -0.00000   0.00001   0.00001   2.03379
   R13        2.67052  -0.00007  -0.00004  -0.00021  -0.00025   2.67027
   R14        2.57516   0.00010  -0.00008   0.00025   0.00018   2.57534
   R15        1.90097   0.00000   0.00001   0.00002   0.00003   1.90100
   R16        2.03542  -0.00001  -0.00000  -0.00002  -0.00002   2.03540
   R17        2.03452  -0.00002   0.00001  -0.00007  -0.00006   2.03446
    A3        2.28317   0.00051   0.00040   0.00142   0.00183   2.28500
    A4        2.04983   0.00025  -0.00020  -0.00001  -0.00021   2.04962
    A5        3.04982  -0.00023  -0.00051  -0.00119  -0.00170   3.04812
    A6        2.27912   0.00002  -0.00024   0.00019  -0.00004   2.27908
    A7        1.96802   0.00002   0.00006   0.00003   0.00008   1.96810
    A8        2.26582  -0.00026  -0.00008  -0.00082  -0.00090   2.26492
    A9        2.01430   0.00007   0.00001   0.00065   0.00066   2.01495
   A10        2.33170  -0.00040  -0.00009  -0.00037  -0.00046   2.33124
   A11        2.09827  -0.00034   0.00017  -0.00018  -0.00001   2.09825
   A12        2.19657   0.00002  -0.00007   0.00023   0.00016   2.19673
   A13        1.88731   0.00004   0.00006  -0.00039  -0.00033   1.88698
   A14        1.93146  -0.00017   0.00006  -0.00062  -0.00056   1.93090
   A15        2.17342  -0.00006   0.00008   0.00016   0.00024   2.17366
   A16        2.21675  -0.00010   0.00013  -0.00040  -0.00027   2.21648
   A17        2.11818   0.00003   0.00003  -0.00001   0.00001   2.11819
    D4       -2.99144   0.00008   0.00060   0.00096   0.00156  -2.98987
    D5        3.01214  -0.00005   0.00026   0.00002   0.00028   3.01242
    D6       -0.29363   0.00024   0.00059   0.00184   0.00242  -0.29120
    D7        3.10047   0.00025  -0.00073   0.00092   0.00019   3.10066
    D8       -0.09827   0.00001  -0.00030   0.00012  -0.00018  -0.09845
    D9       -3.14465   0.00012  -0.00030   0.00047   0.00017  -3.14448
   D10       -0.44709  -0.00026   0.00008  -0.00028  -0.00020  -0.44729
   D11       -3.06496  -0.00042   0.00002  -0.00157  -0.00156  -3.06652
   D12        0.00374   0.00030  -0.00006  -0.00120  -0.00127   0.00248
   D13       -3.08757   0.00039  -0.00012   0.00208   0.00196  -3.08561
   D14        3.10203   0.00023   0.00013   0.00006   0.00018   3.10221
   D15        3.05856  -0.00004  -0.00024  -0.00039  -0.00064   3.05792
   D16        3.14008  -0.00006   0.00024  -0.00188  -0.00165   3.13844
   D17        3.11459  -0.00004  -0.00019   0.00004  -0.00014   3.11444
         Item               Value     Threshold  Converged?
 Maximum Force            0.000512     0.000450     NO 
 RMS     Force            0.000186     0.000300     YES
 Maximum Displacement     0.002424     0.001800     NO 
 RMS     Displacement     0.000792     0.001200     YES
 Predicted change in Energy=-1.966708D-06
 GradGradGradGradGradGradGradGradGradGradGradGradGradGradGradGradGradGrad

 ---------------------------------------------------------------------------------------------------
                            Z-MATRIX (ANGSTROMS AND DEGREES)
   CD    Cent   Atom    N1       Length/X        N2       Alpha/Y        N3        Beta/Z          J
 ---------------------------------------------------------------------------------------------------
      1      1  C 
      2      2  C        1   1.456767(     1)
      3      3  C        1   1.319658(     2)      2  130.921(    17)
      4      4  H        1   1.085958(     3)      2  117.435(    18)      3 -171.307(    32)      0
      5      5  O        3   1.160417(     4)      1  174.644(    19)      2  172.599(    33)      0
      6      6  C        2   1.347408(     5)      1  130.582(    20)      3  -16.685(    34)      0
      7      7  H        2   1.082908(     6)      1  112.764(    21)      6  177.655(    35)      0
      8      8  C        6   1.442608(     7)      2  129.770(    22)      1   -5.641(    36)      0
      9      9  H        6   1.086060(     8)      2  115.448(    23)      8 -180.165(    37)      0
     10     10  C        8   1.390383(     9)      6  133.570(    24)      2  -25.628(    38)      0
     11     11  N        8   1.381103(    10)      6  120.221(    25)     10 -175.698(    39)      0
     12     12  H       10   1.076237(    11)      8  125.863(    26)      6    0.142(    40)      0
     13     13  C       10   1.413045(    12)      8  108.116(    27)     12 -176.793(    41)      0
     14     14  C       11   1.362809(    13)      8  110.633(    28)      6  177.744(    42)      0
     15     15  H       11   1.005965(    14)      8  124.542(    29)     14  175.206(    43)      0
     16     16  H       13   1.077089(    15)     10  126.995(    30)      8  179.819(    44)      0
     17     17  H       14   1.076590(    16)     11  121.363(    31)      8  178.445(    45)      0
 ---------------------------------------------------------------------------------------------------
                         Z-Matrix orientation:                         
 ---------------------------------------------------------------------
 Center     Atomic      Atomic             Coordinates (Angstroms)
 Number     Number       Type             X           Y           Z
 ---------------------------------------------------------------------
      1          6           0        0.000000    0.000000    0.000000
      2          6           0        0.000000    0.000000    1.456767
      3          6           0        0.997155    0.000000   -0.864395
      4          1           0       -0.952756    0.145669   -0.500341
      5          8           0        1.799806   -0.013952   -1.702324
      6          6           0        0.980248   -0.293802    2.333295
      7          1           0       -0.943985    0.325590    1.875781
      8          6           0        2.307941   -0.805513    2.095599
      9          1           0        0.740266   -0.118313    3.377872
     10          6           0        2.874773   -1.563267    1.076935
     11          7           0        3.298996   -0.633511    3.041999
     12          1           0        2.362672   -1.930269    0.204383
     13          6           0        4.218562   -1.829758    1.423216
     14          6           0        4.455337   -1.232823    2.640814
     15          1           0        3.202333   -0.077089    3.874474
     16          1           0        4.935506   -2.394479    0.851202
     17          1           0        5.348857   -1.183649    3.239353
 ---------------------------------------------------------------------
                    Distance matrix (angstroms):
                    1          2          3          4          5
     1  C    0.000000
     2  C    1.456767   0.000000
     3  C    1.319658   2.526284   0.000000
     4  H    1.085958   2.181567   1.988947   0.000000
     5  O    2.477378   3.635843   1.160417   3.007796   0.000000
     6  C    2.547837   1.347408   3.211204   3.458198   4.127495
     7  H    2.125011   1.082908   3.373811   2.382941   4.521782
     8  C    3.219779   2.526569   3.335952   4.275020   3.912670
     9  H    3.460059   2.062192   4.251684   4.239875   5.190559
    10  C    3.444984   3.294298   3.120579   4.478643   3.358603
    11  N    4.531938   3.714522   4.578178   5.588621   5.013983
    12  H    3.057766   3.297973   2.594776   3.974697   2.761272
    13  C    4.813504   4.598413   4.354151   5.860453   4.349314
    14  C    5.323888   4.771986   5.075959   6.404262   5.234533
    15  H    5.027170   4.013252   5.227393   6.037665   5.750804
    16  H    5.551333   5.519009   4.918070   6.553675   4.692549
    17  H    6.364331   5.760982   6.097465   7.447330   6.195493
                    6          7          8          9         10
     6  C    0.000000
     7  H    2.072592   0.000000
     8  C    1.442608   3.450035   0.000000
     9  H    1.086060   2.300006   2.138708   0.000000
    10  C    2.603691   4.334611   1.390383   3.455188   0.000000
    11  N    2.448317   4.503646   1.381103   2.631604   2.214923
    12  H    3.020164   4.337793   2.201083   3.998302   1.076237
    13  C    3.697848   5.612684   2.269724   4.341459   1.413045
    14  C    3.612835   5.671561   2.256361   3.948056   2.247908
    15  H    2.712907   4.620485   2.120127   2.511989   3.184689
    16  H    4.717363   6.558731   3.313221   5.400466   2.233493
    17  H    4.549452   6.613395   3.270830   4.732150   3.307756
                   11         12         13         14         15
    11  N    0.000000
    12  H    3.257353   0.000000
    13  C    2.212931   2.222607   0.000000
    14  C    1.362809   3.286621   1.376568   0.000000
    15  H    1.005965   4.196294   3.180132   2.104200   0.000000
    16  H    3.252501   2.693203   1.077089   2.186942   4.185016
    17  H    2.131556   4.322706   2.234587   1.076590   2.497082
                   16         17
    16  H    0.000000
    17  H    2.709287   0.000000
 Symmetry turned off by external request.
 Stoichiometry    C8H7NO
 Framework group  C1[X(C8H7NO)]
 Deg. of freedom    45
 Full point group                 C1      NOp   1
 Rotational constants (GHZ):           2.3748734           0.9838741           0.7298414
 Standard basis: def2TZVP (5D, 7F)
 The following finite field(s) will be applied:
 An electric field of             -0.0034 -0.0019 -0.0031
   352 basis functions,   566 primitive gaussians,   402 cartesian basis functions
    35 alpha electrons       35 beta electrons
       nuclear repulsion energy       460.1935255812 Hartrees.
 NAtoms=   17 NActive=   17 NUniq=   17 SFac= 1.00D+00 NAtFMM=   60 NAOKFM=F Big=F
 Integral buffers will be    131072 words long.
 Raffenetti 2 integral format.
 Two-electron integral symmetry is turned off.
 One-electron integrals computed using PRISM.
   1 Symmetry operations used in ECPInt.
 ECPInt:  NShTT=    9591 NPrTT=   29644 LenC2=    9224 LenP2D=   22143.
 LDataN:  DoStor=T MaxTD1= 6 Len=  172
 NBasis=   352 RedAO= T EigKep=  3.29D-05  NBF=   352
 NBsUse=   352 1.00D-06 EigRej= -1.00D+00 NBFU=   352
 The nuclear repulsion energy is now       458.9168126638 hartrees.
 Initial guess from the checkpoint file:  "checkpoint.chk"
 B after Tr=    -0.003504   -0.001844   -0.001141
         Rot=    0.999999    0.000565   -0.000569   -0.000971 Ang=   0.14 deg.
 Requested convergence on RMS density matrix=1.00D-08 within 128 cycles.
 Requested convergence on MAX density matrix=1.00D-06.
 Requested convergence on             energy=1.00D-06.
 No special actions if energy rises.
 SCF Done:  E(RB3LYP) =  -439.157496147     A.U. after    9 cycles
            NFock=  9  Conv=0.85D-08     -V/T= 2.0050
   1 Symmetry operations used in ECPInt.
 ECPInt:  NShTT=    9591 NPrTT=   29644 LenC2=    9224 LenP2D=   22143.
 LDataN:  DoStor=T MaxTD1= 7 Len=  274
 Calling FoFJK, ICntrl=      2127 FMM=F ISym2X=0 I1Cent= 0 IOpClX= 0 NMat=1 NMatS=1 NMatT=0.
 -------------------------------------------------------------------
 Center     Atomic                   Forces (Hartrees/Bohr)
 Number     Number              X              Y              Z
 -------------------------------------------------------------------
      1        6          -0.001339697    0.000382339    0.000312192
      2        6           0.001438376    0.000216276   -0.000187174
      3        6           0.000017895   -0.000172204   -0.000101993
      4        1           0.000007700    0.000020481   -0.000072159
      5        8          -0.000031277   -0.000271428    0.000001657
      6        6          -0.000073073    0.000056927    0.000071358
      7        1          -0.000044680   -0.000109652   -0.000001543
      8        6           0.000018016   -0.000062221   -0.000023455
      9        1          -0.000019543   -0.000064301   -0.000010393
     10        6          -0.000068096    0.000032024    0.000031356
     11        7          -0.000037457    0.000008676   -0.000017912
     12        1          -0.000017206   -0.000071995    0.000050836
     13        6           0.000093789    0.000127616    0.000041411
     14        6           0.000082688   -0.000092584   -0.000037483
     15        1          -0.000025733    0.000009661   -0.000034164
     16        1          -0.000006841    0.000000234   -0.000017344
     17        1           0.000005142   -0.000009850   -0.000005191
 -------------------------------------------------------------------
 Cartesian Forces:  Max     0.001438376 RMS     0.000294042
 -----------------------------------------------------------------------------------------------
                       Internal Coordinate Forces (Hartree/Bohr or radian)
  Cent   Atom   N1       Length/X         N2         Alpha/Y        N3         Beta/Z          J
 -----------------------------------------------------------------------------------------------
      1  C 
      2  C        1  -0.000140(     1)
      3  C        1   0.000056(     2)      2   0.000258(    17)
      4  H        1   0.000029(     3)      2   0.000136(    18)      3   0.000039(    32)     0
      5  O        3  -0.000020(     4)      1  -0.000123(    19)      2  -0.000055(    33)     0
      6  C        2   0.000011(     5)      1  -0.000007(    20)      3   0.000240(    34)     0
      7  H        2   0.000005(     6)      1  -0.000008(    21)      6   0.000223(    35)     0
      8  C        6   0.000063(     7)      2  -0.000128(    22)      1   0.000031(    36)     0
      9  H        6  -0.000016(     8)      2  -0.000000(    23)      8   0.000122(    37)     0
     10  C        8  -0.000125(     9)      6   0.000315(    24)      2  -0.000262(    38)     0
     11  N        8  -0.000058(    10)      6   0.000320(    25)     10   0.000016(    39)     0
     12  H       10  -0.000008(    11)      8  -0.000000(    26)      6  -0.000458(    40)     0
     13  C       10   0.000064(    12)      8  -0.000168(    27)     12  -0.000311(    41)     0
     14  C       11   0.000132(    13)      8  -0.000093(    28)      6  -0.000130(    42)     0
     15  H       11  -0.000020(    14)      8  -0.000067(    29)     14  -0.000025(    43)     0
     16  H       13   0.000005(    15)     10  -0.000034(    30)      8   0.000010(    44)     0
     17  H       14   0.000001(    16)     11   0.000023(    31)      8   0.000008(    45)     0
 -----------------------------------------------------------------------------------------------
 Internal  Forces:  Max     0.000458108 RMS     0.000145425

 GradGradGradGradGradGradGradGradGradGradGradGradGradGradGradGradGradGrad
 Berny optimization.
 Search for a local minimum.
 Step number   4 out of a maximum of   55
 All quantities printed in internal units (Hartrees-Bohrs-Radians)
 Update second derivatives using D2CorN and points    1    2    3    4
 DE= -2.73D-06 DEPred=-1.97D-06 R= 1.39D+00
 TightC=F SS=  1.41D+00  RLast= 5.31D-03 DXNew= 1.6818D-01 1.5935D-02
 Trust test= 1.39D+00 RLast= 5.31D-03 DXMaxT set to 1.00D-01
 ITU=  1  1  1  0
     Eigenvalues ---    0.01591   0.03152   0.04103   0.04412   0.05697
     Eigenvalues ---    0.08306   0.10199   0.10871   0.14621   0.16472
     Eigenvalues ---    0.17716   0.19665   0.20575   0.23076   0.23743
     Eigenvalues ---    0.24988   0.25998   0.26500   0.29378   0.32886
     Eigenvalues ---    0.35266   0.35325   0.35635   0.35748   0.36340
     Eigenvalues ---    0.36419   0.36481   0.37616   0.38927   0.40180
     Eigenvalues ---    0.44795   0.46744   0.48490   0.50830   0.51797
     Eigenvalues ---    0.52821   0.54789   0.55633   0.61963   0.64528
     Eigenvalues ---    0.80816   1.27939   1.31353   1.88799  25.00234
 RFO step:  Lambda=-7.57623170D-06 EMin= 1.59130237D-02
 Quartic linear search produced a step of  0.54136.
 Variable       Old X    -DE/DX   Delta X   Delta X   Delta X     New X
                                 (Linear)    (Quad)   (Total)
    R2        2.75289  -0.00014  -0.00015  -0.00091  -0.00106   2.75183
    R3        2.49379   0.00006   0.00011   0.00008   0.00019   2.49398
    R4        2.05216   0.00003   0.00011   0.00042   0.00054   2.05270
    R5        2.19287  -0.00002  -0.00001   0.00018   0.00018   2.19305
    R6        2.54623   0.00001   0.00013   0.00008   0.00021   2.54644
    R7        2.04640   0.00001  -0.00004  -0.00007  -0.00010   2.04630
    R8        2.72613   0.00006  -0.00006   0.00009   0.00003   2.72616
    R9        2.05236  -0.00002  -0.00001  -0.00011  -0.00013   2.05223
   R10        2.62744  -0.00013   0.00006  -0.00013  -0.00007   2.62737
   R11        2.60991  -0.00006   0.00003  -0.00011  -0.00008   2.60983
   R12        2.03379  -0.00001   0.00001  -0.00007  -0.00006   2.03373
   R13        2.67027   0.00006  -0.00014   0.00012  -0.00001   2.67025
   R14        2.57534   0.00013   0.00009   0.00025   0.00035   2.57568
   R15        1.90100  -0.00002   0.00001  -0.00007  -0.00005   1.90095
   R16        2.03540   0.00000  -0.00001   0.00002   0.00001   2.03541
   R17        2.03446   0.00000  -0.00003   0.00004   0.00001   2.03447
    A3        2.28500   0.00026   0.00099   0.00374   0.00473   2.28973
    A4        2.04962   0.00014  -0.00011  -0.00120  -0.00132   2.04830
    A5        3.04812  -0.00012  -0.00092  -0.00412  -0.00504   3.04308
    A6        2.27908  -0.00001  -0.00002  -0.00054  -0.00056   2.27851
    A7        1.96810  -0.00001   0.00004   0.00012   0.00017   1.96827
    A8        2.26492  -0.00013  -0.00049  -0.00133  -0.00181   2.26311
    A9        2.01495  -0.00000   0.00035   0.00072   0.00107   2.01602
   A10        2.33124   0.00031  -0.00025  -0.00063  -0.00088   2.33036
   A11        2.09825   0.00032  -0.00001   0.00129   0.00128   2.09954
   A12        2.19673  -0.00000   0.00009  -0.00031  -0.00023   2.19650
   A13        1.88698  -0.00017  -0.00018   0.00037   0.00019   1.88717
   A14        1.93090  -0.00009  -0.00030   0.00056   0.00026   1.93116
   A15        2.17366  -0.00007   0.00013  -0.00019  -0.00006   2.17360
   A16        2.21648  -0.00003  -0.00015   0.00004  -0.00010   2.21637
   A17        2.11819   0.00002   0.00001   0.00051   0.00052   2.11871
    D4       -2.98987   0.00004   0.00084   0.00490   0.00575  -2.98413
    D5        3.01242  -0.00005   0.00015   0.00149   0.00164   3.01405
    D6       -0.29120   0.00024   0.00131   0.00787   0.00918  -0.28202
    D7        3.10066   0.00022   0.00011  -0.00169  -0.00158   3.09908
    D8       -0.09845   0.00003  -0.00010  -0.00280  -0.00290  -0.10134
    D9       -3.14448   0.00012   0.00009   0.00104   0.00114  -3.14334
   D10       -0.44729  -0.00026  -0.00011  -0.00224  -0.00235  -0.44964
   D11       -3.06652   0.00002  -0.00084  -0.00141  -0.00225  -3.06876
   D12        0.00248  -0.00046  -0.00069  -0.00904  -0.00972  -0.00725
   D13       -3.08561  -0.00031   0.00106   0.00351   0.00457  -3.08104
   D14        3.10221  -0.00013   0.00010   0.00299   0.00309   3.10530
   D15        3.05792  -0.00003  -0.00034  -0.00231  -0.00265   3.05527
   D16        3.13844   0.00001  -0.00089   0.00097   0.00008   3.13852
   D17        3.11444   0.00001  -0.00008   0.00012   0.00005   3.11449
         Item               Value     Threshold  Converged?
 Maximum Force            0.000458     0.000450     NO 
 RMS     Force            0.000145     0.000300     YES
 Maximum Displacement     0.009725     0.001800     NO 
 RMS     Displacement     0.002723     0.001200     NO 
 Predicted change in Energy=-3.376040D-06
 GradGradGradGradGradGradGradGradGradGradGradGradGradGradGradGradGradGrad

 ---------------------------------------------------------------------------------------------------
                            Z-MATRIX (ANGSTROMS AND DEGREES)
   CD    Cent   Atom    N1       Length/X        N2       Alpha/Y        N3        Beta/Z          J
 ---------------------------------------------------------------------------------------------------
      1      1  C 
      2      2  C        1   1.456207(     1)
      3      3  C        1   1.319758(     2)      2  131.192(    17)
      4      4  H        1   1.086241(     3)      2  117.359(    18)      3 -170.978(    32)      0
      5      5  O        3   1.160510(     4)      1  174.356(    19)      2  172.693(    33)      0
      6      6  C        2   1.347519(     5)      1  130.549(    20)      3  -16.159(    34)      0
      7      7  H        2   1.082854(     6)      1  112.773(    21)      6  177.564(    35)      0
      8      8  C        6   1.442623(     7)      2  129.667(    22)      1   -5.807(    36)      0
      9      9  H        6   1.085993(     8)      2  115.510(    23)      8 -180.100(    37)      0
     10     10  C        8   1.390343(     9)      6  133.520(    24)      2  -25.763(    38)      0
     11     11  N        8   1.381064(    10)      6  120.295(    25)     10 -175.827(    39)      0
     12     12  H       10   1.076205(    11)      8  125.850(    26)      6   -0.415(    40)      0
     13     13  C       10   1.413037(    12)      8  108.127(    27)     12 -176.530(    41)      0
     14     14  C       11   1.362993(    13)      8  110.647(    28)      6  177.921(    42)      0
     15     15  H       11   1.005938(    14)      8  124.538(    29)     14  175.054(    43)      0
     16     16  H       13   1.077095(    15)     10  126.989(    30)      8  179.824(    44)      0
     17     17  H       14   1.076593(    16)     11  121.393(    31)      8  178.447(    45)      0
 ---------------------------------------------------------------------------------------------------
                         Z-Matrix orientation:                         
 ---------------------------------------------------------------------
 Center     Atomic      Atomic             Coordinates (Angstroms)
 Number     Number       Type             X           Y           Z
 ---------------------------------------------------------------------
      1          6           0        0.000000    0.000000    0.000000
      2          6           0        0.000000    0.000000    1.456207
      3          6           0        0.993131    0.000000   -0.869167
      4          1           0       -0.952801    0.151285   -0.499201
      5          8           0        1.787633   -0.014518   -1.714945
      6          6           0        0.983459   -0.284954    2.332230
      7          1           0       -0.946318    0.318370    1.875368
      8          6           0        2.314111   -0.787477    2.091402
      9          1           0        0.744111   -0.110591    3.377070
     10          6           0        2.881804   -1.544529    1.072750
     11          7           0        3.309096   -0.603219    3.031290
     12          1           0        2.366385   -1.925039    0.208011
     13          6           0        4.230901   -1.794658    1.410458
     14          6           0        4.468965   -1.192752    2.625207
     15          1           0        3.212796   -0.043436    3.861519
     16          1           0        4.949627   -2.354653    0.836026
     17          1           0        5.365666   -1.133487    3.218054
 ---------------------------------------------------------------------
                    Distance matrix (angstroms):
                    1          2          3          4          5
     1  C    0.000000
     2  C    1.456207   0.000000
     3  C    1.319758   2.528571   0.000000
     4  H    1.086241   2.180445   1.986558   0.000000
[...]

 ----------------------------------------------------------------------
 1\1\GINC-BHC0106\Freq\RB3LYP\def2TZVP\C8H7N1O1\DHANAWAY\10-Jun-2022\1\
 \#N Geom=AllCheck Guess=TCheck SCRF=Check GenChk RB3LYP/def2TZVP Freq\
 \int_zmat_initalOpt\\0,1\C\C,1,R2\C,1,R3,2,A3\H,1,R4,2,A4,3,D4,0\O,3,R
 5,1,A5,2,D5,0\C,2,R6,1,A6,3,D6,0\H,2,R7,1,A7,6,D7,0\C,6,R8,2,A8,1,D8,0
 \H,6,R9,2,A9,8,D9,0\C,8,R10,6,A10,2,D10,0\N,8,R11,6,A11,10,D11,0\H,10,
 R12,8,A12,6,D12,0\C,10,R13,8,A13,12,D13,0\C,11,R14,8,A14,6,D14,0\H,11,
 R15,8,A15,14,D15,0\H,13,R16,10,A16,8,D16,0\H,14,R17,11,A17,8,D17,0\\R2
 =1.45596063\R3=1.31990319\R4=1.08614784\R5=1.16053078\R6=1.34738174\R7
 =1.08288736\R8=1.44277955\R9=1.08602501\R10=1.39015873\R11=1.38091372\
 R12=1.07633973\R13=1.41324709\R14=1.36312919\R15=1.00594475\R16=1.0770
 7966\R17=1.07659716\A3=131.27840366\A4=117.34856756\A5=174.25796611\A6
 =130.61335269\A7=112.73034842\A8=129.5518191\A9=115.53292742\A10=133.4
 1927146\A11=120.35959772\A12=125.82550713\A13=108.11439485\A14=110.616
 14466\A15=124.54128918\A16=126.99340638\A17=121.36572982\D4=-171.81844
 952\D5=171.53832848\D6=-14.54193919\D7=177.81057768\D8=-5.45428987\D9=
 -180.26721416\D10=-27.02367866\D11=-175.82658646\D12=-0.4920347\D13=-1
 76.36000191\D14=177.94569251\D15=174.95743851\D16=179.63801678\D17=178
 .48734728\\Version=ES64L-G16RevA.03\HF=-439.1575059\RMSD=1.158e-09\RMS
 F=2.849e-04\ZeroPoint=0.1300746\Thermal=0.1390186\Dipole=0.1864176,0.4
 224959,1.2701512\DipoleDeriv=-0.2859533,-0.0752689,0.6177429,-0.033499
 1,-0.2733152,-0.0574105,0.0164044,0.0676056,-0.6566882,-0.321677,0.070
 0303,-0.2025794,-0.0583242,-0.1490384,-0.0322382,0.0688384,-0.0546704,
 0.6358972,0.7296294,0.1849333,-1.387792,0.0362468,0.1747798,0.077474,-
 0.4194293,-0.2407411,1.6016345,0.0275453,0.0215502,-0.0521209,0.029096
 3,0.183329,0.007253,-0.0068843,0.0113376,0.0153702,-0.4162696,-0.16877
 13,1.0329496,-0.0209137,-0.124571,-0.0604012,0.1984411,0.2311988,-1.44
 85748,0.5648562,-0.2779528,0.0885143,-0.2427181,-0.0394636,-0.0448332,
 -0.0778474,0.043085,-0.1393271,-0.0806967,0.0605407,0.0460857,0.060637
 7,0.1219742,0.000337,0.0366503,-0.0083858,-0.0006708,-0.3880934,0.1996
 096,-0.0182874,0.2392124,-0.0372587,0.1717422,0.2235989,0.0818594,0.24
 68856,0.0302762,0.0299159,-0.0006114,0.0825225,0.1005615,0.0035481,0.0
 463865,-0.0342831,-0.0858822,0.273883,-0.1198535,0.1309806,-0.0860614,
 -0.1214305,0.006317,-0.0526164,0.0587532,-0.2041951,0.1791839,-0.04327
 43,0.2770326,-0.1369227,-0.2402669,-0.2031194,0.120761,-0.2230149,-0.4
 501346,0.0322745,-0.0245886,-0.0754435,-0.0237322,0.1203675,-0.0612326
 ,-0.0587502,-0.066159,0.013916,-0.2543413,0.0238869,-0.1318513,-0.1441
 275,-0.1592843,0.0055503,-0.2479298,0.1512489,-0.2174248,-0.3384043,0.
 0024381,-0.3390905,0.1794234,-0.0680681,0.3195103,0.1378818,0.1157746,
 0.2452108,0.1808959,0.0305167,0.0206205,0.0440323,0.2519229,-0.0313935
 ,0.0162274,-0.0177683,0.2914151,0.0040734,0.0738475,0.0266813,0.056732
 9,0.1121279,-0.0621127,0.0444507,-0.0687939,0.0724166,0.0628176,0.0124
 404,-0.0328311,0.0183947,0.147634,-0.0389906,-0.0461832,-0.0470467,0.0
 801517\Polar=138.1637975,-22.1139942,70.0145685,16.0037976,-0.3198044,
 118.1049478\PG=C01 [X(C8H7N1O1)]\NImag=0\\0.65185965,-0.04887592,0.074
 65781,-0.11107033,-0.01849999,0.66163867,-0.08066152,0.00816566,0.0127
 5585,0.68237545,0.00794808,-0.03970461,-0.00350891,-0.15933754,0.15059
 551,-0.02015569,0.00488888,-0.23210447,0.08674962,-0.01796830,0.637331
 20,-0.29325632,0.00872565,0.17910427,-0.01144881,0.00100906,0.03135341
 ,0.81237350,0.00303592,-0.03451625,0.00276685,0.00328181,-0.00717369,-
 0.00057963,-0.01835271,0.08677903,0.18508161,0.00083264,-0.27582705,0.
 03708932,-0.00086100,-0.03573656,-0.67310125,0.00783293,0.84968681,-0.
 26461442,0.03398185,-0.11134831,0.00245804,0.00036220,0.00123777,-0.03
 243065,0.00404298,-0.00582186,0.28799565,0.03837490,-0.02185625,0.0159
 5197,0.00029409,0.00410061,0.00115945,-0.00277651,-0.00006640,0.000820
 95,-0.03775343,0.01337463,-0.10613004,0.01583435,-0.09808834,-0.028312
 22,0.00478322,-0.01403923,0.01835346,-0.00259538,0.00878312,0.11533631
 ,-0.01839939,0.11039803,-0.02013476,-0.00234920,0.04567421,0.00433253,
 0.00039672,-0.00846523,-0.48111126,0.00841473,0.45594002,0.00478248,0.
 00145796,-0.00135572,0.49646671,-0.00121179,0.01054174,0.00069646,-0.0
 0224676,0.00599104,-0.00152827,0.01124067,-0.04541785,-0.00924590,-0.0
 0035906,0.00287704,0.00075597,-0.00909360,0.02708847,0.04776736,-0.000
 86699,-0.00070776,-0.00992613,-0.00030462,0.00478142,0.45577794,-0.008
 61700,-0.54798008,-0.00032025,0.00097387,-0.00380037,-0.49401638,0.007
 21119,0.55201788,0.00681568,-0.00041022,-0.01494457,-0.29466159,0.0690
 0944,-0.15906240,0.00842290,-0.00272586,-0.00017933,0.00076826,-0.0005
 6142,0.00215005,-0.00812588,0.00245142,0.00596350,0.65429328,-0.000788
 62,0.00581525,0.00321602,0.06222374,-0.06960293,0.03579221,-0.00107212
 ,0.00235827,0.00137701,-0.00013270,0.00173115,-0.00085654,0.00197563,-
 0.00168090,-0.00243507,-0.15864193,0.17617551,-0.01601258,0.00461797,-
 0.04122561,-0.18223952,0.04449487,-0.25547520,-0.01525581,0.00163954,0
 .00848929,0.00055848,-0.00089058,-0.00392357,0.00530359,-0.00006039,-0
 .00403979,0.10493477,0.02116431,0.69285581,0.00010562,0.00003091,-0.00
 088322,-0.26925264,0.07186463,0.09459331,0.00171376,0.00025812,-0.0011
 8080,0.00109131,-0.00063080,0.00004270,0.00014111,0.00024742,0.0000550
 2,-0.02090857,0.00750577,0.00956849,0.28751025,0.00013357,0.00157579,0
 .00188693,0.07150731,-0.05183286,-0.03249842,-0.00005170,0.00095162,0.
 00019850,-0.00023083,-0.00018549,0.00025453,0.00013161,0.00031767,-0.0
 0039313,0.00827020,0.00019337,-0.00078165,-0.07961256,0.04572544,0.025
 33282,-0.00656255,-0.01711380,0.09690058,-0.03039028,-0.09518002,-0.00
 066608,-0.00160624,-0.00573763,0.00041234,0.00036725,0.00134677,0.0015
 0701,0.00064513,0.00025281,-0.02047946,0.00673863,0.00849834,-0.098790
 38,0.02973582,0.10850104,0.00034639,-0.00253658,0.00893725,-0.04249489
 ,0.01010263,-0.01415520,0.00037132,0.00125032,0.00023734,0.00011612,0.
 00109151,0.00064134,0.00233443,-0.00159799,-0.00272223,-0.22724805,0.0
 6199946,0.04447037,0.00040757,0.00127281,-0.00222160,0.69677173,-0.000
 55679,-0.00410162,-0.00424025,0.01394402,0.00277893,0.00706926,-0.0026
 5740,-0.00266715,-0.00031593,0.00005447,-0.00012190,-0.00043068,0.0000
 4938,0.00188480,0.00183529,0.05369353,-0.07641282,-0.03147271,0.001529
 77,0.00985563,0.00008399,-0.15469009,0.29099827,0.00070224,0.00030699,
 -0.00037948,-0.01537137,0.00679027,0.01656868,-0.00125661,0.00044341,-
 0.00105027,0.00010457,-0.00036089,-0.00023516,-0.00012759,0.00025216,0
 .00114631,0.01200471,-0.02112552,-0.10948604,-0.00346920,0.00128620,-0
 .00186246,-0.00497303,0.19523052,0.50653323,-0.00074183,0.00303292,-0.
 00379132,0.00664194,-0.00194637,-0.02346623,-0.00151305,0.00023501,0.0
 0031099,-0.00008656,0.00011070,-0.00061410,0.00050560,-0.00013144,-0.0
 0016150,-0.07094202,0.01570199,0.06170220,0.00026452,-0.00245720,-0.00
 097423,-0.00444723,0.00686152,0.02945496,0.07422313,0.00259401,0.00768
 972,-0.00002743,0.00273189,0.00317372,0.00846421,0.00107576,0.00067496
 ,-0.00089916,0.00006019,0.00013780,0.00046334,-0.00078071,-0.00050648,
 0.00069403,0.01031674,-0.03839118,-0.04290484,-0.00187793,-0.00630047,
 0.00058643,0.00749176,-0.00132419,-0.01198310,-0.02204748,0.03350760,-
 0.00304718,-0.00037690,0.00050448,0.00418296,-0.00272263,-0.02158464,-
 0.00025175,-0.00023265,0.00048587,0.00002974,0.00011182,-0.00088471,0.
 00007308,0.00011340,-0.00017184,0.05908532,-0.04174354,-0.30318736,0.0
 0000855,0.00088046,0.00109703,0.00082236,-0.00178173,-0.00527421,-0.06
 143153,0.04472142,0.32615407,-0.00102143,0.00072324,-0.00241968,0.0090
 2607,-0.00096780,0.00484746,0.00180378,-0.00095124,-0.00104346,-0.0000
 2280,0.00047322,0.00014311,-0.00233213,0.00025479,0.00180541,-0.021083
 42,0.01854044,0.02157357,-0.00011025,-0.00041291,0.00002412,-0.1250076
 3,0.04906083,0.05677592,-0.00414492,0.00040367,0.00023482,0.57744630,0
 .00150428,-0.00042214,-0.00050605,-0.00315802,0.00060909,-0.00046489,-
 0.00425909,0.00162142,0.00343892,0.00000773,-0.00038745,-0.00009768,0.
 00396990,-0.00181505,-0.00105904,0.00887704,-0.00219557,-0.00343157,-0
 .00018977,-0.00032832,-0.00012065,0.05594832,-0.14502913,-0.10875697,-
 0.00037610,0.00258308,0.00092751,-0.04005780,0.29590574,-0.00041914,-0
 .00114189,0.00270329,-0.00612949,0.00104221,-0.00427032,0.00163715,0.0
 0245655,-0.00002280,-0.00008838,-0.00015853,0.00015092,-0.00050326,-0.
 00081244,-0.00211076,0.01632408,-0.00321798,0.00643234,-0.00001725,-0.
 00020836,-0.00021507,0.06057730,-0.10367672,-0.21590950,-0.00134758,0.
 00046930,0.00092789,0.14250169,0.27485148,0.63348363,-0.00193780,0.000
 25323,0.00020815,0.00377534,0.00024240,0.00355717,0.00486254,-0.001349
 93,-0.00237315,-0.00012584,-0.00014713,-0.00006399,-0.00370153,0.00099
 914,0.00230124,-0.04364494,-0.00447619,-0.03010081,-0.00053448,0.00182
 764,-0.00053579,-0.18528491,-0.01208959,-0.08744052,0.00265724,-0.0017
 9543,-0.00147299,-0.00958164,-0.00855859,-0.02835807,0.60185780,0.0004
 7358,-0.00005127,-0.00015661,0.00081355,0.00147639,-0.00194615,-0.0012
 6074,0.00017289,-0.00032068,0.00003938,-0.00006441,-0.00000397,0.00057
 599,-0.00005440,-0.00023522,0.01369060,0.00030209,0.01231922,0.0009665
 3,0.00017407,0.00033278,-0.01519386,-0.07810670,-0.04234035,0.00009123
 ,-0.00076652,0.00058617,0.00791611,-0.00985118,-0.03677908,-0.13827182
 ,0.35458424,-0.00159148,0.00061656,0.00028809,0.00529111,-0.00206303,0
 .00075855,0.00516592,-0.00147140,-0.00228822,-0.00004758,0.00000459,0.
 00018826,-0.00369576,0.00095967,0.00229558,-0.00450293,0.00614597,0.00
 663530,0.00014137,-0.00069168,0.00042727,-0.08010946,-0.04199108,-0.17
 672199,-0.00031413,0.00055666,0.00153033,0.00298713,-0.04532654,-0.064
 76930,0.01814271,0.37492380,0.69801079,-0.00083298,0.00003769,-0.00018
 645,0.00022836,-0.00004103,0.00005464,0.00123301,0.00113735,-0.0015731
 7,-0.00003062,0.00016341,0.00003811,-0.00137257,0.00060423,0.00002840,
 -0.00020046,-0.00097684,-0.00033798,0.00001108,0.00001086,-0.00000283,
 0.01128457,0.00366133,0.01127313,0.00005486,-0.00011575,-0.00002960,-0
 .12192076,-0.04721665,-0.11528838,-0.00148625,0.00325590,0.00310882,0.
 11996092,-0.00112286,-0.00002027,-0.00013961,0.00089912,-0.00061981,-0
 .00092806,0.00389407,-0.00165908,-0.00017340,-0.00003537,0.00053024,0.
 00020578,-0.00187815,0.00006341,0.00091668,-0.00069079,-0.00180923,0.0
 0197834,0.00005102,0.00011394,0.00014068,-0.01076805,-0.00293047,-0.00
 706865,-0.00006100,0.00001730,0.00002828,-0.04719542,-0.07931319,-0.10
 453575,0.00105968,0.00114646,-0.00417979,0.05094835,0.07796576,0.00024
 780,0.00034838,0.00018687,0.00018204,0.00004233,-0.00012140,-0.0017387
 4,0.00047130,0.00026661,-0.00001552,-0.00006868,-0.00004635,0.00003335
 ,0.00104450,-0.00109140,-0.00032028,0.00166333,-0.00070975,0.00000650,
 -0.00006071,0.00001914,-0.01183960,-0.00241618,-0.00954455,0.00012788,
 -0.00000994,-0.00002706,-0.11286853,-0.10396288,-0.23499776,0.00168266
 ,-0.00381656,-0.00153114,0.12596309,0.10890105,0.24658208,0.00240219,-
 0.00019496,-0.00103923,-0.00488969,0.00011159,0.00013232,-0.00683009,0
 .00123333,0.00267730,0.00006471,-0.00033313,-0.00023116,0.00471119,-0.
 00056054,-0.00294329,0.00859026,-0.00070253,0.00111655,-0.00003630,-0.
 00015947,-0.00020503,-0.04881674,0.04360198,0.04712518,-0.00027143,0.0
 0103262,-0.00016387,-0.27213973,0.02719237,-0.05766749,-0.00705092,0.0
 1217754,0.00839800,-0.00320268,0.00249907,0.00062809,0.63225418,0.0004
 1510,0.00007914,0.00117451,-0.00238178,0.00059680,-0.00074411,-0.00102
 664,-0.00041273,0.00004130,0.00002755,-0.00017429,-0.00004596,0.000976
 97,0.00022527,-0.00041850,0.00305949,0.00024835,-0.00488354,0.00011216
 ,-0.00004321,0.00001138,0.01533128,0.00079912,-0.00914541,0.00108105,-
 0.00015077,-0.00017007,0.04473180,-0.07889648,-0.01211182,0.03387844,-
 0.01669504,-0.03741183,-0.01290031,0.00362584,-0.00064749,-0.17850657,
 0.32968512,0.00068404,-0.00003899,-0.00070211,-0.00421027,0.00025677,-
 0.00134933,-0.00306981,0.00030896,0.00230710,0.00002839,0.00036352,0.0
 0003793,0.00231093,-0.00037096,-0.00244593,0.00753491,-0.00540807,-0.0
 0274136,0.00003269,-0.00022920,0.00004589,-0.00265016,0.00308753,0.016
 12538,0.00084610,0.00059571,0.00029825,-0.03143262,-0.02078356,-0.1051
 1790,0.04711319,-0.04802752,-0.04821072,-0.02129008,0.00709612,-0.0002
 7081,-0.05132716,0.27912072,0.56820916,0.00177642,-0.00053222,-0.00129
 782,-0.00479007,0.00095069,0.00224700,-0.00480063,0.00056230,0.0039417
 1,0.00004651,0.00022048,-0.00006240,0.00382186,-0.00060729,-0.00368677
 ,0.00564361,-0.00140329,-0.00416553,-0.00023502,-0.00021064,-0.0001974
 8,-0.08325154,0.00950472,-0.03036911,-0.00085685,0.00067564,0.00094679
 ,-0.01922035,-0.00561641,-0.02322319,-0.26776122,0.08356903,0.04280096
 ,-0.00579130,0.00316424,-0.00080480,-0.11002236,-0.01703979,-0.0509690
 8,0.73073896,-0.00173752,0.00009562,0.00132229,0.00296044,0.00007849,-
 0.00072539,0.00471138,-0.00085124,-0.00214273,-0.00007260,0.00002305,0
 .00006037,-0.00316817,0.00058226,0.00218102,-0.00710029,0.00169925,-0.
 00210467,-0.00018087,0.00021147,-0.00003110,0.02744226,0.00593800,-0.0
 0167220,0.00016849,-0.00076752,-0.00049324,-0.03204442,0.01497440,-0.0
 1194484,0.07725299,-0.10535208,-0.04870161,0.00153679,0.00171456,-0.00
 139629,-0.00489353,-0.13156274,-0.11952481,-0.05737771,0.26376800,-0.0
 0125213,0.00009775,0.00037830,0.00281563,0.00020201,0.00125998,0.00372
 374,-0.00060737,-0.00109377,-0.00006372,0.00013805,0.00010188,-0.00256
 231,0.00027064,0.00150990,-0.00936216,-0.00154780,-0.00531909,-0.00027
 140,0.00054904,-0.00010800,-0.00383074,-0.01064359,-0.00632486,0.00028
 311,-0.00075751,0.00002308,-0.07165234,0.00274018,-0.02044914,0.040382
 38,-0.04931764,-0.11487677,-0.00185860,-0.00172791,0.00143789,-0.03072
 696,-0.12472479,-0.29302011,0.18878525,0.22389071,0.59070064,-0.000309
 65,-0.00008178,0.00059054,-0.00041507,0.00032821,-0.00006374,0.0010608
 8,-0.00018358,-0.00049571,-0.00000225,0.00003491,0.00008534,-0.0006529
 7,0.00009651,0.00043492,0.00239597,-0.00070752,-0.00069921,-0.00002298
 ,0.00003288,-0.00001554,0.01080718,-0.01587024,-0.01544030,-0.00103017
 ,0.00015704,0.00092708,-0.00428196,-0.00113852,-0.00486652,-0.07390452
 ,0.03649888,0.02322420,0.00095293,0.00002335,-0.00110278,-0.00646759,0
 .00328014,0.00154314,0.00738034,0.01332975,0.02578073,0.06359027,0.000
 03129,0.00003131,0.00006063,0.00021880,-0.00023820,0.00015872,0.000160
 11,0.00000252,-0.00026274,0.00001211,0.00002720,0.00003139,-0.00017068
 ,0.00003632,0.00018985,-0.00036375,-0.00130867,0.00106975,0.00007096,0
 .00005900,0.00001303,-0.00001291,-0.00460740,0.00281485,-0.00043561,0.
 00058653,-0.00000858,0.00044913,0.00106373,-0.00025470,0.03791578,-0.1
 4987912,-0.20861447,0.00042996,0.00183166,-0.00086645,0.00185914,0.000
 99064,-0.00103762,-0.00438176,-0.00790921,-0.00416604,-0.03560465,0.15
 876200,-0.00015089,-0.00000593,0.00033761,-0.00003445,0.00017846,-0.00
 057931,0.00029302,0.00001934,-0.00032090,-0.00000215,0.00000267,0.0000
 1287,-0.00020404,-0.00005391,0.00037459,0.00069938,0.00125131,0.000981
 08,0.00001395,-0.00011776,0.00000934,0.00820774,-0.00664451,-0.0126136
 6,-0.00028815,-0.00010973,0.00007977,-0.00470232,-0.00027707,-0.000957
 32,0.02425819,-0.20417413,-0.30844467,0.00034176,-0.00122132,0.0002196
 3,0.00158271,-0.00046750,0.00292833,0.00052224,0.00041521,-0.00457686,
 -0.03047299,0.21085656,0.32216524,0.00020853,0.00000683,-0.00022598,-0
 .00015801,-0.00000271,0.00027235,-0.00049519,0.00009284,0.00051629,-0.
 00000827,-0.00001113,-0.00001292,0.00039434,-0.00008606,-0.00040703,0.
 00053440,0.00066831,0.00084141,-0.00004812,-0.00005142,-0.00003262,-0.
 00504200,0.00116858,-0.00246479,-0.00034655,0.00007813,0.00008153,-0.0
 0849422,0.01218357,0.01679184,0.00086000,-0.00065993,-0.00315774,0.000
 69546,-0.00091792,-0.00012097,-0.19260383,0.10895536,0.10362628,0.0085
 9148,-0.00494597,-0.00362010,0.00075655,0.00020280,-0.00037114,0.19543
 056,0.00002954,0.00004823,0.00002388,-0.00021122,0.00002845,0.00001619
 ,0.00003468,0.00015016,-0.00020946,0.00000457,-0.00002222,0.00000439,-
 0.00009183,-0.00007328,0.00013631,0.00052858,0.00080041,-0.00071224,-0
 .00001506,-0.00009924,0.00001312,0.00034914,0.00310522,-0.00134848,0.0
 0018702,-0.00021221,0.00007965,-0.00081820,-0.00051960,0.00027417,0.00
 044074,0.00215674,-0.00393916,-0.00011700,-0.00160824,0.00121783,0.107
 07621,-0.11185943,-0.09333455,0.00909043,-0.00442919,-0.00102466,0.000
 77199,0.00156685,-0.00080133,-0.11646509,0.11293374,0.00003615,-0.0000
 3747,-0.00003252,0.00014005,-0.00001444,0.00003467,-0.00011453,-0.0000
 5170,0.00015625,-0.00000268,-0.00000394,-0.00000263,0.00011139,0.00001
 747,-0.00009230,-0.00016418,-0.00014860,0.00099920,0.00001532,0.000042
 17,-0.00000879,-0.00326154,-0.00130650,-0.00008531,-0.00029864,0.00015
 502,0.00006956,-0.00597009,0.00722740,0.00833805,-0.00166786,-0.004496
 53,-0.00357604,0.00108108,0.00071958,-0.00059368,0.10187741,-0.0924084
 3,-0.13373246,0.02002215,-0.00846291,-0.00578524,0.00099599,-0.0011128
 0,0.00056422,-0.11267435,0.09833861,0.13411032,-0.00000376,0.00002291,
 -0.00006337,-0.00006543,-0.00003020,0.00032344,0.00004430,0.00001862,-
 0.00002585,-0.00000167,-0.00000762,-0.00000787,-0.00005915,0.00000035,
 0.00004980,-0.00064943,0.00028640,-0.00125798,-0.00009687,-0.00000016,
 -0.00005583,-0.00084630,0.00273396,0.00347181,0.00003331,-0.00000015,0
 .00000469,0.00108508,0.00088774,0.00007670,-0.01899887,-0.00468195,-0.
 01584115,0.00041644,0.00013064,-0.00006018,0.00430885,0.00000576,0.001
 22953,-0.26126984,-0.01588101,-0.13657038,0.00014306,-0.00038069,0.000
 30714,-0.00027515,-0.00079450,-0.00012569,0.27623543,-0.00024678,0.000
 13780,-0.00002071,0.00029488,-0.00025695,-0.00016569,0.00060552,0.0000
 5352,-0.00011126,-0.00000905,0.00007665,0.00003624,-0.00041655,-0.0000
 6007,0.00019133,0.00059723,0.00207764,-0.00004181,-0.00013030,-0.00038
 841,0.00004259,0.00251999,-0.00005859,-0.00332283,-0.00001472,0.000048
 64,0.00008063,-0.00010542,0.00200064,-0.00425160,0.01281865,0.00080783
 ,0.01118333,-0.00041828,0.00095111,-0.00044354,-0.01143313,0.00354439,
 -0.00207405,-0.02056841,-0.03821314,-0.03337108,-0.00096736,-0.0010151
 4,0.00114963,-0.00021618,-0.00196639,0.00154309,0.01768991,0.03226046,
 -0.00002257,-0.00001281,0.00014381,0.00011629,0.00004306,-0.00029402,0
 .00004568,-0.00017752,-0.00011777,0.00000284,-0.00001214,0.00000058,-0
 .00002328,0.00010528,0.00006173,0.00031860,-0.00086567,0.00121641,0.00
 013436,0.00014724,0.00002813,0.00186986,-0.00238671,-0.00088609,-0.000
 03783,-0.00001441,-0.00004052,-0.00080419,-0.00439859,-0.00321626,0.01
 436747,0.00345247,0.01028468,-0.00132194,-0.00001201,0.00022169,-0.019
 23337,0.00283154,-0.00236131,-0.14448992,-0.03066979,-0.14385782,-0.00
 042515,0.00112860,-0.00017996,0.00095794,0.00126574,-0.00036329,0.1485
 4520,0.02957571,0.13936002\\0.00140707,-0.00028744,-0.00002216,-0.0013
 5217,-0.00011060,0.00002130,0.00000302,0.00031133,0.00007803,-0.000017
 56,-0.00005709,0.00000637,-0.00000773,0.00011440,-0.00002702,-0.000010
 01,-0.00003954,-0.00006153,0.00000411,0.00000962,-0.00000817,0.0000040
 7,0.00004805,0.00002523,0.00000067,0.00002961,0.00000202,0.00005580,0.
 00013795,-0.00009107,-0.00005797,-0.00015300,0.00007502,-0.00003113,-0
 .00005235,0.00001620,-0.00003807,-0.00007492,0.00000427,0.00003154,0.0
 0016509,-0.00004943,0.00001551,-0.00000528,0.00000570,-0.00000930,-0.0
 0003716,0.00002548,0.00000215,0.00000135,-0.00000023\\\@


 DON'T WORRY CHARLIE BROWN...WE LEARN MORE FROM LOSING 
 THAN WE DO FROM WINNING.
 THEN THAT MAKES ME THE SMARTEST PERSON IN THE WORLD...
 CHARLES SCHULZ 'PEANUTS'
 Job cpu time:       0 days  2 hours  0 minutes 48.8 seconds.
 Elapsed time:       0 days  0 hours 10 minutes  4.7 seconds.
 File lengths (MBytes):  RWF=    182 Int=      0 D2E=      0 Chk=     32 Scr=      1
 Normal termination of Gaussian 16 at Fri Jun 10 04:15:52 2022.
