 Entering Gaussian System, Link 0=g16
 Input=ts_zmat_field_N25.gjf
 Output=ts_zmat_field_N25.out
 Initial command:
 /software/gaussian/g16-a03/l1.exe "/local_scratch/11171304/Gau-29798.inp" -scrdir="/local_scratch/11171304/"
 Entering Link 1 = /software/gaussian/g16-a03/l1.exe PID=     29799.
  
 Copyright (c) 1988,1990,1992,1993,1995,1998,2003,2009,2016,
            Gaussian, Inc.  All Rights Reserved.
  
 This is part of the Gaussian(R) 16 program.  It is based on
 the Gaussian(R) 09 system (copyright 2009, Gaussian, Inc.),
 the Gaussian(R) 03 system (copyright 2003, Gaussian, Inc.),
 the Gaussian(R) 98 system (copyright 1998, Gaussian, Inc.),
 the Gaussian(R) 94 system (copyright 1995, Gaussian, Inc.),
 the Gaussian 92(TM) system (copyright 1992, Gaussian, Inc.),
 the Gaussian 90(TM) system (copyright 1990, Gaussian, Inc.),
 the Gaussian 88(TM) system (copyright 1988, Gaussian, Inc.),
 the Gaussian 86(TM) system (copyright 1986, Carnegie Mellon
 University), and the Gaussian 82(TM) system (copyright 1983,
 Carnegie Mellon University). Gaussian is a federally registered
 trademark of Gaussian, Inc.
  
 This software contains proprietary and confidential information,
 including trade secrets, belonging to Gaussian, Inc.
  
 This software is provided under written license and may be
 used, copied, transmitted, or stored only in accord with that
 written license.
  
 The following legend is applicable only to US Government
 contracts under FAR:
  
                    RESTRICTED RIGHTS LEGEND
  
 Use, reproduction and disclosure by the US Government is
 subject to restrictions as set forth in subparagraphs (a)
 and (c) of the Commercial Computer Software - Restricted
 Rights clause in FAR 52.227-19.
  
 Gaussian, Inc.
 340 Quinnipiac St., Bldg. 40, Wallingford CT 06492
  
  
 ---------------------------------------------------------------
 Warning -- This program may not be used in any manner that
 competes with the business of Gaussian, Inc. or will provide
 assistance to any competitor of Gaussian, Inc.  The licensee
 of this program is prohibited from giving any competitor of
 Gaussian, Inc. access to this program.  By using this program,
 the user acknowledges that Gaussian, Inc. is engaged in the
 business of creating and licensing software in the field of
 computational chemistry and represents and warrants to the
 licensee that it is not a competitor of Gaussian, Inc. and that
 it will not use this program in any manner prohibited above.
 ---------------------------------------------------------------
  

 Cite this work as:
 Gaussian 16, Revision A.03,
 M. J. Frisch, G. W. Trucks, H. B. Schlegel, G. E. Scuseria, 
 M. A. Robb, J. R. Cheeseman, G. Scalmani, V. Barone, 
 G. A. Petersson, H. Nakatsuji, X. Li, M. Caricato, A. V. Marenich, 
 J. Bloino, B. G. Janesko, R. Gomperts, B. Mennucci, H. P. Hratchian, 
 J. V. Ortiz, A. F. Izmaylov, J. L. Sonnenberg, D. Williams-Young, 
 F. Ding, F. Lipparini, F. Egidi, J. Goings, B. Peng, A. Petrone, 
 T. Henderson, D. Ranasinghe, V. G. Zakrzewski, J. Gao, N. Rega, 
 G. Zheng, W. Liang, M. Hada, M. Ehara, K. Toyota, R. Fukuda, 
 J. Hasegawa, M. Ishida, T. Nakajima, Y. Honda, O. Kitao, H. Nakai, 
 T. Vreven, K. Throssell, J. A. Montgomery, Jr., J. E. Peralta, 
 F. Ogliaro, M. J. Bearpark, J. J. Heyd, E. N. Brothers, K. N. Kudin, 
 V. N. Staroverov, T. A. Keith, R. Kobayashi, J. Normand, 
 K. Raghavachari, A. P. Rendell, J. C. Burant, S. S. Iyengar, 
 J. Tomasi, M. Cossi, J. M. Millam, M. Klene, C. Adamo, R. Cammi, 
 J. W. Ochterski, R. L. Martin, K. Morokuma, O. Farkas, 
 J. B. Foresman, and D. J. Fox, Gaussian, Inc., Wallingford CT, 2016.
 
 ******************************************
 Gaussian 16:  ES64L-G16RevA.03 25-Dec-2016
                10-Jun-2022 
 ******************************************
 %nprocshared=12
 Will use up to   12 processors via shared memory.
 %chk=checkpoint.chk
 %mem=12GB
 ----------------------------------------------------------------------
 # Opt=(TS, CalcFC, noeigentest, Z-matrix, MaxStep=10) Field=read NoSym
 m B3LYP/Def2TZVP freq=noraman pop=none
 ----------------------------------------------------------------------
 1/5=1,8=10,10=4,11=1,18=40,26=3,38=1/1,3;
 2/12=2,15=1,17=6,18=5,29=3,40=1/2;
 3/5=44,7=101,11=2,14=-6,25=1,30=1,71=2,74=-5,140=1/1,2,3;
 4//1;
 5/5=2,38=5/2;
 8/6=4,10=90,11=11/1;
 11/6=1,8=1,9=11,15=111,16=1,31=1/1,2,10;
 10/6=1,13=1,31=1/2;
 7/10=1,18=20,25=1,30=1/1,2,3,16;
 1/5=1,8=10,10=4,11=1,18=40,26=3/3(2);
 2/15=1,29=3/2;
 99//99;
 2/15=1,29=3/2;
 3/5=44,7=101,11=2,14=-2,25=1,30=1,71=1,74=-5/1,2,3;
 4/5=5,16=3,69=1/1;
 5/5=2,38=5/2;
 7/30=1/1,2,3,16;
 1/5=1,8=10,11=1,18=40,26=3/3(-5);
 2/15=1,29=3/2;
 99/9=1/99;
 -----------------
 ts_zmat_initalOpt
 -----------------
 Symbolic Z-matrix:
 Charge =  0 Multiplicity = 1
 C
 C                    1    R2
 C                    1    R3       2    A3
 H                    1    R4       2    A4       3    D4       0
 O                    3    R5       1    A5       2    D5       0
 C                    2    R6       1    A6       3    D6       0
 H                    2    R7       1    A7       6    D7       0
 C                    6    R8       2    A8       1    D8       0
 H                    6    R9       2    A9       8    D9       0
 C                    8    R10      6    A10      2    D10      0
 N                    8    R11      6    A11      10   D11      0
 H                    10   R12      8    A12      6    D12      0
 C                    10   R13      8    A13      12   D13      0
 C                    11   R14      8    A14      6    D14      0
 H                    11   R15      8    A15      14   D15      0
 H                    13   R16      10   A16      8    D16      0
 H                    14   R17      11   A17      8    D17      0
       Variables:
  R2                    1.4159                   
  R3                    1.37596                  
  R4                    1.08553                  
  R5                    1.17946                  
  R6                    1.36916                  
  R7                    1.08422                  
  R8                    1.41638                  
  R9                    1.08165                  
  R10                   1.41561                  
  R11                   1.36115                  
  R12                   1.08329                  
  R13                   1.44402                  
  R14                   1.39127                  
  R15                   1.00598                  
  R16                   1.07683                  
  R17                   1.07689                  
  A3                  127.71795                  
  A4                  118.21837                  
  A5                  144.62153                  
  A6                  127.53786                  
  A7                  115.00597                  
  A8                  117.95383                  
  A9                  120.36083                  
  A10                 125.33964                  
  A11                 126.86937                  
  A12                 120.20679                  
  A13                 106.66957                  
  A14                 110.16664                  
  A15                 124.18827                  
  A16                 126.47033                  
  A17                 120.52344                  
  D4                 -166.10212                  
  D5                  179.09517                  
  D6                    1.81544                  
  D7                  174.54018                  
  D8                   -0.93794                  
  D9                  171.14784                  
  D10                 -26.65023                  
  D11                 169.32356                  
  D12                 -44.12211                  
  D13                -144.90888                  
  D14                -170.19318                  
  D15                 168.71769                  
  D16                 178.54653                  
  D17                 178.97264                  
 

 GradGradGradGradGradGradGradGradGradGradGradGradGradGradGradGradGradGrad
 Berny optimization.
 Initialization pass.
                       ----------------------------
                       !    Initial Parameters    !
                       ! (Angstroms and Degrees)  !
 ----------------------                            ----------------------
 !      Name          Value   Derivative information (Atomic Units)     !
 ------------------------------------------------------------------------
 !       R2          1.4159   calculate D2E/DX2 analytically            !
 !       R3          1.376    calculate D2E/DX2 analytically            !
 !       R4          1.0855   calculate D2E/DX2 analytically            !
 !       R5          1.1795   calculate D2E/DX2 analytically            !
 !       R6          1.3692   calculate D2E/DX2 analytically            !
 !       R7          1.0842   calculate D2E/DX2 analytically            !
 !       R8          1.4164   calculate D2E/DX2 analytically            !
 !       R9          1.0816   calculate D2E/DX2 analytically            !
 !       R10         1.4156   calculate D2E/DX2 analytically            !
 !       R11         1.3611   calculate D2E/DX2 analytically            !
 !       R12         1.0833   calculate D2E/DX2 analytically            !
 !       R13         1.444    calculate D2E/DX2 analytically            !
 !       R14         1.3913   calculate D2E/DX2 analytically            !
 !       R15         1.006    calculate D2E/DX2 analytically            !
 !       R16         1.0768   calculate D2E/DX2 analytically            !
 !       R17         1.0769   calculate D2E/DX2 analytically            !
 !       A3        127.718    calculate D2E/DX2 analytically            !
 !       A4        118.2184   calculate D2E/DX2 analytically            !
 !       A5        144.6215   calculate D2E/DX2 analytically            !
 !       A6        127.5379   calculate D2E/DX2 analytically            !
 !       A7        115.006    calculate D2E/DX2 analytically            !
 !       A8        117.9538   calculate D2E/DX2 analytically            !
 !       A9        120.3608   calculate D2E/DX2 analytically            !
 !       A10       125.3396   calculate D2E/DX2 analytically            !
 !       A11       126.8694   calculate D2E/DX2 analytically            !
 !       A12       120.2068   calculate D2E/DX2 analytically            !
 !       A13       106.6696   calculate D2E/DX2 analytically            !
 !       A14       110.1666   calculate D2E/DX2 analytically            !
 !       A15       124.1883   calculate D2E/DX2 analytically            !
 !       A16       126.4703   calculate D2E/DX2 analytically            !
 !       A17       120.5234   calculate D2E/DX2 analytically            !
 !       D4       -166.1021   calculate D2E/DX2 analytically            !
 !       D5        179.0952   calculate D2E/DX2 analytically            !
 !       D6          1.8154   calculate D2E/DX2 analytically            !
 !       D7        174.5402   calculate D2E/DX2 analytically            !
 !       D8         -0.9379   calculate D2E/DX2 analytically            !
 !       D9        171.1478   calculate D2E/DX2 analytically            !
 !       D10       -26.6502   calculate D2E/DX2 analytically            !
 !       D11       169.3236   calculate D2E/DX2 analytically            !
 !       D12       -44.1221   calculate D2E/DX2 analytically            !
 !       D13      -144.9089   calculate D2E/DX2 analytically            !
 !       D14      -170.1932   calculate D2E/DX2 analytically            !
 !       D15       168.7177   calculate D2E/DX2 analytically            !
 !       D16       178.5465   calculate D2E/DX2 analytically            !
 !       D17       178.9726   calculate D2E/DX2 analytically            !
 ------------------------------------------------------------------------
 Trust Radius=1.00D-01 FncErr=1.00D-07 GrdErr=1.00D-06 EigMax=2.50D+02 EigMin=1.00D-04
 Number of steps in this run=     55 maximum allowed number of steps=    100.
 Search for a saddle point of order  1.
 GradGradGradGradGradGradGradGradGradGradGradGradGradGradGradGradGradGrad

 ---------------------------------------------------------------------------------------------------
                            Z-MATRIX (ANGSTROMS AND DEGREES)
   CD    Cent   Atom    N1       Length/X        N2       Alpha/Y        N3        Beta/Z          J
 ---------------------------------------------------------------------------------------------------
      1      1  C 
      2      2  C        1   1.415903(     1)
      3      3  C        1   1.375964(     2)      2  127.718(    17)
      4      4  H        1   1.085535(     3)      2  118.218(    18)      3 -166.102(    32)      0
      5      5  O        3   1.179459(     4)      1  144.622(    19)      2  179.095(    33)      0
      6      6  C        2   1.369165(     5)      1  127.538(    20)      3    1.815(    34)      0
      7      7  H        2   1.084224(     6)      1  115.006(    21)      6  174.540(    35)      0
      8      8  C        6   1.416382(     7)      2  117.954(    22)      1   -0.938(    36)      0
      9      9  H        6   1.081646(     8)      2  120.361(    23)      8  171.148(    37)      0
     10     10  C        8   1.415609(     9)      6  125.340(    24)      2  -26.650(    38)      0
     11     11  N        8   1.361147(    10)      6  126.869(    25)     10  169.324(    39)      0
     12     12  H       10   1.083293(    11)      8  120.207(    26)      6  -44.122(    40)      0
     13     13  C       10   1.444016(    12)      8  106.670(    27)     12 -144.909(    41)      0
     14     14  C       11   1.391275(    13)      8  110.167(    28)      6 -170.193(    42)      0
     15     15  H       11   1.005983(    14)      8  124.188(    29)     14  168.718(    43)      0
     16     16  H       13   1.076829(    15)     10  126.470(    30)      8  178.547(    44)      0
     17     17  H       14   1.076892(    16)     11  120.523(    31)      8  178.973(    45)      0
 ---------------------------------------------------------------------------------------------------
                         Z-Matrix orientation:                         
 ---------------------------------------------------------------------
 Center     Atomic      Atomic             Coordinates (Angstroms)
 Number     Number       Type             X           Y           Z
 ---------------------------------------------------------------------
      1          6           0        0.000000    0.000000    0.000000
      2          6           0        0.000000    0.000000    1.415903
      3          6           0        1.088431    0.000000   -0.841780
      4          1           0       -0.928519    0.229749   -0.513277
      5          8           0        1.431425   -0.010784   -1.970214
      6          6           0        1.085135    0.034394    2.250115
      7          1           0       -0.980606    0.062457    1.874218
      8          6           0        2.373803    0.054749    1.662697
      9          1           0        0.953316    0.188995    3.312509
     10          6           0        2.702325   -0.472760    0.390786
     11          7           0        3.461350    0.744576    2.103268
     12          1           0        2.323623   -1.441533    0.088152
     13          6           0        4.052831   -0.050077    0.103291
     14          6           0        4.477258    0.695659    1.153961
     15          1           0        3.459663    1.349061    2.907380
     16          1           0        4.626471   -0.293533   -0.774905
     17          1           0        5.411445    1.203012    1.325962
 ---------------------------------------------------------------------
                    Distance matrix (angstroms):
                    1          2          3          4          5
     1  C    0.000000
     2  C    1.415903   0.000000
     3  C    1.375964   2.506355   0.000000
     4  H    1.085535   2.153292   2.056402   0.000000
     5  O    2.435332   3.676260   1.179459   2.783857   0.000000
     6  C    2.498344   1.369165   3.092089   3.424807   4.234754
     7  H    2.116172   1.084224   3.414889   2.393916   4.539044
     8  C    2.898707   2.387225   2.815597   3.958639   3.753720
     9  H    3.452137   2.131114   4.160780   4.263755   5.308075
    10  C    2.771061   2.928639   2.085036   3.807083   2.720833
    11  N    4.118140   3.606634   3.854666   5.136371   4.613504
    12  H    2.735875   3.039764   2.113880   3.705581   2.660814
    13  C    4.054457   4.260387   3.111806   5.027158   3.342564
    14  C    4.675618   4.538545   3.993879   5.676195   4.420026
    15  H    4.716152   4.001717   4.636692   5.675376   5.454709
    16  H    4.700093   5.127381   3.550825   5.585713   3.423015
    17  H    5.699925   5.544282   4.983452   6.672720   5.308355
                    6          7          8          9         10
     6  C    0.000000
     7  H    2.099851   0.000000
     8  C    1.416382   3.361080   0.000000
     9  H    1.081646   2.413452   2.181211   0.000000
    10  C    2.515872   4.006371   1.415609   3.468921   0.000000
    11  N    2.484415   4.499858   1.361147   2.839219   2.233969
    12  H    2.895911   4.045979   2.172688   3.864303   1.083293
    13  C    3.663770   5.337073   2.293878   4.468023   1.444016
    14  C    3.625648   5.541480   2.257011   4.163436   2.257881
    15  H    2.792620   4.736957   2.098468   2.791354   3.197786
    16  H    4.668977   6.211594   3.337322   5.516507   2.256833
    17  H    4.575662   6.516116   3.264838   4.984928   3.319954
                   11         12         13         14         15
    11  N    0.000000
    12  H    3.183424   0.000000
    13  C    2.231868   2.219581   0.000000
    14  C    1.391275   3.215849   1.356528   0.000000
    15  H    1.005983   4.126263   3.189413   2.130003   0.000000
    16  H    3.273997   2.714016   1.076829   2.172853   4.197473
    17  H    2.148776   4.249757   2.216075   1.076892   2.516280
                   16         17
    16  H    0.000000
    17  H    2.696196   0.000000
 Symmetry turned off by external request.
 Stoichiometry    C8H7NO
 Framework group  C1[X(C8H7NO)]
 Deg. of freedom    45
 Full point group                 C1      NOp   1
 Rotational constants (GHZ):           2.1586789           1.3713930           0.8800753
 Standard basis: def2TZVP (5D, 7F)
 The following finite field(s) will be applied:
 An electric field of             -0.0015  0.0005 -0.0020
   352 basis functions,   566 primitive gaussians,   402 cartesian basis functions
    35 alpha electrons       35 beta electrons
       nuclear repulsion energy       480.1692800951 Hartrees.
 NAtoms=   17 NActive=   17 NUniq=   17 SFac= 1.00D+00 NAtFMM=   60 NAOKFM=F Big=F
 Integral buffers will be    131072 words long.
 Raffenetti 2 integral format.
 Two-electron integral symmetry is turned off.
 One-electron integrals computed using PRISM.
   1 Symmetry operations used in ECPInt.
 ECPInt:  NShTT=    9591 NPrTT=   29644 LenC2=    9332 LenP2D=   22719.
 LDataN:  DoStor=T MaxTD1= 6 Len=  172
 NBasis=   352 RedAO= T EigKep=  3.58D-05  NBF=   352
 NBsUse=   352 1.00D-06 EigRej= -1.00D+00 NBFU=   352
 The nuclear repulsion energy is now       479.6128642878 hartrees.
 ExpMin= 9.52D-02 ExpMax= 2.70D+04 ExpMxC= 9.22D+02 IAcc=3 IRadAn=         5 AccDes= 0.00D+00
 Harris functional with IExCor=  402 and IRadAn=       5 diagonalized for initial guess.
 HarFok:  IExCor=  402 AccDes= 0.00D+00 IRadAn=         5 IDoV= 1 UseB2=F ITyADJ=14
 ICtDFT=  3500011 ScaDFX=  1.000000  1.000000  1.000000  1.000000
 FoFCou: FMM=F IPFlag=           0 FMFlag=      100000 FMFlg1=           0
         NFxFlg=           0 DoJE=T BraDBF=F KetDBF=T FulRan=T
         wScrn=  0.000000 ICntrl=       500 IOpCl=  0 I1Cent=   200000004 NGrid=           0
         NMat0=    1 NMatS0=      1 NMatT0=    0 NMatD0=    1 NMtDS0=    0 NMtDT0=    0
 Symmetry not used in FoFCou.
 Requested convergence on RMS density matrix=1.00D-08 within 128 cycles.
 Requested convergence on MAX density matrix=1.00D-06.
 Requested convergence on             energy=1.00D-06.
 No special actions if energy rises.
 Integral accuracy reduced to 1.0D-05 until final iterations.
 Initial convergence to 1.0D-05 achieved.  Increase integral accuracy.
 SCF Done:  E(RB3LYP) =  -439.138921448     A.U. after   15 cycles
            NFock= 15  Conv=0.85D-08     -V/T= 2.0049
 DoSCS=F DFT=T ScalE2(SS,OS)=  1.000000  1.000000
 Range of M.O.s used for correlation:     1   352
 NBasis=   352 NAE=    35 NBE=    35 NFC=     0 NFV=     0
 NROrb=    352 NOA=    35 NOB=    35 NVA=   317 NVB=   317

 **** Warning!!: The largest alpha MO coefficient is  0.27199564D+02

   1 Symmetry operations used in ECPInt.
 ECPInt:  NShTT=    9591 NPrTT=   29644 LenC2=    9332 LenP2D=   22719.
 LDataN:  DoStor=T MaxTD1= 7 Len=  274
 Symmetrizing basis deriv contribution to polar:
 IMax=3 JMax=2 DiffMx= 0.00D+00
 G2DrvN: will do    18 centers at a time, making    1 passes.
 Calling FoFCou, ICntrl=  3107 FMM=F I1Cent=   0 AccDes= 0.00D+00.
 End of G2Drv F.D. properties file   721 does not exist.
 End of G2Drv F.D. properties file   722 does not exist.
 End of G2Drv F.D. properties file   788 does not exist.
          IDoAtm=11111111111111111
          Differentiating once with respect to nuclear coordinates.
 CalDSu exits because no D1Ps are significant.
          There are    54 degrees of freedom in the 1st order CPHF.  IDoFFX=6 NUNeed=     0.
     48 vectors produced by pass  0 Test12= 2.05D-14 1.85D-09 XBig12= 1.73D-01 1.57D-01.
 AX will form    48 AO Fock derivatives at one time.
     48 vectors produced by pass  1 Test12= 2.05D-14 1.85D-09 XBig12= 4.26D-02 7.37D-02.
     48 vectors produced by pass  2 Test12= 2.05D-14 1.85D-09 XBig12= 8.38D-04 3.37D-03.
     48 vectors produced by pass  3 Test12= 2.05D-14 1.85D-09 XBig12= 3.60D-06 2.04D-04.
     48 vectors produced by pass  4 Test12= 2.05D-14 1.85D-09 XBig12= 1.20D-08 1.39D-05.
     48 vectors produced by pass  5 Test12= 2.05D-14 1.85D-09 XBig12= 2.43D-11 6.85D-07.
     22 vectors produced by pass  6 Test12= 2.05D-14 1.85D-09 XBig12= 4.07D-14 2.51D-08.
 InvSVY:  IOpt=1 It=  1 EMax= 4.44D-16
 Solved reduced A of dimension   310 with    54 vectors.
 End of Minotr F.D. properties file   721 does not exist.
 End of Minotr F.D. properties file   722 does not exist.
 End of Minotr F.D. properties file   788 does not exist.
   1 Symmetry operations used in ECPInt.
 ECPInt:  NShTT=    9591 NPrTT=   29644 LenC2=    9332 LenP2D=   22719.
 LDataN:  DoStor=T MaxTD1= 8 Len=  415
 Calling FoFJK, ICntrl=    100147 FMM=F ISym2X=0 I1Cent= 0 IOpClX= 0 NMat=1 NMatS=1 NMatT=0.
 -------------------------------------------------------------------
 Center     Atomic                   Forces (Hartrees/Bohr)
 Number     Number              X              Y              Z
 -------------------------------------------------------------------
      1        6           0.000562201   -0.000073223   -0.002272574
      2        6           0.000748186    0.000118472    0.002113651
      3        6           0.000868372   -0.000182687    0.005789327
      4        1          -0.000339558    0.000020381    0.000032343
      5        8           0.000126565    0.000061532   -0.004502278
      6        6          -0.001306166    0.000336942   -0.000568235
      7        1           0.000041354   -0.000063619    0.000211778
      8        6           0.001244489    0.000924377    0.000813272
      9        1           0.000070240   -0.000265057   -0.000075049
     10        6          -0.001240215    0.000145399   -0.001558050
     11        7          -0.001180237   -0.000465801   -0.001256466
     12        1           0.000248825   -0.000317509    0.000335851
     13        6          -0.000014108    0.000386883   -0.000255444
     14        6          -0.000469803    0.000016260    0.000088213
     15        1           0.000422932   -0.000243181    0.000689722
     16        1           0.000144853   -0.000150431    0.000208299
     17        1           0.000072070   -0.000248740    0.000205640
 -------------------------------------------------------------------
 Cartesian Forces:  Max     0.005789327 RMS     0.001247599
 -----------------------------------------------------------------------------------------------
                       Internal Coordinate Forces (Hartree/Bohr or radian)
  Cent   Atom   N1       Length/X         N2         Alpha/Y        N3         Beta/Z          J
 -----------------------------------------------------------------------------------------------
      1  C 
      2  C        1   0.000953(     1)
      3  C        1  -0.000000(     2)      2  -0.001582(    17)
      4  H        1   0.000279(     3)      2  -0.000383(    18)      3  -0.000112(    32)     0
      5  O        3   0.004344(     4)      1  -0.002645(    19)      2   0.000150(    33)     0
      6  C        2  -0.002424(     5)      1  -0.004928(    20)      3  -0.000957(    34)     0
      7  H        2   0.000048(     6)      1   0.000432(    21)      6   0.000113(    35)     0
      8  C        6  -0.000399(     7)      2  -0.005201(    22)      1   0.001095(    36)     0
      9  H        6  -0.000120(     8)      2   0.000152(    23)      8   0.000435(    37)     0
     10  C        8   0.000917(     9)      6  -0.002056(    24)      2   0.002342(    38)     0
     11  N        8  -0.001488(    10)      6   0.000730(    25)     10   0.002081(    39)     0
     12  H       10   0.000103(    11)      8  -0.000421(    26)      6  -0.001100(    40)     0
     13  C       10   0.000201(    12)      8  -0.000431(    27)     12  -0.000265(    41)     0
     14  C       11  -0.000483(    13)      8  -0.000321(    28)      6   0.000545(    42)     0
     15  H       11   0.000404(    14)      8   0.000484(    29)     14   0.001095(    43)     0
     16  H       13  -0.000059(    15)     10   0.000215(    30)      8  -0.000440(    44)     0
     17  H       14  -0.000022(    16)     11  -0.000160(    31)      8   0.000562(    45)     0
 -----------------------------------------------------------------------------------------------
 Internal  Forces:  Max     0.005201217 RMS     0.001574763

 GradGradGradGradGradGradGradGradGradGradGradGradGradGradGradGradGradGrad
 Berny optimization.
 Search for a saddle point.
 Step number   1 out of a maximum of   55
 All quantities printed in internal units (Hartrees-Bohrs-Radians)
 Swapping is turned off.
 Second derivative matrix not updated -- analytic derivatives used.
 ITU=  0
     Eigenvalues ---   -0.20115   0.01565   0.01759   0.02166   0.02976
     Eigenvalues ---    0.04456   0.04933   0.05340   0.06609   0.07378
     Eigenvalues ---    0.11215   0.14042   0.15618   0.15955   0.16865
     Eigenvalues ---    0.18923   0.19015   0.19844   0.21919   0.25268
     Eigenvalues ---    0.30157   0.31979   0.33690   0.34203   0.34843
     Eigenvalues ---    0.35043   0.35442   0.35821   0.36952   0.37270
     Eigenvalues ---    0.37478   0.39459   0.41175   0.44752   0.46790
     Eigenvalues ---    0.48294   0.50441   0.57715   0.65643   0.77546
     Eigenvalues ---    0.89327   1.51897   2.01007   2.08108  25.56987
 Eigenvectors required to have negative eigenvalues:
                          A5        D12       A8        D13       R3
   1                    0.62544   0.29965   0.29383  -0.24352  -0.22474
                          A3        A10       A11       A12       A6
   1                    0.21137   0.17418  -0.17378   0.17007   0.15482
 RFO step:  Lambda0=1.820091720D-04 Lambda=-2.57512841D-04.
 Linear search not attempted -- option 19 set.
 Variable       Old X    -DE/DX   Delta X   Delta X   Delta X     New X
                                 (Linear)    (Quad)   (Total)
    R2        2.67567   0.00095   0.00000   0.00904   0.00904   2.68471
    R3        2.60020  -0.00000   0.00000  -0.00756  -0.00756   2.59263
    R4        2.05136   0.00028   0.00000   0.00128   0.00128   2.05264
    R5        2.22886   0.00434   0.00000   0.00229   0.00229   2.23114
    R6        2.58735  -0.00242   0.00000  -0.00754  -0.00754   2.57981
    R7        2.04889   0.00005   0.00000  -0.00020  -0.00020   2.04869
    R8        2.67657  -0.00040   0.00000   0.00575   0.00575   2.68232
    R9        2.04401  -0.00012   0.00000  -0.00005  -0.00005   2.04397
   R10        2.67511   0.00092   0.00000  -0.00246  -0.00246   2.67266
   R11        2.57220  -0.00149   0.00000  -0.00304  -0.00304   2.56916
   R12        2.04713   0.00010   0.00000  -0.00101  -0.00101   2.04612
   R13        2.72879   0.00020   0.00000  -0.00403  -0.00403   2.72477
   R14        2.62913  -0.00048   0.00000  -0.00449  -0.00449   2.62464
   R15        1.90103   0.00040   0.00000   0.00065   0.00065   1.90168
   R16        2.03491  -0.00006   0.00000  -0.00014  -0.00014   2.03477
   R17        2.03503  -0.00002   0.00000  -0.00014  -0.00014   2.03489
    A3        2.22910  -0.00158   0.00000   0.00678   0.00678   2.23588
    A4        2.06330  -0.00038   0.00000  -0.00534  -0.00534   2.05796
    A5        2.52412  -0.00265   0.00000   0.00954   0.00954   2.53366
    A6        2.22596  -0.00493   0.00000  -0.00245  -0.00245   2.22351
    A7        2.00723   0.00043   0.00000   0.00111   0.00111   2.00834
    A8        2.05868  -0.00520   0.00000   0.00493   0.00493   2.06361
    A9        2.10069   0.00015   0.00000   0.00136   0.00136   2.10205
   A10        2.18759  -0.00206   0.00000   0.00521   0.00521   2.19280
   A11        2.21429   0.00073   0.00000  -0.00348  -0.00348   2.21081
   A12        2.09800  -0.00042   0.00000   0.00615   0.00615   2.10415
   A13        1.86174  -0.00043   0.00000   0.00065   0.00065   1.86239
   A14        1.92277  -0.00032   0.00000   0.00176   0.00176   1.92453
   A15        2.16749   0.00048   0.00000   0.00541   0.00541   2.17290
   A16        2.20732   0.00021   0.00000   0.00200   0.00200   2.20933
   A17        2.10353  -0.00016   0.00000   0.00067   0.00067   2.10420
    D4       -2.89903  -0.00011   0.00000   0.01971   0.01971  -2.87932
    D5        3.12580   0.00015   0.00000   0.01390   0.01390   3.13970
    D6        0.03169  -0.00096   0.00000  -0.02590  -0.02590   0.00579
    D7        3.04630   0.00011   0.00000   0.01306   0.01306   3.05936
    D8       -0.01637   0.00109   0.00000   0.00018   0.00018  -0.01619
    D9        2.98709   0.00044   0.00000   0.02055   0.02055   3.00764
   D10       -0.46513   0.00234   0.00000   0.00262   0.00262  -0.46251
   D11        2.95525   0.00208   0.00000   0.01038   0.01038   2.96564
   D12       -0.77008  -0.00110   0.00000   0.02788   0.02788  -0.74220
   D13       -2.52914  -0.00027   0.00000  -0.01673  -0.01673  -2.54587
   D14       -2.97043   0.00055   0.00000  -0.01563  -0.01563  -2.98606
   D15        2.94468   0.00110   0.00000   0.05178   0.05178   2.99646
   D16        3.11622  -0.00044   0.00000  -0.01045  -0.01045   3.10578
   D17        3.12366   0.00056   0.00000   0.01383   0.01383   3.13750
         Item               Value     Threshold  Converged?
 Maximum Force            0.005201     0.000450     NO 
 RMS     Force            0.001575     0.000300     NO 
 Maximum Displacement     0.051778     0.001800     NO 
 RMS     Displacement     0.012333     0.001200     NO 
 Predicted change in Energy=-3.843910D-05
 GradGradGradGradGradGradGradGradGradGradGradGradGradGradGradGradGradGrad

 ---------------------------------------------------------------------------------------------------
                            Z-MATRIX (ANGSTROMS AND DEGREES)
   CD    Cent   Atom    N1       Length/X        N2       Alpha/Y        N3        Beta/Z          J
 ---------------------------------------------------------------------------------------------------
      1      1  C 
      2      2  C        1   1.420688(     1)
      3      3  C        1   1.371961(     2)      2  128.107(    17)
      4      4  H        1   1.086210(     3)      2  117.912(    18)      3 -164.973(    32)      0
      5      5  O        3   1.180670(     4)      1  145.168(    19)      2  179.891(    33)      0
      6      6  C        2   1.365176(     5)      1  127.398(    20)      3    0.332(    34)      0
      7      7  H        2   1.084120(     6)      1  115.070(    21)      6  175.288(    35)      0
      8      8  C        6   1.419423(     7)      2  118.236(    22)      1   -0.928(    36)      0
      9      9  H        6   1.081621(     8)      2  120.438(    23)      8  172.325(    37)      0
     10     10  C        8   1.414310(     9)      6  125.638(    24)      2  -26.500(    38)      0
     11     11  N        8   1.359540(    10)      6  126.670(    25)     10  169.919(    39)      0
     12     12  H       10   1.082758(    11)      8  120.559(    26)      6  -42.525(    40)      0
     13     13  C       10   1.441886(    12)      8  106.707(    27)     12 -145.868(    41)      0
     14     14  C       11   1.388900(    13)      8  110.267(    28)      6 -171.089(    42)      0
     15     15  H       11   1.006324(    14)      8  124.498(    29)     14  171.684(    43)      0
     16     16  H       13   1.076755(    15)     10  126.585(    30)      8  177.948(    44)      0
     17     17  H       14   1.076818(    16)     11  120.562(    31)      8  179.765(    45)      0
 ---------------------------------------------------------------------------------------------------
                         Z-Matrix orientation:                         
 ---------------------------------------------------------------------
 Center     Atomic      Atomic             Coordinates (Angstroms)
 Number     Number       Type             X           Y           Z
 ---------------------------------------------------------------------
      1          6           0        0.000000    0.000000    0.000000
      2          6           0        0.000000    0.000000    1.420688
      3          6           0        1.079545    0.000000   -0.846675
      4          1           0       -0.927022    0.248868   -0.508475
      5          8           0        1.425952   -0.001278   -1.975384
      6          6           0        1.084531    0.006280    2.249819
      7          1           0       -0.979121    0.074991    1.880051
      8          6           0        2.377519   -0.006478    1.664345
      9          1           0        0.959045    0.145046    3.315136
     10          6           0        2.701733   -0.537045    0.394047
     11          7           0        3.481004    0.644844    2.118711
     12          1           0        2.284407   -1.481878    0.069251
     13          6           0        4.067175   -0.160739    0.123870
     14          6           0        4.506499    0.562616    1.185628
     15          1           0        3.505046    1.216139    2.946801
     16          1           0        4.645973   -0.425469   -0.744642
     17          1           0        5.458997    1.027205    1.376521
 ---------------------------------------------------------------------
                    Distance matrix (angstroms):
                    1          2          3          4          5
     1  C    0.000000
     2  C    1.420688   0.000000
     3  C    1.371961   2.511245   0.000000
     4  H    1.086210   2.154756   2.050031   0.000000
     5  O    2.436284   3.683292   1.180670   2.784040   0.000000
     6  C    2.497585   1.365176   3.096504   3.422481   4.238981
     7  H    2.121060   1.084120   3.417421   2.395413   4.544730
     8  C    2.902186   2.389981   2.826659   3.963123   3.762065
     9  H    3.454118   2.128318   4.166081   4.264742   5.313098
    10  C    2.782634   2.939689   2.111706   3.821004   2.743878
    11  N    4.125791   3.608386   3.869928   5.146804   4.626264
    12  H    2.723834   3.039878   2.118154   3.693579   2.666394
    13  C    4.072235   4.271942   3.145430   5.050707   3.377626
    14  C    4.693696   4.547562   4.023779   5.700137   4.449690
    15  H    4.737929   4.011653   4.663958   5.702435   5.480204
    16  H    4.724466   5.143417   3.593165   5.618609   3.473212
    17  H    5.722815   5.554976   5.017704   6.703750   5.344015
                    6          7          8          9         10
     6  C    0.000000
     7  H    2.097644   0.000000
     8  C    1.419423   3.364551   0.000000
     9  H    1.081621   2.412646   2.181774   0.000000
    10  C    2.520800   4.016402   1.414310   3.469145   0.000000
    11  N    2.483554   4.502711   1.359540   2.835756   2.231275
    12  H    2.899860   4.043940   2.174810   3.865130   1.082758
    13  C    3.666568   5.348350   2.291680   4.465217   1.441886
    14  C    3.626552   5.550858   2.255126   4.158558   2.256775
    15  H    2.794358   4.748466   2.100191   2.786581   3.199299
    16  H    4.673015   6.227452   3.335364   5.513684   2.255910
    17  H    4.576122   6.527605   3.262951   4.978555   3.318831
                   11         12         13         14         15
    11  N    0.000000
    12  H    3.186703   0.000000
    13  C    2.229787   2.219607   0.000000
    14  C    1.388900   3.219308   1.357784   0.000000
    15  H    1.006324   4.129109   3.190724   2.128786   0.000000
    16  H    3.271316   2.712087   1.076755   2.172948   4.198015
    17  H    2.146975   4.252350   2.217547   1.076818   2.513842
                   16         17
    16  H    0.000000
    17  H    2.696405   0.000000
 Symmetry turned off by external request.
 Stoichiometry    C8H7NO
 Framework group  C1[X(C8H7NO)]
 Deg. of freedom    45
 Full point group                 C1      NOp   1
 Rotational constants (GHZ):           2.1610742           1.3580147           0.8747965
 Standard basis: def2TZVP (5D, 7F)
 The following finite field(s) will be applied:
 An electric field of             -0.0015  0.0005 -0.0020
   352 basis functions,   566 primitive gaussians,   402 cartesian basis functions
    35 alpha electrons       35 beta electrons
       nuclear repulsion energy       479.4844072117 Hartrees.
 NAtoms=   17 NActive=   17 NUniq=   17 SFac= 1.00D+00 NAtFMM=   60 NAOKFM=F Big=F
 Integral buffers will be    131072 words long.
 Raffenetti 2 integral format.
 Two-electron integral symmetry is turned off.
 One-electron integrals computed using PRISM.
   1 Symmetry operations used in ECPInt.
 ECPInt:  NShTT=    9591 NPrTT=   29644 LenC2=    9331 LenP2D=   22706.
 LDataN:  DoStor=T MaxTD1= 6 Len=  172
 NBasis=   352 RedAO= T EigKep=  3.67D-05  NBF=   352
 NBsUse=   352 1.00D-06 EigRej= -1.00D+00 NBFU=   352
 The nuclear repulsion energy is now       478.9218021001 hartrees.
 Initial guess from the checkpoint file:  "checkpoint.chk"
 B after Tr=     0.009394    0.034411    0.002265
         Rot=    0.999875   -0.005741    0.001286    0.014684 Ang=  -1.81 deg.
 ExpMin= 9.52D-02 ExpMax= 2.70D+04 ExpMxC= 9.22D+02 IAcc=2 IRadAn=         4 AccDes= 0.00D+00
 Harris functional with IExCor=  402 and IRadAn=       4 diagonalized for initial guess.
 HarFok:  IExCor=  402 AccDes= 0.00D+00 IRadAn=         4 IDoV= 1 UseB2=F ITyADJ=14
 ICtDFT=  3500011 ScaDFX=  1.000000  1.000000  1.000000  1.000000
 FoFCou: FMM=F IPFlag=           0 FMFlag=      100000 FMFlg1=           0
         NFxFlg=           0 DoJE=T BraDBF=F KetDBF=T FulRan=T
         wScrn=  0.000000 ICntrl=       500 IOpCl=  0 I1Cent=   200000004 NGrid=           0
         NMat0=    1 NMatS0=      1 NMatT0=    0 NMatD0=    1 NMtDS0=    0 NMtDT0=    0
 Symmetry not used in FoFCou.
 Requested convergence on RMS density matrix=1.00D-08 within 128 cycles.
 Requested convergence on MAX density matrix=1.00D-06.
 Requested convergence on             energy=1.00D-06.
 No special actions if energy rises.
 Integral accuracy reduced to 1.0D-05 until final iterations.
 Initial convergence to 1.0D-05 achieved.  Increase integral accuracy.
 SCF Done:  E(RB3LYP) =  -439.138959378     A.U. after   12 cycles
            NFock= 12  Conv=0.82D-08     -V/T= 2.0049
   1 Symmetry operations used in ECPInt.
 ECPInt:  NShTT=    9591 NPrTT=   29644 LenC2=    9331 LenP2D=   22706.
 LDataN:  DoStor=T MaxTD1= 7 Len=  274
 Calling FoFJK, ICntrl=      2127 FMM=F ISym2X=0 I1Cent= 0 IOpClX= 0 NMat=1 NMatS=1 NMatT=0.
 -------------------------------------------------------------------
 Center     Atomic                   Forces (Hartrees/Bohr)
 Number     Number              X              Y              Z
 -------------------------------------------------------------------
      1        6          -0.000414498    0.001307383    0.000022575
      2        6           0.000287520   -0.000862914   -0.000041033
      3        6           0.000039038   -0.000414376    0.000039504
      4        1          -0.000010816   -0.000011095    0.000002410
      5        8           0.000028064   -0.000014134   -0.000025096
      6        6           0.000118317   -0.000001513    0.000028882
      7        1          -0.000003368    0.000003105   -0.000003101
      8        6          -0.000088818   -0.000017808    0.000018186
      9        1          -0.000011730    0.000011799    0.000001085
     10        6          -0.000024103   -0.000029146   -0.000108365
     11        7           0.000107351    0.000087940    0.000100319
     12        1          -0.000008650   -0.000008388    0.000006644
     13        6           0.000040879   -0.000026504   -0.000040483
     14        6          -0.000000862   -0.000005247   -0.000028512
     15        1          -0.000052176   -0.000013908    0.000029318
     16        1          -0.000007598   -0.000002440   -0.000007909
     17        1           0.000001450   -0.000002754    0.000005575
 -------------------------------------------------------------------
 Cartesian Forces:  Max     0.001307383 RMS     0.000241009
 -----------------------------------------------------------------------------------------------
                       Internal Coordinate Forces (Hartree/Bohr or radian)
  Cent   Atom   N1       Length/X         N2         Alpha/Y        N3         Beta/Z          J
 -----------------------------------------------------------------------------------------------
      1  C 
      2  C        1  -0.000039(     1)
      3  C        1   0.000044(     2)      2  -0.000180(    17)
      4  H        1   0.000006(     3)      2  -0.000012(    18)      3  -0.000025(    32)     0
      5  O        3   0.000032(     4)      1   0.000043(    19)      2  -0.000018(    33)     0
      6  C        2   0.000062(     5)      1  -0.000187(    20)      3  -0.000118(    34)     0
      7  H        2   0.000002(     6)      1  -0.000009(    21)      6  -0.000005(    35)     0
      8  C        6  -0.000019(     7)      2  -0.000106(    22)      1  -0.000054(    36)     0
      9  H        6   0.000004(     8)      2  -0.000025(    23)      8  -0.000019(    37)     0
     10  C        8   0.000160(     9)      6  -0.000283(    24)      2   0.000065(    38)     0
     11  N        8   0.000113(    10)      6  -0.000265(    25)     10   0.000072(    39)     0
     12  H       10   0.000009(    11)      8  -0.000022(    26)      6   0.000035(    40)     0
     13  C       10   0.000033(    12)      8   0.000170(    27)     12   0.000034(    41)     0
     14  C       11   0.000016(    13)      8  -0.000039(    28)      6   0.000027(    42)     0
     15  H       11   0.000015(    14)      8  -0.000110(    29)     14   0.000022(    43)     0
     16  H       13   0.000003(    15)     10  -0.000020(    30)      8   0.000007(    44)     0
     17  H       14   0.000001(    16)     11  -0.000007(    31)      8   0.000009(    45)     0
 -----------------------------------------------------------------------------------------------
 Internal  Forces:  Max     0.000282897 RMS     0.000088833

 GradGradGradGradGradGradGradGradGradGradGradGradGradGradGradGradGradGrad
 Berny optimization.
 Search for a saddle point.
 Step number   2 out of a maximum of   55
 All quantities printed in internal units (Hartrees-Bohrs-Radians)
 Swapping is turned off.
 Update second derivatives using D2CorN and points    1    2
 ITU=  0  0
     Eigenvalues ---   -0.20062   0.01554   0.01766   0.02164   0.02971
     Eigenvalues ---    0.04456   0.04933   0.05341   0.06608   0.07379
     Eigenvalues ---    0.11197   0.14041   0.15618   0.15955   0.16867
     Eigenvalues ---    0.18923   0.19016   0.19843   0.21922   0.25268
     Eigenvalues ---    0.30158   0.31981   0.33690   0.34203   0.34843
     Eigenvalues ---    0.35041   0.35442   0.35822   0.36955   0.37270
     Eigenvalues ---    0.37478   0.39462   0.41174   0.44752   0.46791
     Eigenvalues ---    0.48295   0.50441   0.57718   0.65643   0.77541
     Eigenvalues ---    0.89325   1.51896   2.01002   2.08107  25.56987
 Eigenvectors required to have negative eigenvalues:
                          A5        D12       A8        D13       R3
   1                    0.62596   0.29918   0.29388  -0.24341  -0.22461
                          A3        A10       A11       A12       A6
   1                    0.21115   0.17415  -0.17400   0.17001   0.15473
 RFO step:  Lambda0=7.833102933D-08 Lambda=-4.43844227D-07.
 Linear search not attempted -- option 19 set.
 Variable       Old X    -DE/DX   Delta X   Delta X   Delta X     New X
                                 (Linear)    (Quad)   (Total)
    R2        2.68471  -0.00004   0.00000   0.00004   0.00004   2.68475
    R3        2.59263   0.00004   0.00000   0.00009   0.00009   2.59272
    R4        2.05264   0.00001   0.00000   0.00002   0.00002   2.05266
    R5        2.23114   0.00003   0.00000  -0.00005  -0.00005   2.23110
    R6        2.57981   0.00006   0.00000   0.00014   0.00014   2.57994
    R7        2.04869   0.00000   0.00000  -0.00001  -0.00001   2.04868
    R8        2.68232  -0.00002   0.00000  -0.00008  -0.00008   2.68224
    R9        2.04397   0.00000   0.00000   0.00002   0.00002   2.04399
   R10        2.67266   0.00016   0.00000   0.00005   0.00005   2.67271
   R11        2.56916   0.00011   0.00000   0.00028   0.00028   2.56944
   R12        2.04612   0.00001   0.00000  -0.00001  -0.00001   2.04610
   R13        2.72477   0.00003   0.00000  -0.00002  -0.00002   2.72475
   R14        2.62464   0.00002   0.00000   0.00003   0.00003   2.62468
   R15        1.90168   0.00001   0.00000   0.00002   0.00002   1.90170
   R16        2.03477   0.00000   0.00000   0.00000   0.00000   2.03478
   R17        2.03489   0.00000   0.00000   0.00001   0.00001   2.03490
    A3        2.23588  -0.00018   0.00000  -0.00008  -0.00008   2.23580
    A4        2.05796  -0.00001   0.00000  -0.00008  -0.00008   2.05788
    A5        2.53366   0.00004   0.00000   0.00036   0.00036   2.53402
    A6        2.22351  -0.00019   0.00000  -0.00007  -0.00007   2.22344
    A7        2.00834  -0.00001   0.00000   0.00001   0.00001   2.00836
    A8        2.06361  -0.00011   0.00000   0.00023   0.00023   2.06384
    A9        2.10205  -0.00003   0.00000  -0.00022  -0.00022   2.10183
   A10        2.19280  -0.00028   0.00000   0.00020   0.00020   2.19300
   A11        2.21081  -0.00027   0.00000  -0.00021  -0.00021   2.21059
   A12        2.10415  -0.00002   0.00000   0.00009   0.00009   2.10425
   A13        1.86239   0.00017   0.00000  -0.00001  -0.00001   1.86238
   A14        1.92453  -0.00004   0.00000  -0.00016  -0.00016   1.92437
   A15        2.17290  -0.00011   0.00000  -0.00041  -0.00041   2.17249
   A16        2.20933  -0.00002   0.00000  -0.00004  -0.00004   2.20928
   A17        2.10420  -0.00001   0.00000  -0.00004  -0.00004   2.10416
    D4       -2.87932  -0.00002   0.00000   0.00117   0.00117  -2.87814
    D5        3.13970  -0.00002   0.00000   0.00077   0.00077   3.14046
    D6        0.00579  -0.00012   0.00000  -0.00163  -0.00163   0.00416
    D7        3.05936  -0.00001   0.00000   0.00018   0.00018   3.05954
    D8       -0.01619  -0.00005   0.00000  -0.00017  -0.00017  -0.01636
    D9        3.00764  -0.00002   0.00000   0.00003   0.00003   3.00767
   D10       -0.46251   0.00006   0.00000   0.00058   0.00058  -0.46193
   D11        2.96564   0.00007   0.00000   0.00043   0.00043   2.96607
   D12       -0.74220   0.00003   0.00000   0.00086   0.00086  -0.74134
   D13       -2.54587   0.00003   0.00000  -0.00050  -0.00050  -2.54637
   D14       -2.98606   0.00003   0.00000  -0.00037  -0.00037  -2.98644
   D15        2.99646   0.00002   0.00000   0.00039   0.00039   2.99685
   D16        3.10578   0.00001   0.00000   0.00004   0.00004   3.10582
   D17        3.13750   0.00001   0.00000   0.00016   0.00016   3.13765
         Item               Value     Threshold  Converged?
 Maximum Force            0.000283     0.000450     YES
 RMS     Force            0.000089     0.000300     YES
 Maximum Displacement     0.001633     0.001800     YES
 RMS     Displacement     0.000400     0.001200     YES
 Predicted change in Energy=-1.827566D-07
 Optimization completed.
    -- Stationary point found.
                       ----------------------------
                       !   Optimized Parameters   !
                       ! (Angstroms and Degrees)  !
 ----------------------                            ----------------------
 !      Name          Value   Derivative information (Atomic Units)     !
 ------------------------------------------------------------------------
 !       R2          1.4207   -DE/DX =    0.0                           !
 !       R3          1.372    -DE/DX =    0.0                           !
 !       R4          1.0862   -DE/DX =    0.0                           !
 !       R5          1.1807   -DE/DX =    0.0                           !
 !       R6          1.3652   -DE/DX =    0.0001                        !
 !       R7          1.0841   -DE/DX =    0.0                           !
 !       R8          1.4194   -DE/DX =    0.0                           !
 !       R9          1.0816   -DE/DX =    0.0                           !
 !       R10         1.4143   -DE/DX =    0.0002                        !
 !       R11         1.3595   -DE/DX =    0.0001                        !
 !       R12         1.0828   -DE/DX =    0.0                           !
 !       R13         1.4419   -DE/DX =    0.0                           !
 !       R14         1.3889   -DE/DX =    0.0                           !
 !       R15         1.0063   -DE/DX =    0.0                           !
 !       R16         1.0768   -DE/DX =    0.0                           !
 !       R17         1.0768   -DE/DX =    0.0                           !
 !       A3        128.1067   -DE/DX =   -0.0002                        !
 !       A4        117.9122   -DE/DX =    0.0                           !
 !       A5        145.1681   -DE/DX =    0.0                           !
 !       A6        127.3977   -DE/DX =   -0.0002                        !
 !       A7        115.0697   -DE/DX =    0.0                           !
 !       A8        118.2363   -DE/DX =   -0.0001                        !
 !       A9        120.4385   -DE/DX =    0.0                           !
 !       A10       125.6381   -DE/DX =   -0.0003                        !
 !       A11       126.67     -DE/DX =   -0.0003                        !
 !       A12       120.5591   -DE/DX =    0.0                           !
 !       A13       106.707    -DE/DX =    0.0002                        !
 !       A14       110.2675   -DE/DX =    0.0                           !
 !       A15       124.498    -DE/DX =   -0.0001                        !
 !       A16       126.585    -DE/DX =    0.0                           !
 !       A17       120.5618   -DE/DX =    0.0                           !
 !       D4       -164.9727   -DE/DX =    0.0                           !
 !       D5        179.8914   -DE/DX =    0.0                           !
 !       D6          0.3317   -DE/DX =   -0.0001                        !
 !       D7        175.2885   -DE/DX =    0.0                           !
 !       D8         -0.9276   -DE/DX =   -0.0001                        !
 !       D9        172.325    -DE/DX =    0.0                           !
 !       D10       -26.4999   -DE/DX =    0.0001                        !
 !       D11       169.9185   -DE/DX =    0.0001                        !
 !       D12       -42.5247   -DE/DX =    0.0                           !
 !       D13      -145.8676   -DE/DX =    0.0                           !
 !       D14      -171.0888   -DE/DX =    0.0                           !
 !       D15       171.6844   -DE/DX =    0.0                           !
 !       D16       177.9478   -DE/DX =    0.0                           !
 !       D17       179.7653   -DE/DX =    0.0                           !
 ------------------------------------------------------------------------
 GradGradGradGradGradGradGradGradGradGradGradGradGradGradGradGradGradGrad

 ---------------------------------------------------------------------------------------------------
                            Z-MATRIX (ANGSTROMS AND DEGREES)
   CD    Cent   Atom    N1       Length/X        N2       Alpha/Y        N3        Beta/Z          J
 ---------------------------------------------------------------------------------------------------
      1      1  C 
      2      2  C        1   1.420688(     1)
      3      3  C        1   1.371961(     2)      2  128.107(    17)
      4      4  H        1   1.086210(     3)      2  117.912(    18)      3 -164.973(    32)      0
      5      5  O        3   1.180670(     4)      1  145.168(    19)      2  179.891(    33)      0
      6      6  C        2   1.365176(     5)      1  127.398(    20)      3    0.332(    34)      0
      7      7  H        2   1.084120(     6)      1  115.070(    21)      6  175.288(    35)      0
      8      8  C        6   1.419423(     7)      2  118.236(    22)      1   -0.928(    36)      0
      9      9  H        6   1.081621(     8)      2  120.438(    23)      8  172.325(    37)      0
     10     10  C        8   1.414310(     9)      6  125.638(    24)      2  -26.500(    38)      0
     11     11  N        8   1.359540(    10)      6  126.670(    25)     10  169.919(    39)      0
     12     12  H       10   1.082758(    11)      8  120.559(    26)      6  -42.525(    40)      0
     13     13  C       10   1.441886(    12)      8  106.707(    27)     12 -145.868(    41)      0
     14     14  C       11   1.388900(    13)      8  110.267(    28)      6 -171.089(    42)      0
     15     15  H       11   1.006324(    14)      8  124.498(    29)     14  171.684(    43)      0
     16     16  H       13   1.076755(    15)     10  126.585(    30)      8  177.948(    44)      0
     17     17  H       14   1.076818(    16)     11  120.562(    31)      8  179.765(    45)      0
 ---------------------------------------------------------------------------------------------------
                         Z-Matrix orientation:                         
 ---------------------------------------------------------------------
 Center     Atomic      Atomic             Coordinates (Angstroms)
 Number     Number       Type             X           Y           Z
 ---------------------------------------------------------------------
      1          6           0        0.000000    0.000000    0.000000
      2          6           0        0.000000    0.000000    1.420688
      3          6           0        1.079545    0.000000   -0.846675
      4          1           0       -0.927022    0.248868   -0.508475
      5          8           0        1.425952   -0.001278   -1.975384
      6          6           0        1.084531    0.006280    2.249819
      7          1           0       -0.979121    0.074991    1.880051
      8          6           0        2.377519   -0.006478    1.664345
      9          1           0        0.959045    0.145046    3.315136
     10          6           0        2.701733   -0.537045    0.394047
     11          7           0        3.481004    0.644844    2.118711
     12          1           0        2.284407   -1.481878    0.069251
     13          6           0        4.067175   -0.160739    0.123870
     14          6           0        4.506499    0.562616    1.185628
     15          1           0        3.505046    1.216139    2.946801
     16          1           0        4.645973   -0.425469   -0.744642
     17          1           0        5.458997    1.027205    1.376521
 ---------------------------------------------------------------------
                    Distance matrix (angstroms):
                    1          2          3          4          5
     1  C    0.000000
     2  C    1.420688   0.000000
     3  C    1.371961   2.511245   0.000000
     4  H    1.086210   2.154756   2.050031   0.000000
     5  O    2.436284   3.683292   1.180670   2.784040   0.000000
     6  C    2.497585   1.365176   3.096504   3.422481   4.238981
     7  H    2.121060   1.084120   3.417421   2.395413   4.544730
     8  C    2.902186   2.389981   2.826659   3.963123   3.762065
     9  H    3.454118   2.128318   4.166081   4.264742   5.313098
    10  C    2.782634   2.939689   2.111706   3.821004   2.743878
    11  N    4.125791   3.608386   3.869928   5.146804   4.626264
    12  H    2.723834   3.039878   2.118154   3.693579   2.666394
    13  C    4.072235   4.271942   3.145430   5.050707   3.377626
    14  C    4.693696   4.547562   4.023779   5.700137   4.449690
    15  H    4.737929   4.011653   4.663958   5.702435   5.480204
    16  H    4.724466   5.143417   3.593165   5.618609   3.473212
    17  H    5.722815   5.554976   5.017704   6.703750   5.344015
                    6          7          8          9         10
     6  C    0.000000
     7  H    2.097644   0.000000
     8  C    1.419423   3.364551   0.000000
     9  H    1.081621   2.412646   2.181774   0.000000
    10  C    2.520800   4.016402   1.414310   3.469145   0.000000
    11  N    2.483554   4.502711   1.359540   2.835756   2.231275
    12  H    2.899860   4.043940   2.174810   3.865130   1.082758
    13  C    3.666568   5.348350   2.291680   4.465217   1.441886
    14  C    3.626552   5.550858   2.255126   4.158558   2.256775
    15  H    2.794358   4.748466   2.100191   2.786581   3.199299
    16  H    4.673015   6.227452   3.335364   5.513684   2.255910
    17  H    4.576122   6.527605   3.262951   4.978555   3.318831
                   11         12         13         14         15
    11  N    0.000000
    12  H    3.186703   0.000000
    13  C    2.229787   2.219607   0.000000
    14  C    1.388900   3.219308   1.357784   0.000000
    15  H    1.006324   4.129109   3.190724   2.128786   0.000000
    16  H    3.271316   2.712087   1.076755   2.172948   4.198015
    17  H    2.146975   4.252350   2.217547   1.076818   2.513842
                   16         17
    16  H    0.000000
    17  H    2.696405   0.000000
 Symmetry turned off by external request.
 Stoichiometry    C8H7NO
 Framework group  C1[X(C8H7NO)]
 Deg. of freedom    45
 Full point group                 C1      NOp   1
 Rotational constants (GHZ):           2.1610742           1.3580147           0.8747965
 1\1\GINC-BHC0108\FTS\RB3LYP\def2TZVP\C8H7N1O1\DHANAWAY\10-Jun-2022\1\\
 # Opt=(TS, CalcFC, noeigentest, Z-matrix, MaxStep=10) Field=read NoSym
 m B3LYP/Def2TZVP freq=noraman pop=none\\ts_zmat_initalOpt\\0,1\C\C,1,R
 2\C,1,R3,2,A3\H,1,R4,2,A4,3,D4,0\O,3,R5,1,A5,2,D5,0\C,2,R6,1,A6,3,D6,0
 \H,2,R7,1,A7,6,D7,0\C,6,R8,2,A8,1,D8,0\H,6,R9,2,A9,8,D9,0\C,8,R10,6,A1
 0,2,D10,0\N,8,R11,6,A11,10,D11,0\H,10,R12,8,A12,6,D12,0\C,10,R13,8,A13
 ,12,D13,0\C,11,R14,8,A14,6,D14,0\H,11,R15,8,A15,14,D15,0\H,13,R16,10,A
 16,8,D16,0\H,14,R17,11,A17,8,D17,0\\R2=1.42068751\R3=1.37196107\R4=1.0
 862098\R5=1.18067007\R6=1.36517574\R7=1.08412048\R8=1.41942287\R9=1.08
 162059\R10=1.41430988\R11=1.35953953\R12=1.08275759\R13=1.44188569\R14
 =1.38890049\R15=1.0063243\R16=1.07675451\R17=1.07681808\A3=128.1066832
 1\A4=117.9122406\A5=145.16814218\A6=127.39770108\A7=115.06967547\A8=11
 8.23625822\A9=120.43846683\A10=125.63811436\A11=126.67004751\A12=120.5
 5908128\A13=106.7070179\A14=110.26745063\A15=124.49798967\A16=126.5850
 0509\A17=120.56179594\D4=-164.97270346\D5=179.89143854\D6=0.33174767\D
 7=175.28849053\D8=-0.92758759\D9=172.32497997\D10=-26.4998703\D11=169.
 91851767\D12=-42.52474657\D13=-145.86759258\D14=-171.08878524\D15=171.
 68435355\D16=177.9478096\D17=179.76525879\\Version=ES64L-G16RevA.03\HF
 =-439.1389594\RMSD=8.172e-09\RMSF=2.410e-04\Dipole=0.767745,0.4072643,
 1.7144039\PG=C01 [X(C8H7N1O1)]\\@


 ABSOLUTISM, OBSOLETISM -- IF IT WORKS, IT'S OUT OF DATE

                          -- STAFFORD BEER
 Job cpu time:       0 days  2 hours 33 minutes 35.5 seconds.
 Elapsed time:       0 days  0 hours 12 minutes 49.1 seconds.
 File lengths (MBytes):  RWF=    183 Int=      0 D2E=      0 Chk=     32 Scr=      1
 Normal termination of Gaussian 16 at Fri Jun 10 03:07:13 2022.
 Link1:  Proceeding to internal job step number  2.
 --------------------------------------------------------------------
 #N Geom=AllCheck Guess=TCheck SCRF=Check GenChk RB3LYP/def2TZVP Freq
 --------------------------------------------------------------------
 1/5=1,8=10,10=4,11=1,29=7,30=1,38=1,40=1/1,3;
 2/12=2,15=1,40=1/2;
 3/5=44,7=101,11=2,14=-4,25=1,30=1,70=2,71=2,74=-5,116=1,140=1/1,2,3;
 4/5=101/1;
 5/5=2,38=6,98=1/2;
 8/6=4,10=90,11=11/1;
 11/6=1,8=1,9=11,15=111,16=1,31=1/1,2,10;
 10/6=1,31=1/2;
 7/8=1,10=1,25=1,30=1/1,2,3,16;
 1/5=1,8=10,10=4,11=1,30=1/3;
 99//99;
 Structure from the checkpoint file:  "checkpoint.chk"
 -----------------
 ts_zmat_initalOpt
 -----------------
 Charge =  0 Multiplicity = 1
 Z-Matrix found in chk file.
 C
 C,1,R2
 C,1,R3,2,A3
 H,1,R4,2,A4,3,D4,0
 O,3,R5,1,A5,2,D5,0
 C,2,R6,1,A6,3,D6,0
 H,2,R7,1,A7,6,D7,0
 C,6,R8,2,A8,1,D8,0
 H,6,R9,2,A9,8,D9,0
 C,8,R10,6,A10,2,D10,0
 N,8,R11,6,A11,10,D11,0
 H,10,R12,8,A12,6,D12,0
 C,10,R13,8,A13,12,D13,0
 C,11,R14,8,A14,6,D14,0
 H,11,R15,8,A15,14,D15,0
 H,13,R16,10,A16,8,D16,0
 H,14,R17,11,A17,8,D17,0
      Variables:
 R2=1.42068751
 R3=1.37196107
 R4=1.0862098
 R5=1.18067007
 R6=1.36517574
 R7=1.08412048
 R8=1.41942287
 R9=1.08162059
 R10=1.41430988
 R11=1.35953953
 R12=1.08275759
 R13=1.44188569
 R14=1.38890049
 R15=1.0063243
 R16=1.07675451
 R17=1.07681808
 A3=128.10668321
 A4=117.9122406
 A5=145.16814218
 A6=127.39770108
 A7=115.06967547
 A8=118.23625822
 A9=120.43846683
 A10=125.63811436
 A11=126.67004751
 A12=120.55908128
 A13=106.7070179
 A14=110.26745063
 A15=124.49798967
 A16=126.58500509
 A17=120.56179594
 D4=-164.97270346
 D5=179.89143854
 D6=0.33174767
 D7=175.28849053
 D8=-0.92758759
 D9=172.32497997
 D10=-26.4998703
 D11=169.91851767
 D12=-42.52474657
 D13=-145.86759258
 D14=-171.08878524
 D15=171.68435355
 D16=177.9478096
 D17=179.76525879
 Recover connectivity data from disk.

 GradGradGradGradGradGradGradGradGradGradGradGradGradGradGradGradGradGrad
 Berny optimization.
 Initialization pass.
                       ----------------------------
                       !    Initial Parameters    !
                       ! (Angstroms and Degrees)  !
 ----------------------                            ----------------------
 !      Name          Value   Derivative information (Atomic Units)     !
 ------------------------------------------------------------------------
 !       R2          1.4207   calculate D2E/DX2 analytically            !
 !       R3          1.372    calculate D2E/DX2 analytically            !
 !       R4          1.0862   calculate D2E/DX2 analytically            !
 !       R5          1.1807   calculate D2E/DX2 analytically            !
 !       R6          1.3652   calculate D2E/DX2 analytically            !
 !       R7          1.0841   calculate D2E/DX2 analytically            !
 !       R8          1.4194   calculate D2E/DX2 analytically            !
 !       R9          1.0816   calculate D2E/DX2 analytically            !
 !       R10         1.4143   calculate D2E/DX2 analytically            !
 !       R11         1.3595   calculate D2E/DX2 analytically            !
 !       R12         1.0828   calculate D2E/DX2 analytically            !
 !       R13         1.4419   calculate D2E/DX2 analytically            !
 !       R14         1.3889   calculate D2E/DX2 analytically            !
 !       R15         1.0063   calculate D2E/DX2 analytically            !
 !       R16         1.0768   calculate D2E/DX2 analytically            !
 !       R17         1.0768   calculate D2E/DX2 analytically            !
 !       A3        128.1067   calculate D2E/DX2 analytically            !
 !       A4        117.9122   calculate D2E/DX2 analytically            !
 !       A5        145.1681   calculate D2E/DX2 analytically            !
 !       A6        127.3977   calculate D2E/DX2 analytically            !
 !       A7        115.0697   calculate D2E/DX2 analytically            !
 !       A8        118.2363   calculate D2E/DX2 analytically            !
 !       A9        120.4385   calculate D2E/DX2 analytically            !
 !       A10       125.6381   calculate D2E/DX2 analytically            !
 !       A11       126.67     calculate D2E/DX2 analytically            !
 !       A12       120.5591   calculate D2E/DX2 analytically            !
 !       A13       106.707    calculate D2E/DX2 analytically            !
 !       A14       110.2675   calculate D2E/DX2 analytically            !
 !       A15       124.498    calculate D2E/DX2 analytically            !
 !       A16       126.585    calculate D2E/DX2 analytically            !
 !       A17       120.5618   calculate D2E/DX2 analytically            !
 !       D4       -164.9727   calculate D2E/DX2 analytically            !
 !       D5        179.8914   calculate D2E/DX2 analytically            !
 !       D6          0.3317   calculate D2E/DX2 analytically            !
 !       D7        175.2885   calculate D2E/DX2 analytically            !
 !       D8         -0.9276   calculate D2E/DX2 analytically            !
 !       D9        172.325    calculate D2E/DX2 analytically            !
 !       D10       -26.4999   calculate D2E/DX2 analytically            !
 !       D11       169.9185   calculate D2E/DX2 analytically            !
 !       D12       -42.5247   calculate D2E/DX2 analytically            !
 !       D13      -145.8676   calculate D2E/DX2 analytically            !
 !       D14      -171.0888   calculate D2E/DX2 analytically            !
 !       D15       171.6844   calculate D2E/DX2 analytically            !
 !       D16       177.9478   calculate D2E/DX2 analytically            !
 !       D17       179.7653   calculate D2E/DX2 analytically            !
 ------------------------------------------------------------------------
 Trust Radius=1.00D-01 FncErr=1.00D-07 GrdErr=1.00D-07 EigMax=2.50D+02 EigMin=1.00D-04
 Number of steps in this run=      2 maximum allowed number of steps=      2.
 Search for a saddle point of order  1.
 GradGradGradGradGradGradGradGradGradGradGradGradGradGradGradGradGradGrad

                          Input orientation:                          
 ---------------------------------------------------------------------
 Center     Atomic      Atomic             Coordinates (Angstroms)
 Number     Number       Type             X           Y           Z
 ---------------------------------------------------------------------
      1          6           0        0.000000    0.000000    0.000000
      2          6           0        0.000000    0.000000    1.420688
      3          6           0        1.079545    0.000000   -0.846675
      4          1           0       -0.927022    0.248868   -0.508475
      5          8           0        1.425952   -0.001278   -1.975384
      6          6           0        1.084531    0.006280    2.249819
      7          1           0       -0.979121    0.074991    1.880051
      8          6           0        2.377519   -0.006478    1.664345
      9          1           0        0.959045    0.145046    3.315136
     10          6           0        2.701733   -0.537045    0.394047
     11          7           0        3.481004    0.644844    2.118711
     12          1           0        2.284407   -1.481878    0.069251
     13          6           0        4.067175   -0.160739    0.123870
     14          6           0        4.506499    0.562616    1.185628
     15          1           0        3.505046    1.216139    2.946801
     16          1           0        4.645973   -0.425469   -0.744642
     17          1           0        5.458997    1.027205    1.376521
 ---------------------------------------------------------------------
                    Distance matrix (angstroms):
                    1          2          3          4          5
     1  C    0.000000
     2  C    1.420688   0.000000
     3  C    1.371961   2.511245   0.000000
     4  H    1.086210   2.154756   2.050031   0.000000
     5  O    2.436284   3.683292   1.180670   2.784040   0.000000
     6  C    2.497585   1.365176   3.096504   3.422481   4.238981
     7  H    2.121060   1.084120   3.417421   2.395413   4.544730
     8  C    2.902186   2.389981   2.826659   3.963123   3.762065
     9  H    3.454118   2.128318   4.166081   4.264742   5.313098
    10  C    2.782634   2.939689   2.111706   3.821004   2.743878
    11  N    4.125791   3.608386   3.869928   5.146804   4.626264
    12  H    2.723834   3.039878   2.118154   3.693579   2.666394
    13  C    4.072235   4.271942   3.145430   5.050707   3.377626
    14  C    4.693696   4.547562   4.023779   5.700137   4.449690
    15  H    4.737929   4.011653   4.663958   5.702435   5.480204
    16  H    4.724466   5.143417   3.593165   5.618609   3.473212
    17  H    5.722815   5.554976   5.017704   6.703750   5.344015
                    6          7          8          9         10
     6  C    0.000000
     7  H    2.097644   0.000000
     8  C    1.419423   3.364551   0.000000
     9  H    1.081621   2.412646   2.181774   0.000000
    10  C    2.520800   4.016402   1.414310   3.469145   0.000000
    11  N    2.483554   4.502711   1.359540   2.835756   2.231275
    12  H    2.899860   4.043940   2.174810   3.865130   1.082758
    13  C    3.666568   5.348350   2.291680   4.465217   1.441886
    14  C    3.626552   5.550858   2.255126   4.158558   2.256775
    15  H    2.794358   4.748466   2.100191   2.786581   3.199299
    16  H    4.673015   6.227452   3.335364   5.513684   2.255910
    17  H    4.576122   6.527605   3.262951   4.978555   3.318831
                   11         12         13         14         15
    11  N    0.000000
    12  H    3.186703   0.000000
    13  C    2.229787   2.219607   0.000000
    14  C    1.388900   3.219308   1.357784   0.000000
    15  H    1.006324   4.129109   3.190724   2.128786   0.000000
    16  H    3.271316   2.712087   1.076755   2.172948   4.198015
    17  H    2.146975   4.252350   2.217547   1.076818   2.513842
                   16         17
    16  H    0.000000
    17  H    2.696405   0.000000
 Symmetry turned off by external request.
 Stoichiometry    C8H7NO
 Framework group  C1[X(C8H7NO)]
 Deg. of freedom    45
 Full point group                 C1      NOp   1
 Rotational constants (GHZ):           2.1610742           1.3580147           0.8747965
 Standard basis: def2TZVP (5D, 7F)
 The following finite field(s) will be applied:
 An electric field of             -0.0015  0.0005 -0.0020
   352 basis functions,   566 primitive gaussians,   402 cartesian basis functions
    35 alpha electrons       35 beta electrons
       nuclear repulsion energy       479.4844072117 Hartrees.
 NAtoms=   17 NActive=   17 NUniq=   17 SFac= 1.00D+00 NAtFMM=   60 NAOKFM=F Big=F
 Integral buffers will be    131072 words long.
 Raffenetti 2 integral format.
 Two-electron integral symmetry is turned off.
 One-electron integrals computed using PRISM.
   1 Symmetry operations used in ECPInt.
 ECPInt:  NShTT=    9591 NPrTT=   29644 LenC2=    9331 LenP2D=   22706.
 LDataN:  DoStor=T MaxTD1= 6 Len=  172
 NBasis=   352 RedAO= T EigKep=  3.67D-05  NBF=   352
 NBsUse=   352 1.00D-06 EigRej= -1.00D+00 NBFU=   352
 The nuclear repulsion energy is now       478.9218021001 hartrees.
 Initial guess from the checkpoint file:  "checkpoint.chk"
 B after Tr=     0.000000    0.000000    0.000000
         Rot=    1.000000    0.000000    0.000000    0.000000 Ang=   0.00 deg.
 Requested convergence on RMS density matrix=1.00D-08 within 128 cycles.
 Requested convergence on MAX density matrix=1.00D-06.
 Requested convergence on             energy=1.00D-06.
 No special actions if energy rises.
 SCF Done:  E(RB3LYP) =  -439.138959378     A.U. after    1 cycles
            NFock=  1  Conv=0.62D-08     -V/T= 2.0049
 DoSCS=F DFT=T ScalE2(SS,OS)=  1.000000  1.000000
 Range of M.O.s used for correlation:     1   352
 NBasis=   352 NAE=    35 NBE=    35 NFC=     0 NFV=     0
 NROrb=    352 NOA=    35 NOB=    35 NVA=   317 NVB=   317

 **** Warning!!: The largest alpha MO coefficient is  0.28412867D+02

   1 Symmetry operations used in ECPInt.
 ECPInt:  NShTT=    9591 NPrTT=   29644 LenC2=    9331 LenP2D=   22706.
 LDataN:  DoStor=T MaxTD1= 7 Len=  274
 Symmetrizing basis deriv contribution to polar:
 IMax=3 JMax=2 DiffMx= 0.00D+00
 G2DrvN: will do    18 centers at a time, making    1 passes.
 Calling FoFCou, ICntrl=  3107 FMM=F I1Cent=   0 AccDes= 0.00D+00.
 End of G2Drv F.D. properties file   721 does not exist.
 End of G2Drv F.D. properties file   722 does not exist.
 End of G2Drv F.D. properties file   788 does not exist.
          IDoAtm=11111111111111111
          Differentiating once with respect to electric field.
                with respect to dipole field.
          Differentiating once with respect to nuclear coordinates.
 CalDSu exits because no D1Ps are significant.
          There are    54 degrees of freedom in the 1st order CPHF.  IDoFFX=6 NUNeed=     3.
     51 vectors produced by pass  0 Test12= 2.05D-14 1.85D-09 XBig12= 2.36D+02 8.61D+00.
 AX will form    51 AO Fock derivatives at one time.
     51 vectors produced by pass  1 Test12= 2.05D-14 1.85D-09 XBig12= 8.76D+01 1.18D+00.
     51 vectors produced by pass  2 Test12= 2.05D-14 1.85D-09 XBig12= 8.69D-01 1.33D-01.
     51 vectors produced by pass  3 Test12= 2.05D-14 1.85D-09 XBig12= 2.68D-03 4.97D-03.
     51 vectors produced by pass  4 Test12= 2.05D-14 1.85D-09 XBig12= 7.55D-06 2.82D-04.
     50 vectors produced by pass  5 Test12= 2.05D-14 1.85D-09 XBig12= 1.80D-08 1.21D-05.
     17 vectors produced by pass  6 Test12= 2.05D-14 1.85D-09 XBig12= 2.80D-11 6.01D-07.
      3 vectors produced by pass  7 Test12= 2.05D-14 1.85D-09 XBig12= 3.52D-14 1.81D-08.
      2 vectors produced by pass  8 Test12= 2.05D-14 1.85D-09 XBig12= 1.18D-15 5.16D-09.
 InvSVY:  IOpt=1 It=  1 EMax= 3.55D-15
 Solved reduced A of dimension   327 with    54 vectors.
 Isotropic polarizability for W=    0.000000      108.09 Bohr**3.
 End of Minotr F.D. properties file   721 does not exist.
 End of Minotr F.D. properties file   722 does not exist.
 End of Minotr F.D. properties file   788 does not exist.
   1 Symmetry operations used in ECPInt.
 ECPInt:  NShTT=    9591 NPrTT=   29644 LenC2=    9331 LenP2D=   22706.
 LDataN:  DoStor=T MaxTD1= 8 Len=  415
 Calling FoFJK, ICntrl=    100127 FMM=F ISym2X=0 I1Cent= 0 IOpClX= 0 NMat=1 NMatS=1 NMatT=0.
 Full mass-weighted force constant matrix:
 Low frequencies --- -409.7733   -5.2479    0.0006    0.0008    0.0010    6.8461
 Low frequencies ---    7.5650  110.8949  136.3825
 ******    1 imaginary frequencies (negative Signs) ****** 
 Diagonal vibrational polarizability:
       22.8270925      13.4607173      34.7303582
 Harmonic frequencies (cm**-1), IR intensities (KM/Mole), Raman scattering
 activities (A**4/AMU), depolarization ratios for plane and unpolarized
 incident light, reduced masses (AMU), force constants (mDyne/A),
 and normal coordinates:
                      1                      2                      3
                      A                      A                      A
 Frequencies --   -409.7732               110.8938               136.3798
 Red. masses --      6.8201                 6.0076                 4.6428
 Frc consts  --      0.6747                 0.0435                 0.0509
 IR Inten    --    165.7883                 1.2330                 1.7238
  Atom  AN      X      Y      Z        X      Y      Z        X      Y      Z
     1   6     0.07  -0.05   0.01     0.04  -0.02   0.02     0.05   0.31   0.01
     2   6    -0.01  -0.00  -0.08    -0.02  -0.06   0.02     0.02   0.13   0.01
     3   6     0.46  -0.11   0.26     0.12   0.05   0.11     0.04  -0.00   0.01
     4   1     0.14  -0.01  -0.09     0.08   0.02  -0.02     0.11   0.52   0.01
     5   8    -0.05  -0.01   0.04     0.23   0.22   0.15     0.07  -0.21   0.02
     6   6     0.02   0.01   0.03    -0.03  -0.04   0.04     0.00  -0.19   0.04
     7   1     0.00   0.14  -0.07    -0.03  -0.09  -0.00     0.03   0.23  -0.00
     8   6    -0.08   0.06   0.04    -0.04  -0.03   0.01     0.01  -0.17   0.04
     9   1    -0.01   0.26  -0.01    -0.03  -0.03   0.04    -0.00  -0.32   0.06
    10   6    -0.27   0.21  -0.21    -0.05  -0.23   0.09     0.01  -0.08   0.01
    11   7    -0.02  -0.08   0.02    -0.08   0.17  -0.18    -0.05  -0.06   0.01
    12   1     0.19  -0.24   0.38    -0.08  -0.24   0.18     0.08  -0.09  -0.04
    13   6    -0.09   0.08  -0.09    -0.09  -0.20  -0.03    -0.06   0.13  -0.07
    14   6    -0.03  -0.08  -0.06    -0.11   0.06  -0.20    -0.10   0.15  -0.07
    15   1     0.06  -0.16   0.08    -0.10   0.33  -0.29    -0.10  -0.04   0.00
    16   1    -0.12   0.14  -0.13    -0.11  -0.31  -0.01    -0.09   0.27  -0.13
    17   1     0.01  -0.17  -0.02    -0.14   0.19  -0.34    -0.16   0.30  -0.11
                      4                      5                      6
                      A                      A                      A
 Frequencies --    270.2141               286.2314               333.9533
 Red. masses --      4.8736                 3.3630                 7.5542
 Frc consts  --      0.2097                 0.1623                 0.4964
 IR Inten    --     19.8012                 3.4724                 3.4594
  Atom  AN      X      Y      Z        X      Y      Z        X      Y      Z
     1   6    -0.04  -0.17  -0.05    -0.01  -0.14   0.03    -0.23   0.04   0.04
     2   6     0.02   0.06  -0.02    -0.02   0.19   0.01    -0.18  -0.01   0.05
     3   6    -0.10  -0.05  -0.09     0.03  -0.08   0.07    -0.13   0.04   0.19
     4   1    -0.09  -0.25  -0.02     0.02  -0.16  -0.04    -0.22  -0.07  -0.03
     5   8     0.21   0.03   0.02    -0.08   0.10   0.03     0.28  -0.12   0.32
     6   6    -0.02   0.16   0.03     0.02   0.09  -0.05    -0.04   0.02  -0.16
     7   1     0.01   0.12  -0.04     0.01   0.53   0.03    -0.12  -0.16   0.18
     8   6     0.04  -0.05   0.13    -0.00  -0.17  -0.07    -0.03   0.06  -0.22
     9   1    -0.11   0.28   0.01     0.12   0.41  -0.08     0.12  -0.13  -0.12
    10   6    -0.07   0.00   0.11     0.11  -0.14  -0.07     0.07   0.11  -0.17
    11   7     0.14  -0.18   0.11    -0.08  -0.09  -0.00    -0.01  -0.05  -0.08
    12   1    -0.19   0.11  -0.03     0.25  -0.18  -0.14     0.06   0.17  -0.32
    13   6    -0.19   0.14  -0.12     0.10   0.05   0.01     0.10   0.10  -0.10
    14   6    -0.04   0.03  -0.11    -0.04   0.09   0.04     0.08  -0.09   0.04
    15   1     0.24  -0.18   0.11    -0.25   0.00  -0.06    -0.05  -0.11  -0.04
    16   1    -0.35   0.30  -0.28     0.19   0.13   0.04     0.15   0.10  -0.06
    17   1    -0.03   0.06  -0.23    -0.11   0.21   0.09     0.12  -0.25   0.21
                      7                      8                      9
                      A                      A                      A
 Frequencies --    459.8852               508.0491               559.0609
[...]
   zz         0.132214D+03      0.195921D+02      0.217992D+02

 ----------------------------------------------------------------------
 1\1\GINC-BHC0108\Freq\RB3LYP\def2TZVP\C8H7N1O1\DHANAWAY\10-Jun-2022\1\
 \#N Geom=AllCheck Guess=TCheck SCRF=Check GenChk RB3LYP/def2TZVP Freq\
 \ts_zmat_initalOpt\\0,1\C\C,1,R2\C,1,R3,2,A3\H,1,R4,2,A4,3,D4,0\O,3,R5
 ,1,A5,2,D5,0\C,2,R6,1,A6,3,D6,0\H,2,R7,1,A7,6,D7,0\C,6,R8,2,A8,1,D8,0\
 H,6,R9,2,A9,8,D9,0\C,8,R10,6,A10,2,D10,0\N,8,R11,6,A11,10,D11,0\H,10,R
 12,8,A12,6,D12,0\C,10,R13,8,A13,12,D13,0\C,11,R14,8,A14,6,D14,0\H,11,R
 15,8,A15,14,D15,0\H,13,R16,10,A16,8,D16,0\H,14,R17,11,A17,8,D17,0\\R2=
 1.42068751\R3=1.37196107\R4=1.0862098\R5=1.18067007\R6=1.36517574\R7=1
 .08412048\R8=1.41942287\R9=1.08162059\R10=1.41430988\R11=1.35953953\R1
 2=1.08275759\R13=1.44188569\R14=1.38890049\R15=1.0063243\R16=1.0767545
 1\R17=1.07681808\A3=128.10668321\A4=117.9122406\A5=145.16814218\A6=127
 .39770108\A7=115.06967547\A8=118.23625822\A9=120.43846683\A10=125.6381
 1436\A11=126.67004751\A12=120.55908128\A13=106.7070179\A14=110.2674506
 3\A15=124.49798967\A16=126.58500509\A17=120.56179594\D4=-164.97270346\
 D5=179.89143854\D6=0.33174767\D7=175.28849053\D8=-0.92758759\D9=172.32
 497997\D10=-26.4998703\D11=169.91851767\D12=-42.52474657\D13=-145.8675
 9258\D14=-171.08878524\D15=171.68435355\D16=177.9478096\D17=179.765258
 79\\Version=ES64L-G16RevA.03\HF=-439.1389594\RMSD=6.177e-09\RMSF=2.410
 e-04\ZeroPoint=0.1299519\Thermal=0.137556\Dipole=0.7677361,0.4072582,1
 .7143941\DipoleDeriv=-0.3033768,-0.0650527,0.468249,-0.0729302,-0.3017
 378,-0.0628424,-0.3280148,-0.0342857,-0.8813369,0.2497147,-0.0013443,0
 .1438561,0.1062945,-0.0836813,-0.0531264,0.4235822,0.021292,0.7140999,
 0.931355,-0.0190058,-0.228616,-0.1286852,0.1893632,0.0232707,0.5190579
 ,-0.1031904,2.5602333,-0.1035421,0.0366994,-0.1060141,0.0305366,0.1661
 265,0.0361895,-0.012555,0.0253127,0.0237232,-0.372544,0.0095675,0.3413
 435,0.0743102,-0.2314353,-0.0568419,-0.2470633,0.0779025,-2.1458201,-0
 .499246,-0.0583421,-0.2342486,0.0566445,-0.241801,0.054362,-0.096536,0
 .0364826,-0.1965194,-0.0721671,0.0094349,0.073148,-0.013815,0.1188029,
 0.0066729,0.0649946,-0.0034262,0.0556453,0.6516935,0.1408592,0.1447234
 ,0.2928189,0.1596133,0.2807856,0.2298837,0.1370608,0.3080033,0.0346037
 ,-0.0045884,0.0057609,-0.0431924,0.1590545,-0.0406862,0.0272029,-0.026
 8072,-0.0616911,-0.2326113,0.0103903,-0.4484679,0.0709663,-0.0540374,0
 .0415354,-0.3041739,-0.0918029,-0.620306,-0.5717601,0.011102,-0.135035
 9,-0.2317811,-0.2239838,-0.1270037,-0.2987696,-0.1762677,-0.4253284,0.
 0944391,-0.0321527,0.0563309,-0.0998511,0.0681927,-0.0962648,0.0463278
 ,0.0048268,0.1557986,-0.013273,0.0483733,0.0176243,0.0897337,-0.182900
 4,0.0773342,-0.085748,0.0687198,-0.0652774,-0.0350204,-0.0158316,-0.21
 66615,-0.0400899,-0.0691332,0.0274257,-0.0949224,0.1683789,0.1688076,0
 .1770194,-0.008214,0.0747541,-0.0089555,0.2514483,-0.0435749,0.083712,
 -0.0104779,0.2794433,0.0349805,-0.0032082,0.0440747,-0.0136151,0.13499
 86,-0.0319633,0.0744004,-0.0422116,0.0401565,0.0297351,-0.058687,-0.00
 0821,-0.0683892,0.14111,-0.0352726,-0.0013785,-0.0515065,0.0903681\Pol
 ar=138.2815093,6.1920519,63.5849268,8.4563391,7.5163895,122.4078447\PG
 =C01 [X(C8H7N1O1)]\NImag=1\\0.58677489,-0.08146105,0.10096696,-0.01765
 347,-0.02771578,0.66923744,-0.10823320,0.00446204,0.01835604,0.7269067
 3,0.00572391,-0.04858511,-0.00219098,-0.02817577,0.13624111,-0.0459286
 6,0.00823205,-0.27509044,0.03633557,0.00546984,0.63498581,-0.18952071,
 0.01988666,0.08579404,0.01504965,-0.00030159,0.09102865,0.30818118,0.0
 0431231,-0.05041201,-0.00091311,0.00203997,-0.00660464,-0.00376910,-0.
 00365971,0.12401108,0.14147816,-0.01576291,-0.18673185,0.03677084,0.00
 651392,-0.02738960,-0.43787652,0.01376480,0.94619988,-0.25273878,0.055
 77572,-0.10709084,0.00224837,-0.00044519,-0.00199475,-0.02050912,0.007
 71958,-0.00454659,0.27028888,0.06518723,-0.03634188,0.03293592,0.00088
 294,0.00068652,-0.00154985,-0.00299477,0.00161269,0.00479332,-0.062688
 05,0.03142431,-0.10268199,0.03128180,-0.10813723,-0.02717226,0.0070633
 5,-0.01180730,0.01030221,-0.00430107,0.00355136,0.11474214,-0.03377188
 ,0.11778204,-0.02073106,-0.00395607,0.06077394,-0.00635085,0.00133336,
 -0.02315953,-0.10997464,-0.00079143,0.22149738,0.00197705,0.00041673,0
 .00037586,0.13160716,-0.00156371,0.01571939,0.00455886,-0.00224184,0.0
 0686005,-0.00168533,0.00119598,-0.05411236,-0.00435686,-0.00130957,-0.
 00151777,0.00026899,-0.00210337,0.03064233,0.02479950,0.00679630,-0.04
 229290,-0.00460220,-0.00498322,0.00468304,0.25873407,-0.00518525,-0.73
 700240,-0.00316668,-0.00121458,0.00200661,-0.25074299,-0.00601087,0.80
 839172,0.03129340,-0.00010355,-0.04937444,-0.29127501,0.01398427,-0.10
 478006,-0.05579491,0.00059611,-0.00353185,0.00372217,-0.00322918,-0.00
 034303,0.01369020,0.00339514,0.00599531,0.64612240,-0.00420196,0.00986
 529,0.00676125,-0.00496919,-0.05457482,-0.01757094,0.00661930,0.001233
 16,-0.00128920,0.00098682,0.00264325,0.00061225,-0.00211887,-0.0007801
 8,-0.00024969,0.00964817,0.11611185,-0.01675725,-0.00187926,-0.0429203
 5,-0.15984409,-0.00585389,-0.21514528,-0.02322906,0.00190759,0.0070307
 6,0.00196073,0.00225430,-0.00410614,0.00663035,-0.00145726,-0.00576951
 ,0.03694661,0.06528904,0.72157525,0.00106024,0.00001341,-0.00170706,-0
 .27999099,0.01940785,0.10554081,0.00139497,0.00019403,-0.00127664,0.00
 090993,-0.00027351,0.00007405,-0.00007657,-0.00005929,0.00027794,-0.02
 100156,0.00208205,0.01205302,0.29963769,0.00302577,0.00333011,-0.00479
 439,0.02084235,-0.04081898,-0.00531860,-0.00461090,0.00530963,0.001848
 33,-0.00111497,-0.00207699,-0.00013881,0.00141150,-0.00116401,-0.00003
 049,-0.00090134,0.00496476,-0.00225335,-0.02084887,0.02728098,0.027077
 94,-0.00238128,-0.01101269,0.10594770,-0.00833582,-0.10768162,0.000153
 59,-0.00012799,-0.00722492,-0.00009533,0.00015553,0.00090710,0.0009791
 4,0.00001683,0.00030829,-0.01816233,0.00165836,0.01056228,-0.11184137,
 0.00910936,0.11423933,-0.02016837,-0.00187910,0.02581225,-0.06538888,-
 0.00813201,-0.03303497,0.04045092,-0.00102510,-0.00070513,-0.00224230,
 0.00178898,0.00238771,-0.01223021,-0.00144047,-0.00362857,-0.22742315,
 0.00021697,0.09367488,-0.00229408,0.00122836,-0.00342190,0.71771430,0.
 00791060,-0.00442982,-0.00233072,-0.00007795,0.00307564,0.01075823,-0.
 01836342,-0.00220911,-0.00891408,0.00170914,0.00200168,-0.00035730,0.0
 0590007,0.00036313,0.01090798,-0.01208094,-0.06076195,-0.01649270,-0.0
 0038719,0.00899281,-0.00078928,0.09991485,0.28858699,0.01864158,-0.001
 74566,-0.01646875,-0.00343496,0.00610551,0.04335332,-0.05378264,0.0041
 0861,-0.02792949,0.00346924,-0.00095759,-0.00241972,0.01141861,0.00061
 703,0.01404188,0.06212311,-0.01755533,-0.15196255,-0.00386818,-0.00011
 375,-0.00199260,-0.11600592,0.15965327,0.53733102,-0.00199013,0.000482
 75,-0.00166292,0.00540350,-0.00347133,-0.02711736,-0.00322939,0.000331
 68,-0.00088990,0.00023028,0.00028380,-0.00106040,0.00091625,-0.0000943
 9,0.00009864,-0.06118383,0.00269287,0.03603817,0.00113253,-0.00035001,
 0.00012448,0.00036113,0.00510884,0.02877789,0.06122220,0.00178473,0.00
 743802,-0.00177978,0.00465408,0.00114159,0.00403960,-0.00483202,0.0003
 0216,-0.00195663,0.00027807,0.00045343,-0.00089695,0.00106981,-0.00009
 582,0.00156251,-0.00635122,-0.02856873,-0.04035672,-0.00024563,-0.0055
 7939,0.00054787,0.00762133,-0.00082203,-0.00557733,-0.00473903,0.02431
 506,-0.00280286,-0.00066630,0.00196190,0.00245148,-0.00212212,-0.01677
 583,0.00083799,-0.00016212,0.00045973,0.00008517,-0.00005077,-0.000561
 86,-0.00006132,0.00007678,-0.00021025,0.03502652,-0.03930132,-0.327701
 17,-0.00004499,0.00088508,0.00097781,-0.00164091,-0.00197547,-0.007716
 38,-0.03590436,0.04223618,0.34899060,-0.03520284,0.00687579,-0.0011144
 2,-0.00272376,-0.00218908,-0.02229119,0.04635509,-0.01611079,0.0516593
 7,-0.00448379,0.00111862,0.00431016,-0.00722956,0.00336362,-0.02559418
 ,0.01398188,0.00736129,0.03244283,0.00031698,0.00105612,-0.00001060,-0
 .10723913,0.01963490,0.07881124,-0.00319198,0.00249104,0.00066210,0.44
 665053,0.00602407,0.00034480,-0.00776907,0.00303143,-0.00029356,0.0072
 4707,-0.02162552,-0.00207569,-0.00528704,0.00004568,0.00115914,-0.0005
 2096,0.00567565,-0.00071609,0.00745041,-0.00459945,0.00623142,0.001635
 58,-0.00011006,-0.00025237,0.00016296,0.01445522,-0.11688377,-0.088477
 08,-0.00170328,0.00204588,0.00083563,0.19627489,0.47070262,-0.02524167
 ,0.00085815,0.01347414,-0.01133177,-0.00234339,-0.02928224,0.07378434,
 -0.00494317,0.02581211,-0.00294899,-0.00188262,0.00249436,-0.02699590,
 0.00501446,-0.04145028,0.04061999,-0.00419110,-0.00572790,-0.00001603,
 0.00175219,-0.00005138,0.03005958,-0.07035222,-0.21844538,0.00117527,0
 .00263632,0.00036403,-0.09000997,0.22746179,0.43943688,-0.00164650,0.0
 0374685,-0.00703962,0.00819001,0.00128902,0.00959017,0.00814697,-0.003
 71236,0.01201644,-0.00086303,-0.00283442,0.00000309,-0.00148033,0.0025
 6431,-0.00801582,-0.04878941,-0.02226296,-0.01249301,-0.00072999,0.001
 55789,-0.00035583,-0.22989193,-0.07850695,-0.04444118,0.00261019,-0.00
 055659,-0.00050136,-0.02148688,-0.02246396,-0.03972592,0.55290753,-0.0
 0100046,0.00091837,-0.00226837,0.00339926,0.00347049,0.00095943,0.0070
 8873,-0.00268301,0.00343272,-0.00042244,-0.00088538,0.00005739,-0.0025
 2467,0.00136105,-0.00404100,-0.00515450,0.00220497,0.00208357,0.000468
 04,0.00005688,0.00012353,-0.09009074,-0.12273972,-0.05763554,0.0011100
 1,-0.00128021,0.00020396,-0.01695996,-0.01430030,-0.04372894,0.1427510
 2,0.35820580,0.00462884,0.00145454,-0.00306705,0.00657459,0.00072508,0
 .00606400,-0.00623349,-0.00086652,-0.00451243,0.00064580,-0.00054281,-
 0.00035394,0.00015117,0.00079423,0.00249043,-0.00289085,0.01166532,0.0
 1730583,0.00080131,-0.00155549,0.00093980,-0.03365035,-0.05801225,-0.1
 3831676,-0.00147187,-0.00082270,0.00118956,-0.00286496,-0.03391575,-0.
 03700031,-0.06326177,0.36055182,0.70065633,0.00152543,-0.00064092,0.00
 008755,0.00017728,0.00104261,0.00414275,-0.00866139,0.00691396,-0.0092
 1624,0.00055351,0.00019642,-0.00024394,0.00083022,0.00035158,0.0022003
 2,-0.00388043,0.00135102,-0.00183482,-0.00000429,-0.00042078,-0.000113
 12,0.00473234,0.00496931,-0.00799098,-0.00008958,-0.00060207,0.0000745
 2,-0.07421556,-0.09734448,-0.01320888,0.00517533,0.00029660,0.00258401
 ,0.08928350,-0.00569393,0.00143246,0.00191835,-0.00089733,-0.00067654,
 -0.00561971,0.01738646,-0.01438451,0.00914837,-0.00070121,0.00082204,0
 .00074978,-0.00325299,0.00331908,-0.00365423,0.00406050,-0.00041097,0.
 00119606,-0.00000176,0.00016988,0.00008226,-0.00505979,-0.00367482,0.0
 0832926,0.00021233,0.00045451,-0.00006439,-0.11617690,-0.25956595,-0.0
 9946787,-0.00244896,-0.00009481,0.00015291,0.10794574,0.27292631,0.005
 69778,-0.00108718,-0.00020448,0.00017285,0.00034161,0.00528396,-0.0154
 1700,0.00857477,-0.00829328,0.00087871,-0.00025527,-0.00065097,0.00185
 214,0.00082553,0.00109253,-0.00500274,0.00221816,-0.00247314,0.0000383
 5,-0.00040305,-0.00003179,-0.01120083,-0.02403085,-0.01077539,-0.00002
 062,-0.00004921,-0.00003415,-0.00970039,-0.08022786,-0.05369213,0.0053
 0076,-0.00187294,-0.00617917,0.03200449,0.09036685,0.06885080,0.010020
 90,-0.00135372,-0.00535320,0.00034356,0.00018717,0.01092926,-0.0307848
 5,0.00293865,-0.01169958,0.00122594,0.00076270,-0.00098701,0.00692575,
 -0.00094421,0.00704748,-0.00489740,0.00175804,-0.00230876,-0.00006729,
 -0.00096008,-0.00005532,-0.02167886,0.01078694,0.04219904,-0.00075667,
 -0.00068719,0.00022350,-0.21215650,-0.05711891,0.05278246,0.00214701,0
 .00298487,0.00799701,-0.00925586,0.00497531,-0.00471298,0.53689409,0.0
 0703760,-0.00130053,0.00122838,-0.00150368,-0.00005919,0.00532795,-0.0
 1070574,0.00290836,-0.01259376,0.00139967,0.00038286,-0.00087909,0.001
 66973,-0.00041276,0.00436598,-0.00275923,0.00222038,-0.00521869,0.0001
 0712,-0.00043369,-0.00006656,0.00037208,0.00837678,0.00077434,0.000491
 11,-0.00027518,-0.00016234,-0.03148415,-0.09076110,-0.00085608,0.01483
 414,0.00094109,-0.04004235,-0.02426571,-0.00046625,0.00546887,0.080049
 89,0.29803372,-0.00287178,0.00060581,-0.00108588,-0.00220471,-0.000265
 84,-0.00196306,-0.00442372,-0.00506352,0.00585630,-0.00072016,0.001458
 91,0.00057244,0.00153449,-0.00007039,-0.00029947,0.00210121,-0.0016364
 9,-0.00478908,-0.00004165,-0.00039200,0.00007309,0.02217362,-0.0081300
 9,-0.02000408,0.00118532,-0.00019941,-0.00009665,0.04340255,-0.0063105
 2,-0.09186491,0.03870655,-0.02685734,-0.06832575,-0.01286694,0.0003963
 7,0.00194737,-0.14573554,0.26283946,0.70484903,-0.00050296,-0.00184850
 ,0.00016716,-0.00403646,-0.00082426,0.00053401,-0.00249624,0.00019208,
 0.00391343,-0.00021834,0.00163292,0.00028773,0.00194364,-0.00106946,-0
 .00148976,0.00401262,-0.00016050,-0.00423543,-0.00021967,-0.00003178,-
 0.00015644,-0.07851155,-0.03337038,0.00538629,-0.00054444,0.00039513,0
 .00073302,-0.02909171,-0.02335425,-0.00833014,-0.19048795,-0.00835584,
 0.08983777,-0.00684645,0.00021190,0.00182395,-0.13439141,-0.06806721,-
 0.08116426,0.70703147,-0.00603115,0.00083927,0.00180480,-0.00128680,0.
 00056107,-0.00550736,0.01380087,-0.00197362,0.01100565,-0.00107913,-0.
 00058024,0.00066309,-0.00172576,0.00043925,-0.00580954,0.00202840,-0.0
 0110012,-0.00178468,-0.00032348,0.00037206,-0.00019308,-0.01883899,0.0
 0750327,0.00385648,0.00032400,0.00001492,-0.00005634,-0.04959428,-0.00
 403441,-0.01258336,-0.01875396,-0.07514050,-0.02813185,-0.00011266,-0.
 00111560,0.00115570,-0.05901144,-0.16352925,-0.14826371,0.24623845,0.3
 3143843,-0.00809850,0.00211998,0.00143840,0.00227646,0.00000102,-0.007
 45931,0.02005644,-0.00327631,0.01094822,-0.00127881,-0.00148546,0.0007
 3679,-0.00441912,0.00171540,-0.00680861,-0.00098746,-0.00765943,0.0015
 4656,-0.00014858,0.00141084,-0.00005620,0.02767255,0.01388799,0.010047
 94,0.00084474,0.00058310,-0.00057342,-0.05660181,-0.01531273,-0.006795
 40,0.08470828,-0.03772819,-0.16570592,0.00573672,-0.00343836,0.0053587
 1,-0.06734317,-0.14395346,-0.28514283,0.03510270,0.22987617,0.52984412
 ,-0.00053551,0.00012123,0.00045741,-0.00043813,0.00056067,-0.00062865,
 0.00133609,-0.00018216,0.00034622,-0.00010540,-0.00019791,0.00008876,-
 0.00034040,0.00008763,0.00002567,0.00146891,0.00151515,0.00003652,-0.0
 0003119,-0.00005847,-0.00001813,0.00908969,-0.01175641,-0.02501488,-0.
 00041307,-0.00032139,0.00072634,-0.00577561,-0.00481903,-0.00112682,-0
 .06817995,-0.02143580,0.00578808,0.00073279,-0.00032640,-0.00112357,-0
 .00390456,0.00037145,0.00523963,0.01002744,0.01785286,0.01455241,0.056
 11069,-0.00067745,-0.00003494,0.00094280,-0.00010416,-0.00027182,-0.00
 111958,0.00217833,-0.00088542,-0.00052844,-0.00003881,0.00013255,0.000
 10515,-0.00092261,0.00035295,-0.00024163,0.00176857,-0.00147942,0.0014
 9413,0.00006451,0.00014431,0.00003201,0.00466204,-0.00875397,-0.007917
 18,-0.00066015,0.00027686,0.00024580,-0.00224019,0.00225432,-0.0024797
 3,-0.02108853,-0.15405231,-0.20861445,-0.00112339,0.00088635,-0.000614
 67,-0.00246615,0.00063012,0.00038878,0.00191573,-0.00154336,0.00717873
 ,0.01882206,0.16140555,-0.00012998,-0.00014416,0.00040570,-0.00046338,
 -0.00022479,-0.00089268,-0.00086145,0.00062968,-0.00080246,0.00004667,
 0.00012310,-0.00002671,0.00027842,-0.00038551,0.00090693,0.00091708,0.
 00145746,0.00073100,0.00002910,-0.00005598,-0.00002496,-0.00084501,-0.
 00080033,-0.00574796,0.00003367,0.00015697,-0.00034989,-0.00059026,-0.
 00293236,0.00307772,0.00385886,-0.20243536,-0.31040761,0.00030214,-0.0
 0002019,-0.00055172,0.00396026,0.00024741,-0.00018973,-0.00667001,-0.0
 0659819,-0.01163650,0.00034000,0.21110739,0.32512659,0.00005719,-0.000
 05948,-0.00035989,0.00013379,-0.00001492,0.00014034,0.00049634,0.00009
 510,0.00259477,-0.00009217,0.00000256,-0.00000841,0.00048455,-0.000149
 00,-0.00198351,0.00049631,0.00033485,0.00142437,-0.00002099,0.00002461
 ,-0.00000471,-0.00510979,-0.00269534,0.00038513,-0.00045413,0.00005472
 ,0.00012781,-0.00618387,0.01001565,0.02000463,0.00002878,-0.00343551,-
 0.00234642,0.00024783,-0.00019760,-0.00070706,-0.13981153,0.03296917,0
 .13478868,0.01002824,-0.00208171,-0.01033590,0.00104340,-0.00036773,-0
 .00021922,0.13903716,0.00053774,-0.00006475,-0.00027495,-0.00003256,-0
 .00009197,0.00066827,-0.00172646,0.00074042,-0.00112489,0.00006973,0.0
 0002350,-0.00005123,-0.00003758,-0.00038941,0.00066016,-0.00034391,0.0
 0088425,-0.00013188,0.00001275,-0.00005760,0.00000430,-0.00371128,0.00
 057140,-0.00151668,-0.00005542,0.00016547,0.00005599,-0.00040583,0.002
 89552,0.00912116,-0.00122890,0.00252853,-0.00505878,0.00148415,-0.0001
 5296,0.00027087,0.02933514,-0.05585134,-0.07069607,0.01124232,-0.00011
 903,-0.00808049,-0.00010252,0.00156074,-0.00091127,-0.03582844,0.04971
 861,-0.00004318,-0.00000247,0.00017671,0.00003090,0.00008129,-0.000234
 87,0.00062728,-0.00014700,0.00019287,0.00000318,-0.00003175,-0.0000020
 5,0.00003938,0.00004276,-0.00020674,0.00026480,-0.00026493,0.00040765,
 0.00000210,0.00001772,-0.00000013,-0.00026341,-0.00078654,0.00098474,-
 0.00008528,-0.00012718,0.00008368,-0.00235655,0.00137071,0.00201088,-0
 .00146179,-0.00470220,-0.00097420,-0.00016771,0.00011746,-0.00028220,0
 .13298597,-0.07075066,-0.24522042,0.01393330,-0.00121205,-0.01094907,0
 .00109216,-0.00033012,0.00006353,-0.14367924,0.07524968,0.25441969,0.0
 0053801,-0.00006203,-0.00009253,-0.00001560,0.00002528,0.00069362,-0.0
 0043996,0.00014805,-0.00053416,0.00009679,-0.00005506,-0.00007468,0.00
 003880,0.00001703,0.00004479,-0.00054220,-0.00085305,-0.00050507,-0.00
 001572,0.00015059,-0.00004777,-0.00017014,0.00130394,0.00332662,-0.000
 02286,-0.00001376,0.00000735,0.00167672,-0.00238364,0.00050982,-0.0156
 4985,-0.00871860,-0.00628887,-0.00030467,-0.00003538,0.00011616,0.0001
 4769,-0.00051621,0.00089671,-0.28569623,-0.12140523,-0.04173694,-0.000
 08519,0.00027793,0.00001311,-0.00038112,0.00079108,-0.00092191,0.30082
 554,-0.00091424,0.00031436,-0.00011320,-0.00002281,-0.00005983,-0.0005
 6198,0.00066380,-0.00077713,0.00130670,-0.00018503,0.00006029,0.000115
 49,-0.00004350,0.00013117,-0.00032284,0.00004215,0.00131687,-0.0004318
 4,-0.00009998,-0.00023839,0.00000100,-0.00008234,0.00080349,-0.0019483
 7,0.00003621,0.00001345,0.00002176,-0.00301507,0.00324956,-0.00401558,
 0.00711438,0.00148907,0.00221905,-0.00004138,0.00053180,-0.00068136,-0
 .01123703,-0.00040401,0.00219605,-0.12474635,-0.09203212,-0.03583880,-
 0.00013096,-0.00062252,0.00078614,0.00133307,-0.00236137,0.00147527,0.
 13132907,0.08858531,-0.00011448,0.00003636,0.00031732,0.00013693,0.000
 01844,-0.00064788,0.00050529,-0.00023030,-0.00016481,0.00001054,0.0000
 2151,0.00001522,-0.00015204,0.00003534,0.00011873,0.00107813,0.0000565
 9,0.00143579,0.00012783,0.00003239,0.00006859,0.00261643,-0.00223566,-
 0.00397984,-0.00006546,0.00000336,-0.00000772,-0.00015393,-0.00541078,
 -0.00236017,0.02311215,0.01385746,0.00619719,-0.00148986,-0.00019292,0
 .00063504,-0.01992943,-0.00572942,0.00568363,-0.04967334,-0.03822172,-
 0.06479347,-0.00078115,0.00035102,0.00031873,0.00017864,0.00181581,-0.
 00047009,0.04459374,0.03579252,0.05763373\\0.00041435,-0.00130751,-0.0
 0002252,-0.00028745,0.00086294,0.00004136,-0.00003867,0.00041444,-0.00
 003959,0.00001063,0.00001113,-0.00000251,-0.00002807,0.00001414,0.0000
 2496,-0.00011828,0.00000150,-0.00002883,0.00000330,-0.00000309,0.00000
 309,0.00008916,0.00001804,-0.00001796,0.00001172,-0.00001181,-0.000001
 20,0.00002407,0.00002931,0.00010837,-0.00010747,-0.00008794,-0.0001004
 1,0.00000860,0.00000821,-0.00000669,-0.00004076,0.00002657,0.00004056,
 0.00000064,0.00000526,0.00002877,0.00005216,0.00001373,-0.00002960,0.0
 0000763,0.00000241,0.00000784,-0.00000156,0.00000268,-0.00000563\\\@


 THAT'S WHAT MAKES US A GREAT COUNTRY.
 THE LITTLE THINGS ARE SERIOUS AND THE BIG ONES ARE NOT.
           WILL ROGERS
 Job cpu time:       0 days  2 hours 11 minutes 37.0 seconds.
 Elapsed time:       0 days  0 hours 10 minutes 58.8 seconds.
 File lengths (MBytes):  RWF=    183 Int=      0 D2E=      0 Chk=     32 Scr=      1
 Normal termination of Gaussian 16 at Fri Jun 10 03:18:12 2022.
