 Entering Gaussian System, Link 0=g16
 Input=ts_zmat_field_N50.gjf
 Output=ts_zmat_field_N50.out
 Initial command:
 /software/gaussian/g16-a03/l1.exe "/local_scratch/11171339/Gau-15822.inp" -scrdir="/local_scratch/11171339/"
 Entering Link 1 = /software/gaussian/g16-a03/l1.exe PID=     15823.
  
 Copyright (c) 1988,1990,1992,1993,1995,1998,2003,2009,2016,
            Gaussian, Inc.  All Rights Reserved.
  
 This is part of the Gaussian(R) 16 program.  It is based on
 the Gaussian(R) 09 system (copyright 2009, Gaussian, Inc.),
 the Gaussian(R) 03 system (copyright 2003, Gaussian, Inc.),
 the Gaussian(R) 98 system (copyright 1998, Gaussian, Inc.),
 the Gaussian(R) 94 system (copyright 1995, Gaussian, Inc.),
 the Gaussian 92(TM) system (copyright 1992, Gaussian, Inc.),
 the Gaussian 90(TM) system (copyright 1990, Gaussian, Inc.),
 the Gaussian 88(TM) system (copyright 1988, Gaussian, Inc.),
 the Gaussian 86(TM) system (copyright 1986, Carnegie Mellon
 University), and the Gaussian 82(TM) system (copyright 1983,
 Carnegie Mellon University). Gaussian is a federally registered
 trademark of Gaussian, Inc.
  
 This software contains proprietary and confidential information,
 including trade secrets, belonging to Gaussian, Inc.
  
 This software is provided under written license and may be
 used, copied, transmitted, or stored only in accord with that
 written license.
  
 The following legend is applicable only to US Government
 contracts under FAR:
  
                    RESTRICTED RIGHTS LEGEND
  
 Use, reproduction and disclosure by the US Government is
 subject to restrictions as set forth in subparagraphs (a)
 and (c) of the Commercial Computer Software - Restricted
 Rights clause in FAR 52.227-19.
  
 Gaussian, Inc.
 340 Quinnipiac St., Bldg. 40, Wallingford CT 06492
  
  
 ---------------------------------------------------------------
 Warning -- This program may not be used in any manner that
 competes with the business of Gaussian, Inc. or will provide
 assistance to any competitor of Gaussian, Inc.  The licensee
 of this program is prohibited from giving any competitor of
 Gaussian, Inc. access to this program.  By using this program,
 the user acknowledges that Gaussian, Inc. is engaged in the
 business of creating and licensing software in the field of
 computational chemistry and represents and warrants to the
 licensee that it is not a competitor of Gaussian, Inc. and that
 it will not use this program in any manner prohibited above.
 ---------------------------------------------------------------
  

 Cite this work as:
 Gaussian 16, Revision A.03,
 M. J. Frisch, G. W. Trucks, H. B. Schlegel, G. E. Scuseria, 
 M. A. Robb, J. R. Cheeseman, G. Scalmani, V. Barone, 
 G. A. Petersson, H. Nakatsuji, X. Li, M. Caricato, A. V. Marenich, 
 J. Bloino, B. G. Janesko, R. Gomperts, B. Mennucci, H. P. Hratchian, 
 J. V. Ortiz, A. F. Izmaylov, J. L. Sonnenberg, D. Williams-Young, 
 F. Ding, F. Lipparini, F. Egidi, J. Goings, B. Peng, A. Petrone, 
 T. Henderson, D. Ranasinghe, V. G. Zakrzewski, J. Gao, N. Rega, 
 G. Zheng, W. Liang, M. Hada, M. Ehara, K. Toyota, R. Fukuda, 
 J. Hasegawa, M. Ishida, T. Nakajima, Y. Honda, O. Kitao, H. Nakai, 
 T. Vreven, K. Throssell, J. A. Montgomery, Jr., J. E. Peralta, 
 F. Ogliaro, M. J. Bearpark, J. J. Heyd, E. N. Brothers, K. N. Kudin, 
 V. N. Staroverov, T. A. Keith, R. Kobayashi, J. Normand, 
 K. Raghavachari, A. P. Rendell, J. C. Burant, S. S. Iyengar, 
 J. Tomasi, M. Cossi, J. M. Millam, M. Klene, C. Adamo, R. Cammi, 
 J. W. Ochterski, R. L. Martin, K. Morokuma, O. Farkas, 
 J. B. Foresman, and D. J. Fox, Gaussian, Inc., Wallingford CT, 2016.
 
 ******************************************
 Gaussian 16:  ES64L-G16RevA.03 25-Dec-2016
                10-Jun-2022 
 ******************************************
 %nprocshared=12
 Will use up to   12 processors via shared memory.
 %chk=checkpoint.chk
 %mem=12GB
 ----------------------------------------------------------------------
 # Opt=(TS, CalcFC, noeigentest, Z-matrix, MaxStep=10) geom=allcheckpoi
 nt guess=read Field=read NoSymm B3LYP/Def2TZVP freq=noraman pop=none
 ----------------------------------------------------------------------
 1/5=1,8=10,10=4,11=1,18=40,26=3,29=7,38=1/1,3;
 2/12=2,15=1,29=3,40=1/2;
 3/5=44,7=101,11=2,14=-6,25=1,30=1,71=2,74=-5,116=-2,140=1/1,2,3;
 4/5=1/1;
 5/5=2,38=6/2;
 8/6=4,10=90,11=11/1;
 11/6=1,8=1,9=11,15=111,16=1,31=1/1,2,10;
 10/6=1,13=1,31=1/2;
 7/10=1,18=20,25=1,30=1/1,2,3,16;
 1/5=1,8=10,10=4,11=1,18=40,26=3/3(2);
 2/15=1,29=3/2;
 99//99;
 2/15=1,29=3/2;
 3/5=44,7=101,11=2,14=-2,25=1,30=1,71=1,74=-5/1,2,3;
 4/5=5,16=3,69=1/1;
 5/5=2,38=5/2;
 7/30=1/1,2,3,16;
 1/5=1,8=10,11=1,18=40,26=3/3(-5);
 2/15=1,29=3/2;
 99/9=1/99;
 Structure from the checkpoint file:  "checkpoint.chk"
 -----------------
 ts_zmat_initalOpt
 -----------------
 Charge =  0 Multiplicity = 1
 Z-Matrix found in chk file.
 C
 C,1,R2
 C,1,R3,2,A3
 H,1,R4,2,A4,3,D4,0
 O,3,R5,1,A5,2,D5,0
 C,2,R6,1,A6,3,D6,0
 H,2,R7,1,A7,6,D7,0
 C,6,R8,2,A8,1,D8,0
 H,6,R9,2,A9,8,D9,0
 C,8,R10,6,A10,2,D10,0
 N,8,R11,6,A11,10,D11,0
 H,10,R12,8,A12,6,D12,0
 C,10,R13,8,A13,12,D13,0
 C,11,R14,8,A14,6,D14,0
 H,11,R15,8,A15,14,D15,0
 H,13,R16,10,A16,8,D16,0
 H,14,R17,11,A17,8,D17,0
      Variables:
 R2=1.42068751
 R3=1.37196107
 R4=1.0862098
 R5=1.18067007
 R6=1.36517574
 R7=1.08412048
 R8=1.41942287
 R9=1.08162059
 R10=1.41430988
 R11=1.35953953
 R12=1.08275759
 R13=1.44188569
 R14=1.38890049
 R15=1.0063243
 R16=1.07675451
 R17=1.07681808
 A3=128.10668321
 A4=117.9122406
 A5=145.16814218
 A6=127.39770108
 A7=115.06967547
 A8=118.23625822
 A9=120.43846683
 A10=125.63811436
 A11=126.67004751
 A12=120.55908128
 A13=106.7070179
 A14=110.26745063
 A15=124.49798967
 A16=126.58500509
 A17=120.56179594
 D4=-164.97270346
 D5=179.89143854
 D6=0.33174767
 D7=175.28849053
 D8=-0.92758759
 D9=172.32497997
 D10=-26.4998703
 D11=169.91851767
 D12=-42.52474657
 D13=-145.86759258
 D14=-171.08878524
 D15=171.68435355
 D16=177.9478096
 D17=179.76525879
 Recover connectivity data from disk.

 GradGradGradGradGradGradGradGradGradGradGradGradGradGradGradGradGradGrad
 Berny optimization.
 Initialization pass.
                       ----------------------------
                       !    Initial Parameters    !
                       ! (Angstroms and Degrees)  !
 ----------------------                            ----------------------
 !      Name          Value   Derivative information (Atomic Units)     !
 ------------------------------------------------------------------------
 !       R2          1.4207   calculate D2E/DX2 analytically            !
 !       R3          1.372    calculate D2E/DX2 analytically            !
 !       R4          1.0862   calculate D2E/DX2 analytically            !
 !       R5          1.1807   calculate D2E/DX2 analytically            !
 !       R6          1.3652   calculate D2E/DX2 analytically            !
 !       R7          1.0841   calculate D2E/DX2 analytically            !
 !       R8          1.4194   calculate D2E/DX2 analytically            !
 !       R9          1.0816   calculate D2E/DX2 analytically            !
 !       R10         1.4143   calculate D2E/DX2 analytically            !
 !       R11         1.3595   calculate D2E/DX2 analytically            !
 !       R12         1.0828   calculate D2E/DX2 analytically            !
 !       R13         1.4419   calculate D2E/DX2 analytically            !
 !       R14         1.3889   calculate D2E/DX2 analytically            !
 !       R15         1.0063   calculate D2E/DX2 analytically            !
 !       R16         1.0768   calculate D2E/DX2 analytically            !
 !       R17         1.0768   calculate D2E/DX2 analytically            !
 !       A3        128.1067   calculate D2E/DX2 analytically            !
 !       A4        117.9122   calculate D2E/DX2 analytically            !
 !       A5        145.1681   calculate D2E/DX2 analytically            !
 !       A6        127.3977   calculate D2E/DX2 analytically            !
 !       A7        115.0697   calculate D2E/DX2 analytically            !
 !       A8        118.2363   calculate D2E/DX2 analytically            !
 !       A9        120.4385   calculate D2E/DX2 analytically            !
 !       A10       125.6381   calculate D2E/DX2 analytically            !
 !       A11       126.67     calculate D2E/DX2 analytically            !
 !       A12       120.5591   calculate D2E/DX2 analytically            !
 !       A13       106.707    calculate D2E/DX2 analytically            !
 !       A14       110.2675   calculate D2E/DX2 analytically            !
 !       A15       124.498    calculate D2E/DX2 analytically            !
 !       A16       126.585    calculate D2E/DX2 analytically            !
 !       A17       120.5618   calculate D2E/DX2 analytically            !
 !       D4       -164.9727   calculate D2E/DX2 analytically            !
 !       D5        179.8914   calculate D2E/DX2 analytically            !
 !       D6          0.3317   calculate D2E/DX2 analytically            !
 !       D7        175.2885   calculate D2E/DX2 analytically            !
 !       D8         -0.9276   calculate D2E/DX2 analytically            !
 !       D9        172.325    calculate D2E/DX2 analytically            !
 !       D10       -26.4999   calculate D2E/DX2 analytically            !
 !       D11       169.9185   calculate D2E/DX2 analytically            !
 !       D12       -42.5247   calculate D2E/DX2 analytically            !
 !       D13      -145.8676   calculate D2E/DX2 analytically            !
 !       D14      -171.0888   calculate D2E/DX2 analytically            !
 !       D15       171.6844   calculate D2E/DX2 analytically            !
 !       D16       177.9478   calculate D2E/DX2 analytically            !
 !       D17       179.7653   calculate D2E/DX2 analytically            !
 ------------------------------------------------------------------------
 Trust Radius=1.00D-01 FncErr=1.00D-07 GrdErr=1.00D-06 EigMax=2.50D+02 EigMin=1.00D-04
 Number of steps in this run=     55 maximum allowed number of steps=    100.
 Search for a saddle point of order  1.
 GradGradGradGradGradGradGradGradGradGradGradGradGradGradGradGradGradGrad

 ---------------------------------------------------------------------------------------------------
                            Z-MATRIX (ANGSTROMS AND DEGREES)
   CD    Cent   Atom    N1       Length/X        N2       Alpha/Y        N3        Beta/Z          J
 ---------------------------------------------------------------------------------------------------
      1      1  C 
      2      2  C        1   1.420688(     1)
      3      3  C        1   1.371961(     2)      2  128.107(    17)
      4      4  H        1   1.086210(     3)      2  117.912(    18)      3 -164.973(    32)      0
      5      5  O        3   1.180670(     4)      1  145.168(    19)      2  179.891(    33)      0
      6      6  C        2   1.365176(     5)      1  127.398(    20)      3    0.332(    34)      0
      7      7  H        2   1.084120(     6)      1  115.070(    21)      6  175.288(    35)      0
      8      8  C        6   1.419423(     7)      2  118.236(    22)      1   -0.928(    36)      0
      9      9  H        6   1.081621(     8)      2  120.438(    23)      8  172.325(    37)      0
     10     10  C        8   1.414310(     9)      6  125.638(    24)      2  -26.500(    38)      0
     11     11  N        8   1.359540(    10)      6  126.670(    25)     10  169.919(    39)      0
     12     12  H       10   1.082758(    11)      8  120.559(    26)      6  -42.525(    40)      0
     13     13  C       10   1.441886(    12)      8  106.707(    27)     12 -145.868(    41)      0
     14     14  C       11   1.388900(    13)      8  110.267(    28)      6 -171.089(    42)      0
     15     15  H       11   1.006324(    14)      8  124.498(    29)     14  171.684(    43)      0
     16     16  H       13   1.076755(    15)     10  126.585(    30)      8  177.948(    44)      0
     17     17  H       14   1.076818(    16)     11  120.562(    31)      8  179.765(    45)      0
 ---------------------------------------------------------------------------------------------------
                         Z-Matrix orientation:                         
 ---------------------------------------------------------------------
 Center     Atomic      Atomic             Coordinates (Angstroms)
 Number     Number       Type             X           Y           Z
 ---------------------------------------------------------------------
      1          6           0        0.000000    0.000000    0.000000
      2          6           0        0.000000    0.000000    1.420688
      3          6           0        1.079545    0.000000   -0.846675
      4          1           0       -0.927022    0.248868   -0.508475
      5          8           0        1.425952   -0.001278   -1.975384
      6          6           0        1.084531    0.006280    2.249819
      7          1           0       -0.979121    0.074991    1.880051
      8          6           0        2.377519   -0.006478    1.664345
      9          1           0        0.959045    0.145046    3.315136
     10          6           0        2.701733   -0.537045    0.394047
     11          7           0        3.481004    0.644844    2.118711
     12          1           0        2.284407   -1.481878    0.069251
     13          6           0        4.067175   -0.160739    0.123870
     14          6           0        4.506499    0.562616    1.185628
     15          1           0        3.505046    1.216139    2.946801
     16          1           0        4.645973   -0.425469   -0.744642
     17          1           0        5.458997    1.027205    1.376521
 ---------------------------------------------------------------------
                    Distance matrix (angstroms):
                    1          2          3          4          5
     1  C    0.000000
     2  C    1.420688   0.000000
     3  C    1.371961   2.511245   0.000000
     4  H    1.086210   2.154756   2.050031   0.000000
     5  O    2.436284   3.683292   1.180670   2.784040   0.000000
     6  C    2.497585   1.365176   3.096504   3.422481   4.238981
     7  H    2.121060   1.084120   3.417421   2.395413   4.544730
     8  C    2.902186   2.389981   2.826659   3.963123   3.762065
     9  H    3.454118   2.128318   4.166081   4.264742   5.313098
    10  C    2.782634   2.939689   2.111706   3.821004   2.743878
    11  N    4.125791   3.608386   3.869928   5.146804   4.626264
    12  H    2.723834   3.039878   2.118154   3.693579   2.666394
    13  C    4.072235   4.271942   3.145430   5.050707   3.377626
    14  C    4.693696   4.547562   4.023779   5.700137   4.449690
    15  H    4.737929   4.011653   4.663958   5.702435   5.480204
    16  H    4.724466   5.143417   3.593165   5.618609   3.473212
    17  H    5.722815   5.554976   5.017704   6.703750   5.344015
                    6          7          8          9         10
     6  C    0.000000
     7  H    2.097644   0.000000
     8  C    1.419423   3.364551   0.000000
     9  H    1.081621   2.412646   2.181774   0.000000
    10  C    2.520800   4.016402   1.414310   3.469145   0.000000
    11  N    2.483554   4.502711   1.359540   2.835756   2.231275
    12  H    2.899860   4.043940   2.174810   3.865130   1.082758
    13  C    3.666568   5.348350   2.291680   4.465217   1.441886
    14  C    3.626552   5.550858   2.255126   4.158558   2.256775
    15  H    2.794358   4.748466   2.100191   2.786581   3.199299
    16  H    4.673015   6.227452   3.335364   5.513684   2.255910
    17  H    4.576122   6.527605   3.262951   4.978555   3.318831
                   11         12         13         14         15
    11  N    0.000000
    12  H    3.186703   0.000000
    13  C    2.229787   2.219607   0.000000
    14  C    1.388900   3.219308   1.357784   0.000000
    15  H    1.006324   4.129109   3.190724   2.128786   0.000000
    16  H    3.271316   2.712087   1.076755   2.172948   4.198015
    17  H    2.146975   4.252350   2.217547   1.076818   2.513842
                   16         17
    16  H    0.000000
    17  H    2.696405   0.000000
 Symmetry turned off by external request.
 Stoichiometry    C8H7NO
 Framework group  C1[X(C8H7NO)]
 Deg. of freedom    45
 Full point group                 C1      NOp   1
 Rotational constants (GHZ):           2.1610742           1.3580147           0.8747965
 Standard basis: def2TZVP (5D, 7F)
 The following finite field(s) will be applied:
 An electric field of             -0.0029  0.0010 -0.0040
   352 basis functions,   566 primitive gaussians,   402 cartesian basis functions
    35 alpha electrons       35 beta electrons
       nuclear repulsion energy       479.4844072117 Hartrees.
 NAtoms=   17 NActive=   17 NUniq=   17 SFac= 1.00D+00 NAtFMM=   60 NAOKFM=F Big=F
 Integral buffers will be    131072 words long.
 Raffenetti 2 integral format.
 Two-electron integral symmetry is turned off.
 One-electron integrals computed using PRISM.
   1 Symmetry operations used in ECPInt.
 ECPInt:  NShTT=    9591 NPrTT=   29644 LenC2=    9331 LenP2D=   22706.
 LDataN:  DoStor=T MaxTD1= 6 Len=  172
 NBasis=   352 RedAO= T EigKep=  3.67D-05  NBF=   352
 NBsUse=   352 1.00D-06 EigRej= -1.00D+00 NBFU=   352
 The nuclear repulsion energy is now       478.3591969884 hartrees.
 Initial guess from the checkpoint file:  "checkpoint.chk"
 B after Tr=     0.000000    0.000000    0.000000
         Rot=    1.000000   -0.000000    0.000000    0.000000 Ang=   0.00 deg.
 Requested convergence on RMS density matrix=1.00D-08 within 128 cycles.
 Requested convergence on MAX density matrix=1.00D-06.
 Requested convergence on             energy=1.00D-06.
 No special actions if energy rises.
 SCF Done:  E(RB3LYP) =  -439.143677573     A.U. after   11 cycles
            NFock= 11  Conv=0.52D-08     -V/T= 2.0049
 DoSCS=F DFT=T ScalE2(SS,OS)=  1.000000  1.000000
 Range of M.O.s used for correlation:     1   352
 NBasis=   352 NAE=    35 NBE=    35 NFC=     0 NFV=     0
 NROrb=    352 NOA=    35 NOB=    35 NVA=   317 NVB=   317

 **** Warning!!: The largest alpha MO coefficient is  0.29136364D+02

   1 Symmetry operations used in ECPInt.
 ECPInt:  NShTT=    9591 NPrTT=   29644 LenC2=    9331 LenP2D=   22706.
 LDataN:  DoStor=T MaxTD1= 7 Len=  274
 Symmetrizing basis deriv contribution to polar:
 IMax=3 JMax=2 DiffMx= 0.00D+00
 G2DrvN: will do    18 centers at a time, making    1 passes.
 Calling FoFCou, ICntrl=  3107 FMM=F I1Cent=   0 AccDes= 0.00D+00.
 End of G2Drv F.D. properties file   721 does not exist.
 End of G2Drv F.D. properties file   722 does not exist.
 End of G2Drv F.D. properties file   788 does not exist.
          IDoAtm=11111111111111111
          Differentiating once with respect to nuclear coordinates.
 CalDSu exits because no D1Ps are significant.
          There are    54 degrees of freedom in the 1st order CPHF.  IDoFFX=6 NUNeed=     0.
     48 vectors produced by pass  0 Test12= 2.05D-14 1.85D-09 XBig12= 1.71D-01 1.52D-01.
 AX will form    48 AO Fock derivatives at one time.
     48 vectors produced by pass  1 Test12= 2.05D-14 1.85D-09 XBig12= 4.39D-02 7.78D-02.
     48 vectors produced by pass  2 Test12= 2.05D-14 1.85D-09 XBig12= 7.15D-04 3.42D-03.
     48 vectors produced by pass  3 Test12= 2.05D-14 1.85D-09 XBig12= 3.65D-06 1.97D-04.
     48 vectors produced by pass  4 Test12= 2.05D-14 1.85D-09 XBig12= 1.21D-08 1.31D-05.
     48 vectors produced by pass  5 Test12= 2.05D-14 1.85D-09 XBig12= 2.40D-11 6.09D-07.
     20 vectors produced by pass  6 Test12= 2.05D-14 1.85D-09 XBig12= 3.94D-14 2.28D-08.
 InvSVY:  IOpt=1 It=  1 EMax= 6.11D-16
 Solved reduced A of dimension   308 with    54 vectors.
 End of Minotr F.D. properties file   721 does not exist.
 End of Minotr F.D. properties file   722 does not exist.
 End of Minotr F.D. properties file   788 does not exist.
   1 Symmetry operations used in ECPInt.
 ECPInt:  NShTT=    9591 NPrTT=   29644 LenC2=    9331 LenP2D=   22706.
 LDataN:  DoStor=T MaxTD1= 8 Len=  415
 Calling FoFJK, ICntrl=    100147 FMM=F ISym2X=0 I1Cent= 0 IOpClX= 0 NMat=1 NMatS=1 NMatT=0.
 -------------------------------------------------------------------
 Center     Atomic                   Forces (Hartrees/Bohr)
 Number     Number              X              Y              Z
 -------------------------------------------------------------------
      1        6           0.000102007    0.001217767   -0.002147373
      2        6           0.000902191   -0.000767526    0.001933295
      3        6           0.000970358   -0.000641542    0.005923989
      4        1          -0.000426481    0.000032575   -0.000005157
      5        8           0.000143958    0.000098472   -0.004719790
      6        6          -0.000999177    0.000297014   -0.000505009
      7        1           0.000027029   -0.000062641    0.000201532
      8        6           0.001063571    0.000897770    0.000938956
      9        1           0.000055456   -0.000204161   -0.000051549
     10        6          -0.001247913    0.000170415   -0.001764166
     11        7          -0.001003197   -0.000407652   -0.001082274
     12        1           0.000260512   -0.000380371    0.000383337
     13        6           0.000022387    0.000339064   -0.000340343
     14        6          -0.000449077    0.000017137    0.000098592
     15        1           0.000359883   -0.000223706    0.000724954
     16        1           0.000132626   -0.000151172    0.000198565
     17        1           0.000085867   -0.000231441    0.000212439
 -------------------------------------------------------------------
 Cartesian Forces:  Max     0.005923989 RMS     0.001277030
 -----------------------------------------------------------------------------------------------
                       Internal Coordinate Forces (Hartree/Bohr or radian)
  Cent   Atom   N1       Length/X         N2         Alpha/Y        N3         Beta/Z          J
 -----------------------------------------------------------------------------------------------
      1  C 
      2  C        1   0.000948(     1)
      3  C        1   0.000134(     2)      2  -0.001457(    17)
      4  H        1   0.000374(     3)      2  -0.000395(    18)      3  -0.000144(    32)     0
      5  O        3   0.004554(     4)      1  -0.002782(    19)      2   0.000134(    33)     0
      6  C        2  -0.002086(     5)      1  -0.004597(    20)      3  -0.001221(    34)     0
      7  H        2   0.000057(     6)      1   0.000402(    21)      6   0.000112(    35)     0
      8  C        6  -0.000447(     7)      2  -0.004799(    22)      1   0.000870(    36)     0
      9  H        6  -0.000083(     8)      2   0.000128(    23)      8   0.000337(    37)     0
     10  C        8   0.001185(     9)      6  -0.002487(    24)      2   0.002362(    38)     0
     11  N        8  -0.001238(    10)      6   0.000205(    25)     10   0.002282(    39)     0
     12  H       10   0.000117(    11)      8  -0.000478(    26)      6  -0.001224(    40)     0
     13  C       10   0.000222(    12)      8  -0.000132(    27)     12  -0.000273(    41)     0
     14  C       11  -0.000464(    13)      8  -0.000198(    28)      6   0.000441(    42)     0
     15  H       11   0.000478(    14)      8   0.000361(    29)     14   0.001040(    43)     0
     16  H       13  -0.000052(    15)     10   0.000202(    30)      8  -0.000424(    44)     0
     17  H       14   0.000014(    16)     11  -0.000172(    31)      8   0.000551(    45)     0
 -----------------------------------------------------------------------------------------------
 Internal  Forces:  Max     0.004799427 RMS     0.001544965

 GradGradGradGradGradGradGradGradGradGradGradGradGradGradGradGradGradGrad
 Berny optimization.
 Search for a saddle point.
 Step number   1 out of a maximum of   55
 All quantities printed in internal units (Hartrees-Bohrs-Radians)
 Swapping is turned off.
 Second derivative matrix not updated -- analytic derivatives used.
 ITU=  0
     Eigenvalues ---   -0.18352   0.01601   0.01842   0.02196   0.02973
     Eigenvalues ---    0.04500   0.04955   0.05214   0.06533   0.07348
     Eigenvalues ---    0.11033   0.13874   0.15595   0.15945   0.16805
     Eigenvalues ---    0.18946   0.19086   0.19736   0.22011   0.25209
     Eigenvalues ---    0.30036   0.32049   0.33705   0.34268   0.34902
     Eigenvalues ---    0.35425   0.35457   0.35894   0.37087   0.37292
     Eigenvalues ---    0.37541   0.39326   0.40945   0.45378   0.46785
     Eigenvalues ---    0.48484   0.50889   0.57780   0.63320   0.76733
     Eigenvalues ---    0.88215   1.50485   1.97724   2.05966  25.39488
 Eigenvectors required to have negative eigenvalues:
                          A5        D12       A8        D13       R3
   1                    0.63060   0.31045   0.29526  -0.25029  -0.21898
                          A3        A10       A11       A12       A6
   1                    0.21356   0.17377  -0.17047   0.16559   0.14539
 RFO step:  Lambda0=1.970357664D-04 Lambda=-2.51753487D-04.
 Linear search not attempted -- option 19 set.
 Variable       Old X    -DE/DX   Delta X   Delta X   Delta X     New X
                                 (Linear)    (Quad)   (Total)
    R2        2.68471   0.00095   0.00000   0.00884   0.00884   2.69355
    R3        2.59263   0.00013   0.00000  -0.00726  -0.00726   2.58537
    R4        2.05264   0.00037   0.00000   0.00160   0.00160   2.05424
    R5        2.23114   0.00455   0.00000   0.00218   0.00218   2.23332
    R6        2.57981  -0.00209   0.00000  -0.00656  -0.00656   2.57325
    R7        2.04869   0.00006   0.00000  -0.00022  -0.00022   2.04847
    R8        2.68232  -0.00045   0.00000   0.00503   0.00503   2.68735
    R9        2.04397  -0.00008   0.00000   0.00013   0.00013   2.04410
   R10        2.67266   0.00119   0.00000  -0.00213  -0.00213   2.67053
   R11        2.56916  -0.00124   0.00000  -0.00176  -0.00176   2.56740
   R12        2.04612   0.00012   0.00000  -0.00108  -0.00108   2.04504
   R13        2.72477   0.00022   0.00000  -0.00413  -0.00413   2.72064
   R14        2.62464  -0.00046   0.00000  -0.00437  -0.00437   2.62028
   R15        1.90168   0.00048   0.00000   0.00091   0.00091   1.90258
   R16        2.03477  -0.00005   0.00000  -0.00010  -0.00010   2.03467
   R17        2.03489   0.00001   0.00000  -0.00001  -0.00001   2.03488
    A3        2.23588  -0.00146   0.00000   0.00706   0.00706   2.24294
    A4        2.05796  -0.00039   0.00000  -0.00550  -0.00550   2.05245
    A5        2.53366  -0.00278   0.00000   0.01085   0.01085   2.54451
    A6        2.22351  -0.00460   0.00000  -0.00248  -0.00248   2.22103
    A7        2.00834   0.00040   0.00000   0.00100   0.00100   2.00935
    A8        2.06361  -0.00480   0.00000   0.00621   0.00621   2.06982
    A9        2.10205   0.00013   0.00000   0.00008   0.00008   2.10213
   A10        2.19280  -0.00249   0.00000   0.00595   0.00595   2.19875
   A11        2.21081   0.00021   0.00000  -0.00421  -0.00421   2.20660
   A12        2.10415  -0.00048   0.00000   0.00646   0.00646   2.11061
   A13        1.86239  -0.00013   0.00000   0.00060   0.00060   1.86299
   A14        1.92453  -0.00020   0.00000   0.00106   0.00106   1.92559
   A15        2.17290   0.00036   0.00000   0.00364   0.00364   2.17654
   A16        2.20933   0.00020   0.00000   0.00194   0.00194   2.21127
   A17        2.10420  -0.00017   0.00000   0.00049   0.00049   2.10469
    D4       -2.87932  -0.00014   0.00000   0.02130   0.02130  -2.85802
    D5        3.13970   0.00013   0.00000   0.01279   0.01279   3.15249
    D6        0.00579  -0.00122   0.00000  -0.02905  -0.02905  -0.02326
    D7        3.05936   0.00011   0.00000   0.01293   0.01293   3.07229
    D8       -0.01619   0.00087   0.00000  -0.00005  -0.00005  -0.01624
    D9        3.00764   0.00034   0.00000   0.01783   0.01783   3.02547
   D10       -0.46251   0.00236   0.00000   0.00387   0.00387  -0.45864
   D11        2.96564   0.00228   0.00000   0.01284   0.01284   2.97847
   D12       -0.74220  -0.00122   0.00000   0.02980   0.02980  -0.71240
   D13       -2.54587  -0.00027   0.00000  -0.01795  -0.01795  -2.56382
   D14       -2.98606   0.00044   0.00000  -0.01599  -0.01599  -3.00205
   D15        2.99646   0.00104   0.00000   0.04363   0.04363   3.04009
   D16        3.10578  -0.00042   0.00000  -0.01020  -0.01020   3.09557
   D17        3.13750   0.00055   0.00000   0.01252   0.01252   3.15002
         Item               Value     Threshold  Converged?
 Maximum Force            0.004799     0.000450     NO 
 RMS     Force            0.001545     0.000300     NO 
 Maximum Displacement     0.043630     0.001800     NO 
 RMS     Displacement     0.011894     0.001200     NO 
 Predicted change in Energy=-2.792308D-05
 GradGradGradGradGradGradGradGradGradGradGradGradGradGradGradGradGradGrad

 ---------------------------------------------------------------------------------------------------
                            Z-MATRIX (ANGSTROMS AND DEGREES)
   CD    Cent   Atom    N1       Length/X        N2       Alpha/Y        N3        Beta/Z          J
 ---------------------------------------------------------------------------------------------------
      1      1  C 
      2      2  C        1   1.425368(     1)
      3      3  C        1   1.368117(     2)      2  128.511(    17)
      4      4  H        1   1.087057(     3)      2  117.597(    18)      3 -163.752(    32)      0
      5      5  O        3   1.181824(     4)      1  145.790(    19)      2  180.624(    33)      0
      6      6  C        2   1.361705(     5)      1  127.255(    20)      3   -1.333(    34)      0
      7      7  H        2   1.084006(     6)      1  115.127(    21)      6  176.029(    35)      0
      8      8  C        6   1.422083(     7)      2  118.592(    22)      1   -0.930(    36)      0
      9      9  H        6   1.081691(     8)      2  120.443(    23)      8  173.347(    37)      0
     10     10  C        8   1.413185(     9)      6  125.979(    24)      2  -26.278(    38)      0
     11     11  N        8   1.358608(    10)      6  126.429(    25)     10  170.654(    39)      0
     12     12  H       10   1.082188(    11)      8  120.929(    26)      6  -40.817(    40)      0
     13     13  C       10   1.439702(    12)      8  106.741(    27)     12 -146.896(    41)      0
     14     14  C       11   1.386590(    13)      8  110.328(    28)      6 -172.005(    42)      0
     15     15  H       11   1.006804(    14)      8  124.706(    29)     14  174.184(    43)      0
     16     16  H       13   1.076702(    15)     10  126.696(    30)      8  177.363(    44)      0
     17     17  H       14   1.076812(    16)     11  120.590(    31)      8  180.483(    45)      0
 ---------------------------------------------------------------------------------------------------
                         Z-Matrix orientation:                         
 ---------------------------------------------------------------------
 Center     Atomic      Atomic             Coordinates (Angstroms)
 Number     Number       Type             X           Y           Z
 ---------------------------------------------------------------------
      1          6           0        0.000000    0.000000    0.000000
      2          6           0        0.000000    0.000000    1.425368
      3          6           0        1.070536    0.000000   -0.851879
      4          1           0       -0.924905    0.269543   -0.503578
      5          8           0        1.421589    0.007240   -1.980337
      6          6           0        1.083549   -0.025207    2.249701
      7          1           0       -0.977223    0.090710    1.885667
      8          6           0        2.380219   -0.075648    1.667959
      9          1           0        0.963078    0.100700    3.317264
     10          6           0        2.700808   -0.609287    0.399282
     11          7           0        3.500574    0.530489    2.140418
     12          1           0        2.243052   -1.525330    0.049347
     13          6           0        4.081229   -0.285279    0.149880
     14          6           0        4.535066    0.411751    1.224798
     15          1           0        3.546036    1.069440    2.989606
     16          1           0        4.664808   -0.572998   -0.707990
     17          1           0        5.505045    0.828541    1.436808
 ---------------------------------------------------------------------
                    Distance matrix (angstroms):
                    1          2          3          4          5
     1  C    0.000000
     2  C    1.425368   0.000000
     3  C    1.368117   2.516326   0.000000
     4  H    1.087057   2.156139   2.043465   0.000000
     5  O    2.437766   3.690500   1.181824   2.784897   0.000000
     6  C    2.497173   1.361705   3.101710   3.420718   4.243648
     7  H    2.125779   1.084006   3.419898   2.396500   4.550523
     8  C    2.907448   2.393745   2.840876   3.969707   3.773050
     9  H    3.455706   2.125308   4.171743   4.265187   5.318228
    10  C    2.797324   2.952702   2.143460   3.838397   2.771117
    11  N    4.137249   3.612026   3.891060   5.161751   4.645061
    12  H    2.712996   3.041602   2.124531   3.682831   2.672674
    13  C    4.093931   4.285403   3.185777   5.078996   3.420098
    14  C    4.715558   4.558134   4.060183   5.728768   4.486675
    15  H    4.759813   4.020561   4.693486   5.729876   5.508346
    16  H    4.752895   5.161393   3.642503   5.656549   3.531857
    17  H    5.749472   5.567058   5.058601   6.739572   5.387581
                    6          7          8          9         10
     6  C    0.000000
     7  H    2.095887   0.000000
     8  C    1.422083   3.368603   0.000000
     9  H    1.081691   2.411294   2.181649   0.000000
    10  C    2.526011   4.028307   1.413185   3.469641   0.000000
    11  N    2.482489   4.506548   1.358608   2.829942   2.229411
    12  H    2.904544   4.043987   2.177223   3.868021   1.082188
    13  C    3.669192   5.361181   2.289530   4.461409   1.439702
    14  C    3.626889   5.561038   2.253290   4.151417   2.255769
    15  H    2.794557   4.757780   2.101691   2.778036   3.200361
    16  H    4.676904   6.245005   3.333443   5.509932   2.254920
    17  H    4.575949   6.539547   3.261216   4.969440   3.317764
                   11         12         13         14         15
    11  N    0.000000
    12  H    3.190663   0.000000
    13  C    2.228201   2.219623   0.000000
    14  C    1.386590   3.222932   1.359142   0.000000
    15  H    1.006804   4.132278   3.191511   2.127272   0.000000
    16  H    3.269030   2.710240   1.076702   2.173069   4.197793
    17  H    2.145183   4.255157   2.219016   1.076812   2.511361
                   16         17
    16  H    0.000000
    17  H    2.696380   0.000000
 Symmetry turned off by external request.
 Stoichiometry    C8H7NO
 Framework group  C1[X(C8H7NO)]
 Deg. of freedom    45
 Full point group                 C1      NOp   1
 Rotational constants (GHZ):           2.1645279           1.3414990           0.8682841
 Standard basis: def2TZVP (5D, 7F)
 The following finite field(s) will be applied:
 An electric field of             -0.0029  0.0010 -0.0040
   352 basis functions,   566 primitive gaussians,   402 cartesian basis functions
    35 alpha electrons       35 beta electrons
       nuclear repulsion energy       478.6250694644 Hartrees.
 NAtoms=   17 NActive=   17 NUniq=   17 SFac= 1.00D+00 NAtFMM=   60 NAOKFM=F Big=F
 Integral buffers will be    131072 words long.
 Raffenetti 2 integral format.
 Two-electron integral symmetry is turned off.
 One-electron integrals computed using PRISM.
   1 Symmetry operations used in ECPInt.
 ECPInt:  NShTT=    9591 NPrTT=   29644 LenC2=    9326 LenP2D=   22684.
 LDataN:  DoStor=T MaxTD1= 6 Len=  172
 NBasis=   352 RedAO= T EigKep=  3.77D-05  NBF=   352
 NBsUse=   352 1.00D-06 EigRej= -1.00D+00 NBFU=   352
 The nuclear repulsion energy is now       477.4855202580 hartrees.
 Initial guess from the checkpoint file:  "checkpoint.chk"
 B after Tr=     0.013235    0.036900    0.003038
         Rot=    0.999844   -0.006219    0.001888    0.016402 Ang=  -2.02 deg.
 ExpMin= 9.52D-02 ExpMax= 2.70D+04 ExpMxC= 9.22D+02 IAcc=2 IRadAn=         4 AccDes= 0.00D+00
 Harris functional with IExCor=  402 and IRadAn=       4 diagonalized for initial guess.
 HarFok:  IExCor=  402 AccDes= 0.00D+00 IRadAn=         4 IDoV= 1 UseB2=F ITyADJ=14
 ICtDFT=  3500011 ScaDFX=  1.000000  1.000000  1.000000  1.000000
 FoFCou: FMM=F IPFlag=           0 FMFlag=      100000 FMFlg1=           0
         NFxFlg=           0 DoJE=T BraDBF=F KetDBF=T FulRan=T
         wScrn=  0.000000 ICntrl=       500 IOpCl=  0 I1Cent=   200000004 NGrid=           0
         NMat0=    1 NMatS0=      1 NMatT0=    0 NMatD0=    1 NMtDS0=    0 NMtDT0=    0
 Symmetry not used in FoFCou.
 Requested convergence on RMS density matrix=1.00D-08 within 128 cycles.
 Requested convergence on MAX density matrix=1.00D-06.
 Requested convergence on             energy=1.00D-06.
 No special actions if energy rises.
 Integral accuracy reduced to 1.0D-05 until final iterations.
 Initial convergence to 1.0D-05 achieved.  Increase integral accuracy.
 SCF Done:  E(RB3LYP) =  -439.143705412     A.U. after   13 cycles
            NFock= 13  Conv=0.81D-08     -V/T= 2.0050
   1 Symmetry operations used in ECPInt.
 ECPInt:  NShTT=    9591 NPrTT=   29644 LenC2=    9326 LenP2D=   22684.
 LDataN:  DoStor=T MaxTD1= 7 Len=  274
 Calling FoFJK, ICntrl=      2127 FMM=F ISym2X=0 I1Cent= 0 IOpClX= 0 NMat=1 NMatS=1 NMatT=0.
 -------------------------------------------------------------------
 Center     Atomic                   Forces (Hartrees/Bohr)
 Number     Number              X              Y              Z
 -------------------------------------------------------------------
      1        6          -0.000735855    0.002641618    0.000022629
      2        6           0.000613650   -0.001728820   -0.000041802
      3        6           0.000036271   -0.000872438    0.000057995
      4        1          -0.000012458   -0.000014873    0.000002721
      5        8           0.000032342   -0.000021676   -0.000037907
      6        6           0.000116500   -0.000008672    0.000024054
      7        1          -0.000002842    0.000005282   -0.000003178
      8        6          -0.000085178   -0.000000240    0.000038941
      9        1          -0.000009060    0.000014203    0.000000268
     10        6          -0.000033732   -0.000019334   -0.000130773
     11        7           0.000078807    0.000053920    0.000087243
     12        1          -0.000010541   -0.000011634    0.000009664
     13        6           0.000032905   -0.000057999   -0.000068782
     14        6           0.000022032    0.000035070    0.000022068
     15        1          -0.000035034   -0.000012554    0.000019902
     16        1          -0.000008936   -0.000001565   -0.000008813
     17        1           0.000001130   -0.000000289    0.000005772
 -------------------------------------------------------------------
 Cartesian Forces:  Max     0.002641618 RMS     0.000479559
 -----------------------------------------------------------------------------------------------
                       Internal Coordinate Forces (Hartree/Bohr or radian)
  Cent   Atom   N1       Length/X         N2         Alpha/Y        N3         Beta/Z          J
 -----------------------------------------------------------------------------------------------
      1  C 
      2  C        1  -0.000045(     1)
      3  C        1   0.000041(     2)      2  -0.000195(    17)
      4  H        1   0.000006(     3)      2  -0.000012(    18)      3  -0.000032(    32)     0
      5  O        3   0.000046(     4)      1   0.000044(    19)      2  -0.000027(    33)     0
      6  C        2   0.000055(     5)      1  -0.000205(    20)      3  -0.000134(    34)     0
      7  H        2   0.000002(     6)      1  -0.000009(    21)      6  -0.000009(    35)     0
      8  C        6  -0.000024(     7)      2  -0.000117(    22)      1  -0.000045(    36)     0
      9  H        6   0.000003(     8)      2  -0.000021(    23)      8  -0.000023(    37)     0
     10  C        8   0.000208(     9)      6  -0.000484(    24)      2   0.000093(    38)     0
     11  N        8   0.000136(    10)      6  -0.000459(    25)     10   0.000105(    39)     0
     12  H       10   0.000011(    11)      8  -0.000030(    26)      6   0.000057(    40)     0
     13  C       10   0.000023(    12)      8   0.000281(    27)     12   0.000061(    41)     0
     14  C       11  -0.000004(    13)      8   0.000137(    28)      6   0.000046(    42)     0
     15  H       11   0.000008(    14)      8  -0.000075(    29)     14   0.000020(    43)     0
     16  H       13   0.000003(    15)     10  -0.000023(    30)      8   0.000009(    44)     0
     17  H       14   0.000002(    16)     11  -0.000009(    31)      8   0.000005(    45)     0
 -----------------------------------------------------------------------------------------------
 Internal  Forces:  Max     0.000483930 RMS     0.000130807

 GradGradGradGradGradGradGradGradGradGradGradGradGradGradGradGradGradGrad
 Berny optimization.
 Search for a saddle point.
 Step number   2 out of a maximum of   55
 All quantities printed in internal units (Hartrees-Bohrs-Radians)
 Swapping is turned off.
 Update second derivatives using D2CorN and points    1    2
 ITU=  0  0
     Eigenvalues ---   -0.18288   0.01590   0.01845   0.02194   0.02968
     Eigenvalues ---    0.04499   0.04954   0.05215   0.06534   0.07349
     Eigenvalues ---    0.10997   0.13873   0.15595   0.15945   0.16807
     Eigenvalues ---    0.18945   0.19087   0.19735   0.22013   0.25209
     Eigenvalues ---    0.30037   0.32050   0.33706   0.34268   0.34902
     Eigenvalues ---    0.35424   0.35457   0.35895   0.37088   0.37292
     Eigenvalues ---    0.37541   0.39330   0.40944   0.45378   0.46786
     Eigenvalues ---    0.48485   0.50889   0.57782   0.63319   0.76728
     Eigenvalues ---    0.88212   1.50484   1.97718   2.05966  25.39487
 Eigenvectors required to have negative eigenvalues:
                          A5        D12       A8        D13       R3
   1                    0.63125   0.30989   0.29534  -0.25008  -0.21886
                          A3        A10       A11       A12       A6
   1                    0.21331   0.17372  -0.17068   0.16545   0.14527
 RFO step:  Lambda0=9.423573794D-08 Lambda=-5.05471105D-07.
 Linear search not attempted -- option 19 set.
 Variable       Old X    -DE/DX   Delta X   Delta X   Delta X     New X
                                 (Linear)    (Quad)   (Total)
    R2        2.69355  -0.00005   0.00000   0.00004   0.00004   2.69359
    R3        2.58537   0.00004   0.00000   0.00006   0.00006   2.58543
    R4        2.05424   0.00001   0.00000   0.00003   0.00003   2.05427
    R5        2.23332   0.00005   0.00000  -0.00004  -0.00004   2.23328
    R6        2.57325   0.00005   0.00000   0.00013   0.00013   2.57337
    R7        2.04847   0.00000   0.00000  -0.00001  -0.00001   2.04846
    R8        2.68735  -0.00002   0.00000  -0.00010  -0.00010   2.68724
    R9        2.04410   0.00000   0.00000   0.00002   0.00002   2.04412
   R10        2.67053   0.00021   0.00000   0.00010   0.00010   2.67063
   R11        2.56740   0.00014   0.00000   0.00023   0.00023   2.56763
   R12        2.04504   0.00001   0.00000  -0.00001  -0.00001   2.04503
   R13        2.72064   0.00002   0.00000  -0.00003  -0.00003   2.72062
   R14        2.62028  -0.00000   0.00000  -0.00002  -0.00002   2.62026
   R15        1.90258   0.00001   0.00000   0.00001   0.00001   1.90259
   R16        2.03467   0.00000   0.00000   0.00000   0.00000   2.03468
   R17        2.03488   0.00000   0.00000   0.00001   0.00001   2.03489
    A3        2.24294  -0.00019   0.00000  -0.00005  -0.00005   2.24289
    A4        2.05245  -0.00001   0.00000  -0.00010  -0.00010   2.05236
    A5        2.54451   0.00004   0.00000   0.00044   0.00044   2.54495
    A6        2.22103  -0.00021   0.00000  -0.00006  -0.00006   2.22096
    A7        2.00935  -0.00001   0.00000   0.00001   0.00001   2.00935
    A8        2.06982  -0.00012   0.00000   0.00028   0.00028   2.07010
    A9        2.10213  -0.00002   0.00000  -0.00023  -0.00023   2.10190
   A10        2.19875  -0.00048   0.00000   0.00022   0.00022   2.19897
   A11        2.20660  -0.00046   0.00000  -0.00021  -0.00021   2.20640
   A12        2.11061  -0.00003   0.00000   0.00003   0.00003   2.11064
   A13        1.86299   0.00028   0.00000  -0.00000  -0.00000   1.86298
   A14        1.92559   0.00014   0.00000  -0.00009  -0.00009   1.92549
   A15        2.17654  -0.00007   0.00000  -0.00027  -0.00027   2.17627
   A16        2.21127  -0.00002   0.00000  -0.00004  -0.00004   2.21122
   A17        2.10469  -0.00001   0.00000  -0.00003  -0.00003   2.10467
    D4       -2.85802  -0.00003   0.00000   0.00113   0.00113  -2.85689
    D5        3.15249  -0.00003   0.00000   0.00054   0.00054   3.15303
    D6       -0.02326  -0.00013   0.00000  -0.00184  -0.00184  -0.02510
    D7        3.07229  -0.00001   0.00000   0.00017   0.00017   3.07246
    D8       -0.01624  -0.00005   0.00000  -0.00015  -0.00015  -0.01638
    D9        3.02547  -0.00002   0.00000  -0.00005  -0.00005   3.02543
   D10       -0.45864   0.00009   0.00000   0.00077   0.00077  -0.45788
   D11        2.97847   0.00010   0.00000   0.00051   0.00051   2.97899
   D12       -0.71240   0.00006   0.00000   0.00086   0.00086  -0.71154
   D13       -2.56382   0.00006   0.00000  -0.00042  -0.00042  -2.56423
   D14       -3.00205   0.00005   0.00000  -0.00042  -0.00042  -3.00247
   D15        3.04009   0.00002   0.00000   0.00041   0.00041   3.04050
   D16        3.09557   0.00001   0.00000   0.00010   0.00010   3.09567
   D17        3.15002   0.00001   0.00000   0.00005   0.00005   3.15007
         Item               Value     Threshold  Converged?
 Maximum Force            0.000484     0.000450     NO 
 RMS     Force            0.000131     0.000300     YES
 Maximum Displacement     0.001839     0.001800     NO 
 RMS     Displacement     0.000415     0.001200     YES
 Predicted change in Energy=-2.056177D-07
 GradGradGradGradGradGradGradGradGradGradGradGradGradGradGradGradGradGrad

 ---------------------------------------------------------------------------------------------------
                            Z-MATRIX (ANGSTROMS AND DEGREES)
   CD    Cent   Atom    N1       Length/X        N2       Alpha/Y        N3        Beta/Z          J
 ---------------------------------------------------------------------------------------------------
      1      1  C 
      2      2  C        1   1.425388(     1)
      3      3  C        1   1.368151(     2)      2  128.508(    17)
      4      4  H        1   1.087070(     3)      2  117.592(    18)      3 -163.687(    32)      0
      5      5  O        3   1.181802(     4)      1  145.815(    19)      2  180.655(    33)      0
      6      6  C        2   1.361771(     5)      1  127.252(    20)      3   -1.438(    34)      0
      7      7  H        2   1.084001(     6)      1  115.127(    21)      6  176.039(    35)      0
      8      8  C        6   1.422027(     7)      2  118.608(    22)      1   -0.939(    36)      0
      9      9  H        6   1.081702(     8)      2  120.430(    23)      8  173.344(    37)      0
     10     10  C        8   1.413237(     9)      6  125.992(    24)      2  -26.234(    38)      0
     11     11  N        8   1.358732(    10)      6  126.417(    25)     10  170.683(    39)      0
     12     12  H       10   1.082184(    11)      8  120.931(    26)      6  -40.768(    40)      0
     13     13  C       10   1.439688(    12)      8  106.741(    27)     12 -146.920(    41)      0
     14     14  C       11   1.386581(    13)      8  110.323(    28)      6 -172.029(    42)      0
     15     15  H       11   1.006810(    14)      8  124.691(    29)     14  174.208(    43)      0
     16     16  H       13   1.076704(    15)     10  126.694(    30)      8  177.369(    44)      0
     17     17  H       14   1.076815(    16)     11  120.589(    31)      8  180.486(    45)      0
 ---------------------------------------------------------------------------------------------------
                         Z-Matrix orientation:                         
 ---------------------------------------------------------------------
 Center     Atomic      Atomic             Coordinates (Angstroms)
 Number     Number       Type             X           Y           Z
 ---------------------------------------------------------------------
      1          6           0        0.000000    0.000000    0.000000
      2          6           0        0.000000    0.000000    1.425388
      3          6           0        1.070604    0.000000   -0.851848
      4          1           0       -0.924656    0.270608   -0.503493
      5          8           0        1.422201    0.007595   -1.980112
      6          6           0        1.083606   -0.027202    2.249694
      7          1           0       -0.977063    0.092340    1.885692
      8          6           0        2.380250   -0.080209    1.668260
      9          1           0        0.963204    0.099127    3.317226
     10          6           0        2.700265   -0.613786    0.399353
     11          7           0        3.501916    0.522852    2.141902
     12          1           0        2.240126   -1.528203    0.048304
     13          6           0        4.081644   -0.293116    0.151026
     14          6           0        4.536590    0.402160    1.226758
     15          1           0        3.548002    1.060733    2.991741
     16          1           0        4.664954   -0.581661   -0.706752
     17          1           0        5.507510    0.816322    1.439633
 ---------------------------------------------------------------------
                    Distance matrix (angstroms):
                    1          2          3          4          5
     1  C    0.000000
     2  C    1.425388   0.000000
     3  C    1.368151   2.516346   0.000000
     4  H    1.087070   2.156107   2.043439   0.000000
     5  O    2.437941   3.690548   1.181802   2.785197   0.000000
     6  C    2.497211   1.361771   3.101689   3.420795   4.243479
     7  H    2.125797   1.084001   3.419882   2.396399   4.550614
     8  C    2.907768   2.393953   2.841224   3.970137   3.773087
     9  H    3.455658   2.125238   4.171635   4.265127   5.317973
    10  C    2.797793   2.953119   2.144303   3.838924   2.771536
    11  N    4.138180   3.612503   3.891940   5.162972   4.645611
    12  H    2.712176   3.041369   2.124490   3.681853   2.672479
    13  C    4.094941   4.285992   3.187167   5.080277   3.421229
    14  C    4.716706   4.558710   4.061453   5.730295   4.487662
    15  H    4.760670   4.020812   4.694234   5.731110   5.508851
    16  H    4.753907   5.161991   3.644001   5.657864   3.533287
    17  H    5.750791   5.567697   5.059981   6.741387   5.388733
                    6          7          8          9         10
     6  C    0.000000
     7  H    2.095982   0.000000
     8  C    1.422027   3.368768   0.000000
     9  H    1.081702   2.411218   2.181574   0.000000
    10  C    2.526149   4.028716   1.413237   3.469813   0.000000
    11  N    2.482419   4.506909   1.358732   2.829485   2.229589
    12  H    2.904593   4.043817   2.177287   3.868408   1.082184
    13  C    3.669244   5.361730   2.289557   4.461316   1.439688
    14  C    3.626824   5.561524   2.253311   4.151021   2.255845
    15  H    2.794187   4.757871   2.101664   2.777014   3.200491
    16  H    4.676971   6.245590   3.333468   5.509884   2.254885
    17  H    4.575878   6.540092   3.261257   4.968948   3.317833
                   11         12         13         14         15
    11  N    0.000000
    12  H    3.190939   0.000000
    13  C    2.228335   2.219725   0.000000
    14  C    1.386581   3.223167   1.359259   0.000000
    15  H    1.006810   4.132426   3.191761   2.127484   0.000000
    16  H    3.269164   2.710322   1.076704   2.173210   4.198081
    17  H    2.145161   4.255396   2.219112   1.076815   2.511663
                   16         17
    16  H    0.000000
    17  H    2.696521   0.000000
 Symmetry turned off by external request.
 Stoichiometry    C8H7NO
 Framework group  C1[X(C8H7NO)]
 Deg. of freedom    45
 Full point group                 C1      NOp   1
 Rotational constants (GHZ):           2.1647960           1.3409071           0.8680512
 Standard basis: def2TZVP (5D, 7F)
 The following finite field(s) will be applied:
 An electric field of             -0.0029  0.0010 -0.0040
   352 basis functions,   566 primitive gaussians,   402 cartesian basis functions
    35 alpha electrons       35 beta electrons
       nuclear repulsion energy       478.5918892537 Hartrees.
 NAtoms=   17 NActive=   17 NUniq=   17 SFac= 1.00D+00 NAtFMM=   60 NAOKFM=F Big=F
 Integral buffers will be    131072 words long.
 Raffenetti 2 integral format.
 Two-electron integral symmetry is turned off.
 One-electron integrals computed using PRISM.
   1 Symmetry operations used in ECPInt.
 ECPInt:  NShTT=    9591 NPrTT=   29644 LenC2=    9326 LenP2D=   22683.
 LDataN:  DoStor=T MaxTD1= 6 Len=  172
 NBasis=   352 RedAO= T EigKep=  3.78D-05  NBF=   352
 NBsUse=   352 1.00D-06 EigRej= -1.00D+00 NBFU=   352
 The nuclear repulsion energy is now       477.4514561060 hartrees.
 Initial guess from the checkpoint file:  "checkpoint.chk"
 B after Tr=     0.000977    0.002334    0.000059
         Rot=    0.999999   -0.000374    0.000124    0.001046 Ang=  -0.13 deg.
 Requested convergence on RMS density matrix=1.00D-08 within 128 cycles.
 Requested convergence on MAX density matrix=1.00D-06.
 Requested convergence on             energy=1.00D-06.
 No special actions if energy rises.
 SCF Done:  E(RB3LYP) =  -439.143705638     A.U. after    8 cycles
            NFock=  8  Conv=0.97D-08     -V/T= 2.0050
   1 Symmetry operations used in ECPInt.
 ECPInt:  NShTT=    9591 NPrTT=   29644 LenC2=    9326 LenP2D=   22683.
 LDataN:  DoStor=T MaxTD1= 7 Len=  274
 Calling FoFJK, ICntrl=      2127 FMM=F ISym2X=0 I1Cent= 0 IOpClX= 0 NMat=1 NMatS=1 NMatT=0.
 -------------------------------------------------------------------
 Center     Atomic                   Forces (Hartrees/Bohr)
 Number     Number              X              Y              Z
 -------------------------------------------------------------------
      1        6          -0.000683676    0.002693154   -0.000003179
      2        6           0.000687167   -0.001751172    0.000002683
      3        6          -0.000009872   -0.000935286    0.000000804
      4        1          -0.000000755   -0.000001480    0.000000130
      5        8           0.000005328   -0.000004849    0.000005934
      6        6          -0.000001020    0.000000069   -0.000000978
      7        1           0.000000135    0.000001082   -0.000000089
      8        6          -0.000001872    0.000002922   -0.000002499
      9        1          -0.000000091    0.000000509   -0.000000049
     10        6           0.000003339   -0.000002850   -0.000005343
     11        7           0.000000741   -0.000001786    0.000001041
     12        1          -0.000000221    0.000000616   -0.000000504
     13        6          -0.000002222   -0.000006745   -0.000005125
     14        6           0.000003375    0.000006020    0.000006974
     15        1           0.000000138   -0.000000739    0.000000304
     16        1          -0.000000426    0.000000066   -0.000000337
     17        1          -0.000000068    0.000000469    0.000000234
 -------------------------------------------------------------------
 Cartesian Forces:  Max     0.002693154 RMS     0.000487782
 -----------------------------------------------------------------------------------------------
                       Internal Coordinate Forces (Hartree/Bohr or radian)
  Cent   Atom   N1       Length/X         N2         Alpha/Y        N3         Beta/Z          J
 -----------------------------------------------------------------------------------------------
      1  C 
      2  C        1  -0.000004(     1)
      3  C        1  -0.000008(     2)      2  -0.000022(    17)
      4  H        1   0.000000(     3)      2  -0.000001(    18)      3  -0.000003(    32)     0
      5  O        3  -0.000004(     4)      1   0.000015(    19)      2  -0.000006(    33)     0
      6  C        2  -0.000002(     5)      1  -0.000013(    20)      3  -0.000014(    34)     0
      7  H        2  -0.000000(     6)      1  -0.000000(    21)      6  -0.000002(    35)     0
      8  C        6   0.000005(     7)      2   0.000003(    22)      1  -0.000006(    36)     0
      9  H        6   0.000000(     8)      2  -0.000000(    23)      8  -0.000001(    37)     0
     10  C        8   0.000014(     9)      6  -0.000031(    24)      2   0.000004(    38)     0
     11  N        8   0.000008(    10)      6  -0.000041(    25)     10   0.000010(    39)     0
     12  H       10  -0.000000(    11)      8   0.000001(    26)      6   0.000008(    40)     0
     13  C       10  -0.000003(    12)      8   0.000023(    27)     12   0.000007(    41)     0
     14  C       11  -0.000003(    13)      8   0.000026(    28)      6   0.000005(    42)     0
     15  H       11  -0.000000(    14)      8  -0.000000(    29)     14   0.000001(    43)     0
     16  H       13   0.000000(    15)     10  -0.000001(    30)      8   0.000001(    44)     0
     17  H       14   0.000000(    16)     11  -0.000001(    31)      8  -0.000001(    45)     0
 -----------------------------------------------------------------------------------------------
 Internal  Forces:  Max     0.000041301 RMS     0.000011214

 GradGradGradGradGradGradGradGradGradGradGradGradGradGradGradGradGradGrad
 Berny optimization.
 Search for a saddle point.
 Step number   3 out of a maximum of   55
 All quantities printed in internal units (Hartrees-Bohrs-Radians)
 Swapping is turned off.
 Update second derivatives using D2CorN and points    1    2    3
 ITU=  0  0  0
     Eigenvalues ---   -0.18358   0.01551   0.01848   0.02185   0.02964
     Eigenvalues ---    0.04497   0.04946   0.05207   0.06536   0.07347
     Eigenvalues ---    0.10812   0.13869   0.15591   0.15945   0.16800
     Eigenvalues ---    0.18945   0.19087   0.19735   0.22012   0.25210
     Eigenvalues ---    0.30037   0.32053   0.33706   0.34268   0.34901
     Eigenvalues ---    0.35424   0.35458   0.35896   0.37088   0.37292
     Eigenvalues ---    0.37541   0.39327   0.40932   0.45378   0.46786
     Eigenvalues ---    0.48487   0.50891   0.57759   0.63291   0.76735
     Eigenvalues ---    0.88201   1.50483   1.97679   2.05966  25.39465
 Eigenvectors required to have negative eigenvalues:
                          A5        D12       A8        D13       R3
   1                    0.63159   0.31122   0.29603  -0.24989  -0.21848
                          A3        A10       A11       A12       A6
   1                    0.21193   0.17440  -0.17114   0.16510   0.14483
 RFO step:  Lambda0=5.658169211D-10 Lambda= 0.00000000D+00.
 Linear search not attempted -- option 19 set.
 Variable       Old X    -DE/DX   Delta X   Delta X   Delta X     New X
                                 (Linear)    (Quad)   (Total)
    R2        2.69359  -0.00000   0.00000  -0.00000  -0.00000   2.69359
    R3        2.58543  -0.00001   0.00000   0.00001   0.00001   2.58544
    R4        2.05427   0.00000   0.00000   0.00000   0.00000   2.05427
    R5        2.23328  -0.00000   0.00000   0.00000   0.00000   2.23328
    R6        2.57337  -0.00000   0.00000   0.00000   0.00000   2.57338
    R7        2.04846  -0.00000   0.00000  -0.00000  -0.00000   2.04846
    R8        2.68724   0.00000   0.00000  -0.00001  -0.00001   2.68723
    R9        2.04412   0.00000   0.00000   0.00000   0.00000   2.04412
   R10        2.67063   0.00001   0.00000   0.00002   0.00002   2.67065
   R11        2.56763   0.00001   0.00000  -0.00000  -0.00000   2.56763
   R12        2.04503  -0.00000   0.00000   0.00000   0.00000   2.04503
   R13        2.72062  -0.00000   0.00000   0.00000   0.00000   2.72062
   R14        2.62026  -0.00000   0.00000  -0.00000  -0.00000   2.62026
   R15        1.90259  -0.00000   0.00000   0.00000   0.00000   1.90259
   R16        2.03468   0.00000   0.00000  -0.00000  -0.00000   2.03468
   R17        2.03489   0.00000   0.00000   0.00000   0.00000   2.03489
    A3        2.24289  -0.00002   0.00000  -0.00003  -0.00003   2.24286
    A4        2.05236  -0.00000   0.00000  -0.00000  -0.00000   2.05236
    A5        2.54495   0.00002   0.00000  -0.00001  -0.00001   2.54494
    A6        2.22096  -0.00001   0.00000  -0.00001  -0.00001   2.22095
    A7        2.00935  -0.00000   0.00000   0.00001   0.00001   2.00936
    A8        2.07010   0.00000   0.00000   0.00001   0.00001   2.07011
    A9        2.10190  -0.00000   0.00000  -0.00000  -0.00000   2.10190
   A10        2.19897  -0.00003   0.00000   0.00001   0.00001   2.19898
   A11        2.20640  -0.00004   0.00000  -0.00001  -0.00001   2.20639
   A12        2.11064   0.00000   0.00000  -0.00002  -0.00002   2.11063
   A13        1.86298   0.00002   0.00000  -0.00001  -0.00001   1.86298
   A14        1.92549   0.00003   0.00000   0.00000   0.00000   1.92550
   A15        2.17627  -0.00000   0.00000  -0.00000  -0.00000   2.17627
   A16        2.21122  -0.00000   0.00000  -0.00000  -0.00000   2.21122
   A17        2.10467  -0.00000   0.00000  -0.00000  -0.00000   2.10467
    D4       -2.85689  -0.00000   0.00000   0.00009   0.00009  -2.85679
    D5        3.15303  -0.00001   0.00000   0.00002   0.00002   3.15306
    D6       -0.02510  -0.00001   0.00000  -0.00016  -0.00016  -0.02526
    D7        3.07246  -0.00000   0.00000  -0.00000  -0.00000   3.07246
    D8       -0.01638  -0.00001   0.00000  -0.00000  -0.00000  -0.01638
    D9        3.02543  -0.00000   0.00000  -0.00002  -0.00002   3.02541
   D10       -0.45788   0.00000   0.00000   0.00009   0.00009  -0.45779
   D11        2.97899   0.00001   0.00000   0.00006   0.00006   2.97904
   D12       -0.71154   0.00001   0.00000  -0.00003  -0.00003  -0.71156
   D13       -2.56423   0.00001   0.00000   0.00006   0.00006  -2.56417
   D14       -3.00247   0.00001   0.00000  -0.00004  -0.00004  -3.00251
   D15        3.04050   0.00000   0.00000   0.00003   0.00003   3.04053
   D16        3.09567   0.00000   0.00000   0.00002   0.00002   3.09569
   D17        3.15007  -0.00000   0.00000  -0.00002  -0.00002   3.15005
         Item               Value     Threshold  Converged?
 Maximum Force            0.000041     0.000450     YES
 RMS     Force            0.000011     0.000300     YES
 Maximum Displacement     0.000161     0.001800     YES
 RMS     Displacement     0.000036     0.001200     YES
 Predicted change in Energy=-1.746696D-09
 Optimization completed.
    -- Stationary point found.
                       ----------------------------
                       !   Optimized Parameters   !
                       ! (Angstroms and Degrees)  !
 ----------------------                            ----------------------
 !      Name          Value   Derivative information (Atomic Units)     !
 ------------------------------------------------------------------------
 !       R2          1.4254   -DE/DX =    0.0                           !
 !       R3          1.3682   -DE/DX =    0.0                           !
 !       R4          1.0871   -DE/DX =    0.0                           !
 !       R5          1.1818   -DE/DX =    0.0                           !
 !       R6          1.3618   -DE/DX =    0.0                           !
 !       R7          1.084    -DE/DX =    0.0                           !
 !       R8          1.422    -DE/DX =    0.0                           !
 !       R9          1.0817   -DE/DX =    0.0                           !
 !       R10         1.4132   -DE/DX =    0.0                           !
 !       R11         1.3587   -DE/DX =    0.0                           !
 !       R12         1.0822   -DE/DX =    0.0                           !
 !       R13         1.4397   -DE/DX =    0.0                           !
 !       R14         1.3866   -DE/DX =    0.0                           !
 !       R15         1.0068   -DE/DX =    0.0                           !
 !       R16         1.0767   -DE/DX =    0.0                           !
 !       R17         1.0768   -DE/DX =    0.0                           !
 !       A3        128.5082   -DE/DX =    0.0                           !
 !       A4        117.5915   -DE/DX =    0.0                           !
 !       A5        145.815    -DE/DX =    0.0                           !
 !       A6        127.2518   -DE/DX =    0.0                           !
 !       A7        115.1275   -DE/DX =    0.0                           !
 !       A8        118.608    -DE/DX =    0.0                           !
 !       A9        120.43     -DE/DX =    0.0                           !
 !       A10       125.9917   -DE/DX =    0.0                           !
 !       A11       126.4172   -DE/DX =    0.0                           !
 !       A12       120.9309   -DE/DX =    0.0                           !
 !       A13       106.741    -DE/DX =    0.0                           !
 !       A14       110.3227   -DE/DX =    0.0                           !
 !       A15       124.6909   -DE/DX =    0.0                           !
 !       A16       126.6938   -DE/DX =    0.0                           !
 !       A17       120.5886   -DE/DX =    0.0                           !
 !       D4       -163.6875   -DE/DX =    0.0                           !
 !       D5        180.6553   -DE/DX =    0.0                           !
 !       D6         -1.438    -DE/DX =    0.0                           !
 !       D7        176.0391   -DE/DX =    0.0                           !
 !       D8         -0.9387   -DE/DX =    0.0                           !
 !       D9        173.3441   -DE/DX =    0.0                           !
 !       D10       -26.2343   -DE/DX =    0.0                           !
 !       D11       170.6834   -DE/DX =    0.0                           !
 !       D12       -40.768    -DE/DX =    0.0                           !
 !       D13      -146.9198   -DE/DX =    0.0                           !
 !       D14      -172.0288   -DE/DX =    0.0                           !
 !       D15       174.2078   -DE/DX =    0.0                           !
 !       D16       177.369    -DE/DX =    0.0                           !
 !       D17       180.4858   -DE/DX =    0.0                           !
 ------------------------------------------------------------------------
 GradGradGradGradGradGradGradGradGradGradGradGradGradGradGradGradGradGrad

 ---------------------------------------------------------------------------------------------------
                            Z-MATRIX (ANGSTROMS AND DEGREES)
   CD    Cent   Atom    N1       Length/X        N2       Alpha/Y        N3        Beta/Z          J
 ---------------------------------------------------------------------------------------------------
      1      1  C 
      2      2  C        1   1.425388(     1)
      3      3  C        1   1.368151(     2)      2  128.508(    17)
      4      4  H        1   1.087070(     3)      2  117.592(    18)      3 -163.687(    32)      0
      5      5  O        3   1.181802(     4)      1  145.815(    19)      2  180.655(    33)      0
      6      6  C        2   1.361771(     5)      1  127.252(    20)      3   -1.438(    34)      0
      7      7  H        2   1.084001(     6)      1  115.127(    21)      6  176.039(    35)      0
      8      8  C        6   1.422027(     7)      2  118.608(    22)      1   -0.939(    36)      0
      9      9  H        6   1.081702(     8)      2  120.430(    23)      8  173.344(    37)      0
     10     10  C        8   1.413237(     9)      6  125.992(    24)      2  -26.234(    38)      0
     11     11  N        8   1.358732(    10)      6  126.417(    25)     10  170.683(    39)      0
     12     12  H       10   1.082184(    11)      8  120.931(    26)      6  -40.768(    40)      0
     13     13  C       10   1.439688(    12)      8  106.741(    27)     12 -146.920(    41)      0
     14     14  C       11   1.386581(    13)      8  110.323(    28)      6 -172.029(    42)      0
     15     15  H       11   1.006810(    14)      8  124.691(    29)     14  174.208(    43)      0
     16     16  H       13   1.076704(    15)     10  126.694(    30)      8  177.369(    44)      0
     17     17  H       14   1.076815(    16)     11  120.589(    31)      8  180.486(    45)      0
 ---------------------------------------------------------------------------------------------------
                         Z-Matrix orientation:                         
 ---------------------------------------------------------------------
 Center     Atomic      Atomic             Coordinates (Angstroms)
 Number     Number       Type             X           Y           Z
 ---------------------------------------------------------------------
      1          6           0        0.000000    0.000000    0.000000
      2          6           0        0.000000    0.000000    1.425388
      3          6           0        1.070604    0.000000   -0.851848
      4          1           0       -0.924656    0.270608   -0.503493
      5          8           0        1.422201    0.007595   -1.980112
      6          6           0        1.083606   -0.027202    2.249694
      7          1           0       -0.977063    0.092340    1.885692
      8          6           0        2.380250   -0.080209    1.668260
      9          1           0        0.963204    0.099127    3.317226
     10          6           0        2.700265   -0.613786    0.399353
     11          7           0        3.501916    0.522852    2.141902
     12          1           0        2.240126   -1.528203    0.048304
     13          6           0        4.081644   -0.293116    0.151026
     14          6           0        4.536590    0.402160    1.226758
     15          1           0        3.548002    1.060733    2.991741
     16          1           0        4.664954   -0.581661   -0.706752
     17          1           0        5.507510    0.816322    1.439633
 ---------------------------------------------------------------------
                    Distance matrix (angstroms):
                    1          2          3          4          5
     1  C    0.000000
     2  C    1.425388   0.000000
     3  C    1.368151   2.516346   0.000000
     4  H    1.087070   2.156107   2.043439   0.000000
     5  O    2.437941   3.690548   1.181802   2.785197   0.000000
     6  C    2.497211   1.361771   3.101689   3.420795   4.243479
     7  H    2.125797   1.084001   3.419882   2.396399   4.550614
     8  C    2.907768   2.393953   2.841224   3.970137   3.773087
     9  H    3.455658   2.125238   4.171635   4.265127   5.317973
    10  C    2.797793   2.953119   2.144303   3.838924   2.771536
    11  N    4.138180   3.612503   3.891940   5.162972   4.645611
    12  H    2.712176   3.041369   2.124490   3.681853   2.672479
    13  C    4.094941   4.285992   3.187167   5.080277   3.421229
    14  C    4.716706   4.558710   4.061453   5.730295   4.487662
    15  H    4.760670   4.020812   4.694234   5.731110   5.508851
    16  H    4.753907   5.161991   3.644001   5.657864   3.533287
    17  H    5.750791   5.567697   5.059981   6.741387   5.388733
                    6          7          8          9         10
     6  C    0.000000
     7  H    2.095982   0.000000
     8  C    1.422027   3.368768   0.000000
     9  H    1.081702   2.411218   2.181574   0.000000
    10  C    2.526149   4.028716   1.413237   3.469813   0.000000
    11  N    2.482419   4.506909   1.358732   2.829485   2.229589
    12  H    2.904593   4.043817   2.177287   3.868408   1.082184
    13  C    3.669244   5.361730   2.289557   4.461316   1.439688
    14  C    3.626824   5.561524   2.253311   4.151021   2.255845
    15  H    2.794187   4.757871   2.101664   2.777014   3.200491
    16  H    4.676971   6.245590   3.333468   5.509884   2.254885
    17  H    4.575878   6.540092   3.261257   4.968948   3.317833
                   11         12         13         14         15
    11  N    0.000000
    12  H    3.190939   0.000000
    13  C    2.228335   2.219725   0.000000
    14  C    1.386581   3.223167   1.359259   0.000000
    15  H    1.006810   4.132426   3.191761   2.127484   0.000000
    16  H    3.269164   2.710322   1.076704   2.173210   4.198081
    17  H    2.145161   4.255396   2.219112   1.076815   2.511663
                   16         17
    16  H    0.000000
    17  H    2.696521   0.000000
 Symmetry turned off by external request.
 Stoichiometry    C8H7NO
 Framework group  C1[X(C8H7NO)]
 Deg. of freedom    45
 Full point group                 C1      NOp   1
 Rotational constants (GHZ):           2.1647960           1.3409071           0.8680512
 1\1\GINC-BHC0105\FTS\RB3LYP\def2TZVP\C8H7N1O1\DHANAWAY\10-Jun-2022\1\\
 # Opt=(TS, CalcFC, noeigentest, Z-matrix, MaxStep=10) geom=allcheckpoi
 nt guess=read Field=read NoSymm B3LYP/Def2TZVP freq=noraman pop=none\\
 ts_zmat_initalOpt\\0,1\C\C,1,R2\C,1,R3,2,A3\H,1,R4,2,A4,3,D4,0\O,3,R5,
 1,A5,2,D5,0\C,2,R6,1,A6,3,D6,0\H,2,R7,1,A7,6,D7,0\C,6,R8,2,A8,1,D8,0\H
 ,6,R9,2,A9,8,D9,0\C,8,R10,6,A10,2,D10,0\N,8,R11,6,A11,10,D11,0\H,10,R1
 2,8,A12,6,D12,0\C,10,R13,8,A13,12,D13,0\C,11,R14,8,A14,6,D14,0\H,11,R1
 5,8,A15,14,D15,0\H,13,R16,10,A16,8,D16,0\H,14,R17,11,A17,8,D17,0\\R2=1
 .42538836\R3=1.36815127\R4=1.0870704\R5=1.18180244\R6=1.3617711\R7=1.0
 8400084\R8=1.42202733\R9=1.08170202\R10=1.41323705\R11=1.35873221\R12=
 1.08218379\R13=1.43968844\R14=1.38658096\R15=1.00680963\R16=1.07670414
 \R17=1.07681524\A3=128.50824913\A4=117.59150393\A5=145.81497021\A6=127
 .25178205\A7=115.12749634\A8=118.60804936\A9=120.42999735\A10=125.9917
 2413\A11=126.41719216\A12=120.93091477\A13=106.74100465\A14=110.322706
 04\A15=124.69091522\A16=126.69377869\A17=120.58857488\D4=-163.68746921
 \D5=180.65533597\D6=-1.43798682\D7=176.03912985\D8=-0.93867392\D9=173.
 34409057\D10=-26.23431661\D11=170.68337812\D12=-40.76801372\D13=-146.9
 1980411\D14=-172.02881636\D15=174.20780242\D16=177.36898162\D17=180.48
 581382\\Version=ES64L-G16RevA.03\HF=-439.1437056\RMSD=9.663e-09\RMSF=4
 .878e-04\Dipole=0.9829342,0.3303016,1.9751918\PG=C01 [X(C8H7N1O1)]\\@


 REALITY IS FOR PEOPLE WHO CAN'T FACE SCIENCE FICTION.
 Job cpu time:       0 days  2 hours 49 minutes 10.1 seconds.
 Elapsed time:       0 days  0 hours 14 minutes  7.5 seconds.
 File lengths (MBytes):  RWF=    180 Int=      0 D2E=      0 Chk=     32 Scr=      1
 Normal termination of Gaussian 16 at Fri Jun 10 03:43:32 2022.
 Link1:  Proceeding to internal job step number  2.
 --------------------------------------------------------------------
 #N Geom=AllCheck Guess=TCheck SCRF=Check GenChk RB3LYP/def2TZVP Freq
 --------------------------------------------------------------------
 1/5=1,8=10,10=4,11=1,29=7,30=1,38=1,40=1/1,3;
 2/12=2,15=1,40=1/2;
 3/5=44,7=101,11=2,14=-4,25=1,30=1,70=2,71=2,74=-5,116=1,140=1/1,2,3;
 4/5=101/1;
 5/5=2,38=6,98=1/2;
 8/6=4,10=90,11=11/1;
 11/6=1,8=1,9=11,15=111,16=1,31=1/1,2,10;
 10/6=1,31=1/2;
 7/8=1,10=1,25=1,30=1/1,2,3,16;
 1/5=1,8=10,10=4,11=1,30=1/3;
 99//99;
 Structure from the checkpoint file:  "checkpoint.chk"
 -----------------
 ts_zmat_initalOpt
 -----------------
 Charge =  0 Multiplicity = 1
 Z-Matrix found in chk file.
 C
 C,1,R2
 C,1,R3,2,A3
 H,1,R4,2,A4,3,D4,0
 O,3,R5,1,A5,2,D5,0
 C,2,R6,1,A6,3,D6,0
 H,2,R7,1,A7,6,D7,0
 C,6,R8,2,A8,1,D8,0
 H,6,R9,2,A9,8,D9,0
 C,8,R10,6,A10,2,D10,0
 N,8,R11,6,A11,10,D11,0
 H,10,R12,8,A12,6,D12,0
 C,10,R13,8,A13,12,D13,0
 C,11,R14,8,A14,6,D14,0
 H,11,R15,8,A15,14,D15,0
 H,13,R16,10,A16,8,D16,0
 H,14,R17,11,A17,8,D17,0
      Variables:
 R2=1.42538836
 R3=1.36815127
 R4=1.0870704
 R5=1.18180244
 R6=1.3617711
 R7=1.08400084
 R8=1.42202733
 R9=1.08170202
 R10=1.41323705
 R11=1.35873221
 R12=1.08218379
 R13=1.43968844
 R14=1.38658096
 R15=1.00680963
 R16=1.07670414
 R17=1.07681524
 A3=128.50824913
 A4=117.59150393
 A5=145.81497021
 A6=127.25178205
 A7=115.12749634
 A8=118.60804936
 A9=120.42999735
 A10=125.99172413
 A11=126.41719216
 A12=120.93091477
 A13=106.74100465
 A14=110.32270604
 A15=124.69091522
 A16=126.69377869
 A17=120.58857488
 D4=-163.68746921
 D5=180.65533597
 D6=-1.43798682
 D7=176.03912985
 D8=-0.93867392
 D9=173.34409057
 D10=-26.23431661
 D11=170.68337812
 D12=-40.76801372
 D13=-146.91980411
 D14=-172.02881636
 D15=174.20780242
 D16=177.36898162
 D17=180.48581382
 Recover connectivity data from disk.

 GradGradGradGradGradGradGradGradGradGradGradGradGradGradGradGradGradGrad
 Berny optimization.
 Initialization pass.
                       ----------------------------
                       !    Initial Parameters    !
                       ! (Angstroms and Degrees)  !
 ----------------------                            ----------------------
 !      Name          Value   Derivative information (Atomic Units)     !
 ------------------------------------------------------------------------
 !       R2          1.4254   calculate D2E/DX2 analytically            !
 !       R3          1.3682   calculate D2E/DX2 analytically            !
 !       R4          1.0871   calculate D2E/DX2 analytically            !
 !       R5          1.1818   calculate D2E/DX2 analytically            !
 !       R6          1.3618   calculate D2E/DX2 analytically            !
 !       R7          1.084    calculate D2E/DX2 analytically            !
 !       R8          1.422    calculate D2E/DX2 analytically            !
 !       R9          1.0817   calculate D2E/DX2 analytically            !
 !       R10         1.4132   calculate D2E/DX2 analytically            !
 !       R11         1.3587   calculate D2E/DX2 analytically            !
 !       R12         1.0822   calculate D2E/DX2 analytically            !
 !       R13         1.4397   calculate D2E/DX2 analytically            !
 !       R14         1.3866   calculate D2E/DX2 analytically            !
 !       R15         1.0068   calculate D2E/DX2 analytically            !
 !       R16         1.0767   calculate D2E/DX2 analytically            !
 !       R17         1.0768   calculate D2E/DX2 analytically            !
 !       A3        128.5082   calculate D2E/DX2 analytically            !
 !       A4        117.5915   calculate D2E/DX2 analytically            !
 !       A5        145.815    calculate D2E/DX2 analytically            !
 !       A6        127.2518   calculate D2E/DX2 analytically            !
 !       A7        115.1275   calculate D2E/DX2 analytically            !
 !       A8        118.608    calculate D2E/DX2 analytically            !
 !       A9        120.43     calculate D2E/DX2 analytically            !
 !       A10       125.9917   calculate D2E/DX2 analytically            !
 !       A11       126.4172   calculate D2E/DX2 analytically            !
 !       A12       120.9309   calculate D2E/DX2 analytically            !
 !       A13       106.741    calculate D2E/DX2 analytically            !
 !       A14       110.3227   calculate D2E/DX2 analytically            !
 !       A15       124.6909   calculate D2E/DX2 analytically            !
 !       A16       126.6938   calculate D2E/DX2 analytically            !
 !       A17       120.5886   calculate D2E/DX2 analytically            !
 !       D4       -163.6875   calculate D2E/DX2 analytically            !
 !       D5        180.6553   calculate D2E/DX2 analytically            !
[...]
   zz         0.133880D+03      0.198389D+02      0.220738D+02

 ----------------------------------------------------------------------
 1\1\GINC-BHC0105\Freq\RB3LYP\def2TZVP\C8H7N1O1\DHANAWAY\10-Jun-2022\1\
 \#N Geom=AllCheck Guess=TCheck SCRF=Check GenChk RB3LYP/def2TZVP Freq\
 \ts_zmat_initalOpt\\0,1\C\C,1,R2\C,1,R3,2,A3\H,1,R4,2,A4,3,D4,0\O,3,R5
 ,1,A5,2,D5,0\C,2,R6,1,A6,3,D6,0\H,2,R7,1,A7,6,D7,0\C,6,R8,2,A8,1,D8,0\
 H,6,R9,2,A9,8,D9,0\C,8,R10,6,A10,2,D10,0\N,8,R11,6,A11,10,D11,0\H,10,R
 12,8,A12,6,D12,0\C,10,R13,8,A13,12,D13,0\C,11,R14,8,A14,6,D14,0\H,11,R
 15,8,A15,14,D15,0\H,13,R16,10,A16,8,D16,0\H,14,R17,11,A17,8,D17,0\\R2=
 1.42538836\R3=1.36815127\R4=1.0870704\R5=1.18180244\R6=1.3617711\R7=1.
 08400084\R8=1.42202733\R9=1.08170202\R10=1.41323705\R11=1.35873221\R12
 =1.08218379\R13=1.43968844\R14=1.38658096\R15=1.00680963\R16=1.0767041
 4\R17=1.07681524\A3=128.50824913\A4=117.59150393\A5=145.81497021\A6=12
 7.25178205\A7=115.12749634\A8=118.60804936\A9=120.42999735\A10=125.991
 72413\A11=126.41719216\A12=120.93091477\A13=106.74100465\A14=110.32270
 604\A15=124.69091522\A16=126.69377869\A17=120.58857488\D4=-163.6874692
 1\D5=180.65533597\D6=-1.43798682\D7=176.03912985\D8=-0.93867392\D9=173
 .34409057\D10=-26.23431661\D11=170.68337812\D12=-40.76801372\D13=-146.
 91980411\D14=-172.02881636\D15=174.20780242\D16=177.36898162\D17=180.4
 8581382\\Version=ES64L-G16RevA.03\HF=-439.1437056\RMSD=8.873e-09\RMSF=
 4.878e-04\ZeroPoint=0.1299692\Thermal=0.1375814\Dipole=0.9829407,0.330
 3035,1.9752027\DipoleDeriv=-0.3230114,-0.0672018,0.4543584,-0.0850098,
 -0.3037259,-0.0647826,-0.2927744,-0.0212656,-0.8402292,0.1996846,-0.00
 61093,0.1084874,0.0950103,-0.0931284,-0.0561157,0.3679138,0.0104902,0.
 66432,0.9708189,-0.0416617,-0.2075007,-0.1519922,0.1844573,-0.004695,0
 .5069561,-0.1691518,2.5693513,-0.131699,0.04871,-0.1215268,0.0480309,0
 .160567,0.0404522,-0.0238519,0.0280081,0.013254,-0.3896417,0.007551,0.
 3354967,0.0800502,-0.2357722,-0.0361984,-0.2550363,0.1268539,-2.195266
 9,-0.3923604,-0.0533933,-0.2070229,0.0616636,-0.2253838,0.0390742,-0.0
 994677,0.0326602,-0.1770505,-0.0806566,0.0142535,0.0736721,-0.0124986,
 0.1205552,0.0045706,0.0633422,-0.0049924,0.0524047,0.5710103,0.119444,
 0.1584455,0.2796405,0.1417623,0.280885,0.2974518,0.1243501,0.3314035,0
 .0361497,-0.0007119,0.0056401,-0.0326682,0.1588312,-0.0299505,0.024585
 1,-0.0240496,-0.0461314,-0.2108096,0.0269698,-0.43948,0.0777448,-0.058
 646,0.0581426,-0.3448814,-0.0717548,-0.6253167,-0.5261056,0.0281655,-0
 .142817,-0.2188938,-0.2275556,-0.1453646,-0.2794285,-0.1670702,-0.4145
 766,0.0909029,-0.03558,0.0509318,-0.1069357,0.0747217,-0.1043509,0.047
 3076,-0.0008434,0.1587349,-0.0281948,0.0319705,0.0206205,0.0664669,-0.
 1865902,0.0897938,-0.102674,0.0713905,-0.0738578,-0.0395915,-0.0210782
 ,-0.204406,-0.0406916,-0.0603923,0.0295966,-0.0627232,0.1696229,0.1615
 064,0.1780001,-0.0062349,0.069514,0.0015544,0.2652778,-0.030131,0.0821
 681,-0.0091814,0.2885734,0.0326518,0.001838,0.0447309,-0.0085719,0.133
 9866,-0.0374049,0.0736853,-0.0455211,0.0395514,0.0428525,-0.0469313,0.
 0008561,-0.0528999,0.1510352,-0.0335215,-0.0025725,-0.0495454,0.093329
 5\Polar=139.8077497,3.4297586,62.947736,9.30448,6.5045082,122.3883848\
 PG=C01 [X(C8H7N1O1)]\NImag=1\\0.58234097,-0.08796724,0.10268980,-0.027
 57338,-0.03046693,0.66605581,-0.10531338,0.00500317,0.01707889,0.73129
 251,0.00699771,-0.04788422,-0.00270777,-0.04215041,0.13554117,-0.04363
 666,0.00823660,-0.26909844,0.04217657,0.00205672,0.63248731,-0.1925067
 3,0.02078703,0.09378386,0.01151964,-0.00120181,0.08631247,0.31388826,0
 .00389050,-0.04887539,-0.00091499,0.00226470,-0.00673294,-0.00423921,-
 0.00120631,0.11982543,0.14688993,-0.01628706,-0.19395980,0.03639544,0.
 00620229,-0.02669740,-0.44232348,0.01011539,0.94720583,-0.24870097,0.0
 6004953,-0.10443857,0.00199941,-0.00034687,-0.00207340,-0.02076743,0.0
 0829767,-0.00424923,0.26679387,0.07017518,-0.03850968,0.03456824,0.001
 03258,0.00062969,-0.00116649,-0.00363388,0.00166785,0.00506874,-0.0675
 9327,0.03366015,-0.09984771,0.03296857,-0.10576047,-0.02733554,0.00772
 338,-0.01180016,0.01035556,-0.00440689,0.00325491,0.11212645,-0.035937
 52,0.11573746,-0.02059468,-0.00442831,0.05985330,-0.00528665,0.0014973
 7,-0.02209701,-0.11133709,-0.00243415,0.22338888,0.00198577,0.00064793
 ,0.00036676,0.13260633,-0.00169441,0.01515019,0.00504124,-0.00232245,0
 .00705124,-0.00182818,-0.00047297,-0.05313398,0.00051446,-0.00136909,-
 0.00152099,0.00023444,-0.00061257,0.03086368,0.02444992,0.00743134,-0.
 04067613,-0.00508698,-0.00477736,0.00345340,0.25996476,-0.00045794,-0.
 73046421,-0.00326542,-0.00139704,0.00207008,-0.25354798,-0.01187464,0.
 79821169,0.02862213,0.00078862,-0.04630760,-0.29868977,0.01990555,-0.1
 1252885,-0.04935553,0.00023789,-0.00290348,0.00351498,-0.00342261,-0.0
 0012372,0.01207807,0.00362988,0.00645855,0.65318964,-0.00453740,0.0094
 4304,0.00756224,0.00263108,-0.05539231,-0.01252164,0.00780927,0.001537
 17,-0.00090271,0.00092170,0.00259874,0.00071141,-0.00237088,-0.0009927
 6,-0.00070680,-0.00652515,0.11725367,-0.01678001,-0.00089294,-0.042723
 26,-0.16378363,-0.00054789,-0.21838152,-0.02320926,0.00221085,0.006604
 77,0.00189925,0.00207748,-0.00424492,0.00660344,-0.00143191,-0.0054002
 3,0.04556246,0.05785522,0.72508372,0.00117074,0.00001749,-0.00200686,-
 0.27890739,0.02378948,0.10563713,0.00122236,0.00024806,-0.00126044,0.0
 0089996,-0.00032540,0.00011368,-0.00002175,-0.00006710,0.00030604,-0.0
 2120099,0.00253643,0.01215720,0.29870852,0.00300521,0.00298719,-0.0046
 4300,0.02491586,-0.04076221,-0.00740708,-0.00467238,0.00477650,0.00189
 695,-0.00114225,-0.00182425,-0.00016987,0.00145238,-0.00099738,0.00000
 893,0.00008310,0.00492964,-0.00239940,-0.02584244,0.02776835,0.0269700
 6,-0.00283571,-0.01116419,0.10616588,-0.01037372,-0.10773002,-0.000093
 74,-0.00006876,-0.00714578,-0.00011150,0.00017399,0.00092086,0.0010350
 1,0.00000973,0.00027592,-0.01815009,0.00202219,0.01060332,-0.11184380,
 0.01103447,0.11432144,-0.01821943,-0.00232790,0.02417847,-0.06429635,-
 0.00546741,-0.03016999,0.03583368,-0.00048112,-0.00111650,-0.00203951,
 0.00201208,0.00224686,-0.01097169,-0.00165994,-0.00314867,-0.22714172,
 0.00527414,0.09097201,-0.00220639,0.00137333,-0.00334040,0.72647177,0.
 00814077,-0.00451932,-0.00286434,0.00173515,0.00354781,0.01080253,-0.0
 1905998,-0.00203756,-0.00881399,0.00185827,0.00172789,-0.00038964,0.00
 615487,0.00022420,0.01098746,-0.00578135,-0.06066529,-0.01883147,-0.00
 012210,0.00917644,-0.00063792,0.08381709,0.27808270,0.01765985,-0.0014
 7664,-0.01475305,-0.00461035,0.00557888,0.04149989,-0.05064143,0.00494
 972,-0.02702970,0.00350551,-0.00105761,-0.00230033,0.01093737,0.000342
 35,0.01437169,0.06097492,-0.01897441,-0.15074887,-0.00393425,0.0001051
 8,-0.00203300,-0.10792432,0.16409266,0.54020395,-0.00191228,0.00075545
 ,-0.00178155,0.00543378,-0.00315686,-0.02704971,-0.00334329,0.00039982
 ,-0.00093011,0.00021766,0.00026391,-0.00109577,0.00094904,-0.00009995,
 0.00016484,-0.06142680,0.00319020,0.03468182,0.00109830,-0.00053311,0.
 00010703,0.00074096,0.00464966,0.02873480,0.06116422,0.00183898,0.0077
 1549,-0.00138606,0.00421432,0.00155774,0.00443871,-0.00413466,0.000280
 75,-0.00186671,0.00023360,0.00038776,-0.00085703,0.00092634,-0.0000962
 3,0.00161189,-0.00540754,-0.02872026,-0.03655190,-0.00040260,-0.005784
 56,0.00048871,0.00734267,-0.00068291,-0.00617793,-0.00531349,0.0241200
 7,-0.00275306,-0.00055357,0.00189881,0.00240752,-0.00194162,-0.0164812
 2,0.00078623,-0.00017856,0.00037262,0.00006951,-0.00005239,-0.00055878
 ,-0.00007580,0.00008415,-0.00014204,0.03342192,-0.03590591,-0.32949721
 ,-0.00001441,0.00081783,0.00098974,-0.00135060,-0.00178605,-0.00766707
 ,-0.03442936,0.03851241,0.35038710,-0.03247747,0.00733392,-0.00234562,
 -0.00068204,-0.00172021,-0.01921657,0.04242607,-0.01711520,0.04723153,
 -0.00426559,0.00124276,0.00398529,-0.00685994,0.00373555,-0.02318909,0
 .00992322,0.00736403,0.03249279,0.00036870,0.00096503,0.00006733,-0.10
 403341,0.01882232,0.07585793,-0.00318809,0.00222593,0.00066110,0.46980
 824,0.00728838,-0.00026319,-0.00764312,0.00289071,-0.00023952,0.008166
 63,-0.02308146,0.00027529,-0.00614556,0.00011328,0.00099601,-0.0006613
 7,0.00621683,-0.00139503,0.00788758,-0.00479005,0.00604508,0.00055423,
 -0.00013590,-0.00032685,0.00015369,0.01407862,-0.11702288,-0.09156376,
 -0.00155747,0.00188728,0.00085994,0.19634095,0.44727737,-0.02381224,0.
 00075083,0.01190690,-0.00996976,-0.00158816,-0.02686401,0.06890886,-0.
 00576132,0.02416882,-0.00296183,-0.00165896,0.00231966,-0.02548292,0.0
 0569401,-0.03880420,0.03740372,-0.00485946,-0.00511770,0.00005507,0.00
 166486,0.00001529,0.03145951,-0.07161116,-0.22135980,0.00119090,0.0022
 6296,0.00043124,-0.07313737,0.23668917,0.44706475,-0.00279186,0.003764
 25,-0.00659248,0.00834413,0.00106502,0.00860218,0.01075653,-0.00496694
 ,0.01269407,-0.00112626,-0.00268036,0.00009948,-0.00223737,0.00303159,
 -0.00850938,-0.04921414,-0.02004391,-0.01284737,-0.00069518,0.00169231
 ,-0.00033889,-0.23577958,-0.07532088,-0.04894632,0.00261653,-0.0007265
 8,-0.00053950,-0.02510470,-0.02079715,-0.04231946,0.56968385,-0.001002
 16,0.00078597,-0.00205447,0.00324624,0.00324438,0.00074739,0.00695610,
 -0.00277623,0.00304674,-0.00043149,-0.00070418,0.00005027,-0.00253883,
 0.00138640,-0.00384735,-0.00342940,0.00287799,0.00252343,0.00052620,0.
 00003170,0.00014047,-0.08429609,-0.11543332,-0.05550338,0.00093720,-0.
 00133244,0.00018783,-0.01593968,-0.01179820,-0.04305724,0.13150024,0.3
 2903850,0.00404537,0.00147361,-0.00260276,0.00615360,0.00030422,0.0051
 8032,-0.00501322,-0.00106326,-0.00413751,0.00060469,-0.00055801,-0.000
 29752,-0.00007126,0.00089992,0.00238002,-0.00107859,0.01153440,0.01693
 314,0.00075775,-0.00152669,0.00089182,-0.04106530,-0.05745658,-0.14173
 947,-0.00147955,-0.00068457,0.00115394,-0.00508232,-0.03431327,-0.0396
 8773,-0.04392659,0.35549596,0.72343710,0.00073434,-0.00037513,0.000440
 62,-0.00015032,0.00087923,0.00322735,-0.00700846,0.00601943,-0.0083047
 7,0.00050579,0.00024593,-0.00016081,0.00056211,0.00049262,0.00194011,-
 0.00294220,0.00127239,-0.00174581,-0.00002181,-0.00038360,-0.00012994,
 0.00472734,0.00518243,-0.00688833,-0.00008780,-0.00049291,0.00005702,-
 0.08564290,-0.10509742,-0.02144002,0.00496332,0.00022280,0.00294300,0.
 10015407,-0.00566397,0.00149723,0.00163989,-0.00059224,-0.00064105,-0.
 00547192,0.01694061,-0.01474070,0.00902498,-0.00074098,0.00090550,0.00
 075144,-0.00320934,0.00328719,-0.00353910,0.00371108,-0.00067531,0.001
 38727,0.00001217,0.00019771,0.00010529,-0.00511386,-0.00348584,0.00844
 281,0.00022604,0.00041396,-0.00006101,-0.12333045,-0.24548257,-0.10422
 934,-0.00295928,-0.00000890,-0.00017667,0.11527105,0.25820943,0.005376
 41,-0.00100062,0.00011316,-0.00017418,0.00029156,0.00469796,-0.0145072
 3,0.00828462,-0.00772546,0.00089796,-0.00028047,-0.00060751,0.00185970
 ,0.00082460,0.00099709,-0.00419387,0.00232673,-0.00247596,0.00001739,-
 0.00041244,-0.00005269,-0.01293893,-0.02287131,-0.01083545,-0.00000876
 ,-0.00002592,-0.00003011,-0.01709858,-0.08547339,-0.05885747,0.0057202
 7,-0.00195769,-0.00603610,0.03961288,0.09497450,0.07358472,0.01000529,
 -0.00160803,-0.00463128,-0.00068967,0.00000266,0.01017846,-0.02987262,
 0.00432126,-0.01147758,0.00129178,0.00071535,-0.00099232,0.00701139,-0
 .00135001,0.00671628,-0.00312280,0.00199232,-0.00253143,-0.00010390,-0
 .00097815,-0.00009913,-0.02446635,0.01190513,0.04316705,-0.00077008,-0
 .00047742,0.00020453,-0.21957872,-0.05297235,0.05003394,0.00448138,0.0
 0260989,0.00733357,-0.00959973,0.00543853,-0.00437544,0.55017328,0.006
 49239,-0.00133479,0.00173769,-0.00207446,-0.00007262,0.00433051,-0.009
 62151,0.00326014,-0.01180320,0.00140099,0.00028297,-0.00081761,0.00157
 656,-0.00053069,0.00404453,-0.00144021,0.00215481,-0.00523745,0.000084
 89,-0.00040277,-0.00009225,0.00026608,0.00837906,-0.00045057,0.0005102
 4,-0.00019166,-0.00016160,-0.02646097,-0.08743527,-0.00429018,0.015988
 97,0.00017915,-0.03952683,-0.02345888,0.00024198,0.00531570,0.06472798
 ,0.28715249,-0.00264544,0.00058336,-0.00107109,-0.00231454,-0.00022694
 ,-0.00183556,-0.00451997,-0.00461911,0.00544032,-0.00071654,0.00147438
 ,0.00053639,0.00161103,-0.00016737,-0.00033867,0.00232290,-0.00171973,
 -0.00488759,-0.00004992,-0.00041031,0.00007598,0.02081992,-0.00883384,
 -0.01952760,0.00115738,-0.00016997,-0.00008772,0.04243744,-0.00898049,
 -0.09081775,0.04005087,-0.02793402,-0.06822878,-0.01356947,0.00094151,
 0.00193152,-0.13874470,0.26627777,0.70068613,-0.00036571,-0.00179984,0
 .00031006,-0.00429811,-0.00062012,0.00044394,-0.00276412,0.00053574,0.
 00372968,-0.00020327,0.00155230,0.00024609,0.00200179,-0.00121751,-0.0
 0149716,0.00434356,-0.00041979,-0.00442916,-0.00024948,-0.00005226,-0.
 00017223,-0.08199807,-0.02948939,0.00406271,-0.00053418,0.00041391,0.0
 0071136,-0.03003863,-0.02229145,-0.00920078,-0.19699751,-0.00319284,0.
 08919828,-0.00704160,0.00055150,0.00155966,-0.13897104,-0.06580382,-0.
 08569410,0.73221582,-0.00595424,0.00091972,0.00162536,-0.00070088,0.00
 064394,-0.00519305,0.01368110,-0.00244733,0.01052434,-0.00111074,-0.00
 054356,0.00063125,-0.00193200,0.00059303,-0.00565500,0.00101641,-0.001
 01551,-0.00157394,-0.00029919,0.00038014,-0.00016089,-0.01488184,0.009
 28952,0.00281655,0.00033440,-0.00005077,-0.00010466,-0.04842775,-0.000
 92874,-0.01208318,-0.01308501,-0.07331234,-0.03165049,-0.00008716,-0.0
 0102297,0.00094306,-0.05542389,-0.15441254,-0.14212402,0.22282485,0.30
 523478,-0.00818407,0.00216789,0.00100181,0.00306890,0.00009813,-0.0068
 2044,0.02018504,-0.00415175,0.01101541,-0.00137988,-0.00135279,0.00074
 863,-0.00458620,0.00198422,-0.00683784,-0.00286363,-0.00744865,0.00161
 197,-0.00010791,0.00145578,-0.00001829,0.02968597,0.01196619,0.0104666
 7,0.00086675,0.00036178,-0.00053860,-0.05918684,-0.01316147,-0.0074155
 1,0.08017453,-0.03947299,-0.16671289,0.00534152,-0.00378903,0.00549355
 ,-0.07003684,-0.13908390,-0.28689655,0.05007843,0.22727090,0.53486460,
 -0.00054484,0.00011976,0.00044021,-0.00035880,0.00052122,-0.00056829,0
 .00137261,-0.00022782,0.00034122,-0.00010832,-0.00018007,0.00009548,-0
 .00036849,0.00009709,0.00003498,0.00146910,0.00135358,0.00006136,-0.00
 002353,-0.00004466,-0.00001121,0.00889815,-0.01132918,-0.02541914,-0.0
 0048794,-0.00031041,0.00071887,-0.00595774,-0.00445666,-0.00135952,-0.
 07090331,-0.02403423,-0.00418668,0.00074730,-0.00035744,-0.00109552,-0
 .00412575,0.00053792,0.00519759,0.01103505,0.01664069,0.01611856,0.058
 41930,-0.00061118,-0.00007020,0.00089101,-0.00005776,-0.00031745,-0.00
 104087,0.00188561,-0.00085932,-0.00065294,-0.00001714,0.00015667,0.000
 09998,-0.00083566,0.00034742,-0.00015099,0.00168939,-0.00172016,0.0014
 7089,0.00007374,0.00016212,0.00003162,0.00351424,-0.00849743,-0.007533
 51,-0.00062531,0.00035708,0.00021104,-0.00195518,0.00254752,-0.0022034
 3,-0.02296252,-0.13648236,-0.20028079,-0.00117312,0.00100733,-0.000622
 10,-0.00205428,0.00097683,0.00016322,0.00144695,-0.00260926,0.00595485
 ,0.02176344,0.14413780,-0.00003130,-0.00012567,0.00034441,-0.00035744,
 -0.00018607,-0.00076528,-0.00099874,0.00069031,-0.00085919,0.00006767,
 0.00010613,-0.00002830,0.00031041,-0.00040938,0.00095360,0.00069842,0.
 00132566,0.00078169,0.00003907,-0.00006572,-0.00001671,-0.00054984,-0.
 00052270,-0.00560812,0.00003769,0.00014040,-0.00030483,-0.00059231,-0.
 00270498,0.00307659,-0.00532432,-0.19621002,-0.32604302,0.00032064,-0.
 00001825,-0.00048510,0.00378330,0.00002966,-0.00002847,-0.00648992,-0.
 00559692,-0.01128793,0.00930832,0.20362401,0.33983768,0.00007054,-0.00
 006065,-0.00034220,0.00011688,-0.00001975,0.00014139,0.00036387,0.0000
 9079,0.00241713,-0.00009425,0.00000252,-0.00001257,0.00044003,-0.00014
 337,-0.00187262,0.00049187,0.00032183,0.00142330,-0.00002148,0.0000221
 2,-0.00000575,-0.00535301,-0.00245850,0.00019800,-0.00045193,0.0000821
 1,0.00012076,-0.00608355,0.01029690,0.02024582,-0.00008709,-0.00313792
 ,-0.00263732,0.00032668,-0.00018462,-0.00071905,-0.14194208,0.03766754
 ,0.13374626,0.01043956,-0.00247671,-0.01026389,0.00098409,-0.00033257,
 -0.00025052,0.14107435,0.00051495,-0.00006216,-0.00024810,-0.00007353,
 -0.00007884,0.00062992,-0.00164810,0.00077268,-0.00117301,0.00007256,0
 .00001531,-0.00004588,-0.00004776,-0.00036968,0.00073606,-0.00027588,0
 .00092934,-0.00021840,0.00001114,-0.00006581,0.00000244,-0.00351766,0.
 00093183,-0.00154819,-0.00002057,0.00012742,0.00005365,-0.00028368,0.0
 0239689,0.00826511,-0.00100725,0.00276020,-0.00499199,0.00149484,-0.00
 024753,0.00035656,0.03421874,-0.05851937,-0.07597932,0.01077730,-0.000
 47371,-0.00715639,0.00000804,0.00159233,-0.00085811,-0.04086125,0.0527
 3454,-0.00003399,-0.00001007,0.00018230,0.00004331,0.00006770,-0.00022
 701,0.00056668,-0.00015962,0.00015380,0.00000695,-0.00002889,-0.000003
 48,0.00003490,0.00004668,-0.00018525,0.00024198,-0.00029577,0.00045253
 ,0.00000384,0.00002250,0.00000051,-0.00037042,-0.00091486,0.00096258,-
 0.00010182,-0.00010012,0.00008068,-0.00248545,0.00165460,0.00235670,-0
 .00163533,-0.00462669,-0.00123697,-0.00015990,0.00017071,-0.00033301,0
 .13164722,-0.07550318,-0.24026226,0.01444773,-0.00185734,-0.01098547,0
 .00108541,-0.00041200,0.00008545,-0.14246062,0.08040951,0.24941943,0.0
 0048331,-0.00005212,-0.00006587,-0.00003387,0.00002518,0.00062099,-0.0
 0042776,0.00012568,-0.00052229,0.00009637,-0.00005496,-0.00006722,0.00
 004312,0.00002264,0.00008182,-0.00053860,-0.00076983,-0.00052696,-0.00
 001667,0.00013953,-0.00004863,-0.00016640,0.00129569,0.00326600,-0.000
 01810,-0.00001226,0.00000391,0.00138656,-0.00204579,0.00038607,-0.0159
 0872,-0.00799604,-0.00649544,-0.00022615,0.00000122,0.00006729,0.00027
 962,-0.00039369,0.00091129,-0.29657407,-0.11011803,-0.04891043,-0.0000
 4689,0.00025136,0.00002887,-0.00027448,0.00063810,-0.00083049,0.311942
 72,-0.00091346,0.00033032,-0.00013690,0.00003791,-0.00009481,-0.000540
 57,0.00067335,-0.00079234,0.00125130,-0.00019576,0.00007413,0.00011507
 ,-0.00006278,0.00013338,-0.00030155,0.00001027,0.00141212,-0.00039408,
 -0.00010488,-0.00024597,0.00000666,0.00006756,0.00098509,-0.00204216,0
 .00003984,0.00001126,0.00001853,-0.00279736,0.00346680,-0.00398448,0.0
 0750750,0.00154367,0.00252104,-0.00001249,0.00054454,-0.00067337,-0.01
 106772,0.00027228,0.00172490,-0.11321554,-0.08024442,-0.03564276,-0.00
 010126,-0.00072893,0.00078164,0.00119153,-0.00244344,0.00153683,0.1189
 4331,0.07577632,-0.00009367,0.00003702,0.00030599,0.00014229,0.0000266
 5,-0.00061782,0.00044361,-0.00022949,-0.00019744,0.00001838,0.00002122
 ,0.00001350,-0.00013964,0.00003568,0.00013507,0.00106495,-0.00000276,0
 .00140612,0.00013041,0.00002801,0.00006579,0.00261222,-0.00231496,-0.0
 0390233,-0.00006456,0.00000336,-0.00000654,-0.00039925,-0.00531844,-0.
 00241578,0.02363825,0.01247177,0.00674641,-0.00148410,-0.00015306,0.00
 062087,-0.02017565,-0.00476909,0.00531169,-0.05730457,-0.03781196,-0.0
 6768914,-0.00076162,0.00045000,0.00034753,0.00027187,0.00176615,-0.000
 46053,0.05210109,0.03575990,0.06033662\\0.00068379,-0.00269306,0.00000
 328,-0.00068718,0.00175110,-0.00000300,0.00000987,0.00093521,-0.000001
 05,0.00000082,0.00000148,-0.00000008,-0.00000546,0.00000486,-0.0000055
 2,0.00000102,-0.00000007,0.00000086,-0.00000010,-0.00000109,0.00000009
 ,0.00000153,-0.00000307,0.00000234,0.00000010,-0.00000047,0.00000014,-
 0.00000332,0.00000282,0.00000537,-0.00000070,0.00000178,-0.00000096,0.
 00000027,-0.00000050,0.00000055,0.00000215,0.00000671,0.00000505,-0.00
 000323,-0.00000611,-0.00000723,-0.00000012,0.00000087,-0.00000009,0.00
 000038,-0.00000003,0.00000042,0.00000017,-0.00000042,-0.00000018\\\@


 I WISH TO HAVE NO CONNECTION WITH ANY SHIP THAT DOES NOT SAIL FAST,
 FOR I INTEND TO GO IN HARM'S WAY.
     -- JOHN PAUL JONES, USN 1747-1792
 Job cpu time:       0 days  2 hours 15 minutes 47.3 seconds.
 Elapsed time:       0 days  0 hours 11 minutes 19.8 seconds.
 File lengths (MBytes):  RWF=    182 Int=      0 D2E=      0 Chk=     32 Scr=      1
 Normal termination of Gaussian 16 at Fri Jun 10 03:54:52 2022.
