 Entering Gaussian System, Link 0=g16
 Input=int_zmat_field_N50.gjf
 Output=int_zmat_field_N50.out
 Initial command:
 /software/gaussian/g16-a03/l1.exe "/local_scratch/11171429/Gau-20398.inp" -scrdir="/local_scratch/11171429/"
 Entering Link 1 = /software/gaussian/g16-a03/l1.exe PID=     20399.
  
 Copyright (c) 1988,1990,1992,1993,1995,1998,2003,2009,2016,
            Gaussian, Inc.  All Rights Reserved.
  
 This is part of the Gaussian(R) 16 program.  It is based on
 the Gaussian(R) 09 system (copyright 2009, Gaussian, Inc.),
 the Gaussian(R) 03 system (copyright 2003, Gaussian, Inc.),
 the Gaussian(R) 98 system (copyright 1998, Gaussian, Inc.),
 the Gaussian(R) 94 system (copyright 1995, Gaussian, Inc.),
 the Gaussian 92(TM) system (copyright 1992, Gaussian, Inc.),
 the Gaussian 90(TM) system (copyright 1990, Gaussian, Inc.),
 the Gaussian 88(TM) system (copyright 1988, Gaussian, Inc.),
 the Gaussian 86(TM) system (copyright 1986, Carnegie Mellon
 University), and the Gaussian 82(TM) system (copyright 1983,
 Carnegie Mellon University). Gaussian is a federally registered
 trademark of Gaussian, Inc.
  
 This software contains proprietary and confidential information,
 including trade secrets, belonging to Gaussian, Inc.
  
 This software is provided under written license and may be
 used, copied, transmitted, or stored only in accord with that
 written license.
  
 The following legend is applicable only to US Government
 contracts under FAR:
  
                    RESTRICTED RIGHTS LEGEND
  
 Use, reproduction and disclosure by the US Government is
 subject to restrictions as set forth in subparagraphs (a)
 and (c) of the Commercial Computer Software - Restricted
 Rights clause in FAR 52.227-19.
  
 Gaussian, Inc.
 340 Quinnipiac St., Bldg. 40, Wallingford CT 06492
  
  
 ---------------------------------------------------------------
 Warning -- This program may not be used in any manner that
 competes with the business of Gaussian, Inc. or will provide
 assistance to any competitor of Gaussian, Inc.  The licensee
 of this program is prohibited from giving any competitor of
 Gaussian, Inc. access to this program.  By using this program,
 the user acknowledges that Gaussian, Inc. is engaged in the
 business of creating and licensing software in the field of
 computational chemistry and represents and warrants to the
 licensee that it is not a competitor of Gaussian, Inc. and that
 it will not use this program in any manner prohibited above.
 ---------------------------------------------------------------
  

 Cite this work as:
 Gaussian 16, Revision A.03,
 M. J. Frisch, G. W. Trucks, H. B. Schlegel, G. E. Scuseria, 
 M. A. Robb, J. R. Cheeseman, G. Scalmani, V. Barone, 
 G. A. Petersson, H. Nakatsuji, X. Li, M. Caricato, A. V. Marenich, 
 J. Bloino, B. G. Janesko, R. Gomperts, B. Mennucci, H. P. Hratchian, 
 J. V. Ortiz, A. F. Izmaylov, J. L. Sonnenberg, D. Williams-Young, 
 F. Ding, F. Lipparini, F. Egidi, J. Goings, B. Peng, A. Petrone, 
 T. Henderson, D. Ranasinghe, V. G. Zakrzewski, J. Gao, N. Rega, 
 G. Zheng, W. Liang, M. Hada, M. Ehara, K. Toyota, R. Fukuda, 
 J. Hasegawa, M. Ishida, T. Nakajima, Y. Honda, O. Kitao, H. Nakai, 
 T. Vreven, K. Throssell, J. A. Montgomery, Jr., J. E. Peralta, 
 F. Ogliaro, M. J. Bearpark, J. J. Heyd, E. N. Brothers, K. N. Kudin, 
 V. N. Staroverov, T. A. Keith, R. Kobayashi, J. Normand, 
 K. Raghavachari, A. P. Rendell, J. C. Burant, S. S. Iyengar, 
 J. Tomasi, M. Cossi, J. M. Millam, M. Klene, C. Adamo, R. Cammi, 
 J. W. Ochterski, R. L. Martin, K. Morokuma, O. Farkas, 
 J. B. Foresman, and D. J. Fox, Gaussian, Inc., Wallingford CT, 2016.
 
 ******************************************
 Gaussian 16:  ES64L-G16RevA.03 25-Dec-2016
                10-Jun-2022 
 ******************************************
 %nprocshared=12
 Will use up to   12 processors via shared memory.
 %chk=checkpoint.chk
 %mem=12GB
 ----------------------------------------------------------------------
 # Opt=(Z-matrix, MaxStep=10) B3LYP/Def2TZVP geom=allcheckpoint guess=r
 ead Field=read NoSymm freq=noraman pop=none
 ----------------------------------------------------------------------
 1/8=10,10=7,18=40,26=3,29=7,38=1/1,3;
 2/12=2,15=1,29=3,40=1/2;
 3/5=44,7=101,11=2,14=-6,25=1,30=1,71=1,74=-5,116=-2/1,2,3;
 4/5=1/1;
 5/5=2,38=6/2;
 7/29=1,30=1/1,2,3,16;
 1/8=10,10=7,18=40,26=3/3(2);
 2/15=1,29=3/2;
 99//99;
 2/15=1,29=3/2;
 3/5=44,7=101,11=2,14=-2,25=1,30=1,71=1,74=-5/1,2,3;
 4/5=5,16=3,69=1/1;
 5/5=2,38=5/2;
 7/30=1/1,2,3,16;
 1/8=10,18=40,26=3/3(-5);
 2/15=1,29=3/2;
 99/9=1/99;
 Structure from the checkpoint file:  "checkpoint.chk"
 ------------------
 int_zmat_initalOpt
 ------------------
 Charge =  0 Multiplicity = 1
 Z-Matrix found in chk file.
 C
 C,1,R2
 C,1,R3,2,A3
 H,1,R4,2,A4,3,D4,0
 C,3,R5,1,A5,2,D5,0
 C,2,R6,1,A6,3,D6,0
 H,2,R7,1,A7,6,D7,0
 C,2,R8,1,A8,6,D8,0
 H,3,R9,1,A9,5,D9,0
 C,5,R10,3,A10,1,D10,0
 H,5,R11,3,A11,10,D11,0
 C,5,R12,3,A12,10,D12,0
 H,8,R13,2,A13,1,D13,0
 H,8,R14,2,A14,13,D14,0
 N,6,R15,2,A15,1,D15,0
 C,6,R16,2,A16,15,D16,0
 H,10,R17,5,A17,3,D17,0
 H,10,R18,5,A18,17,D18,0
 H,12,R19,5,A19,3,D19,0
 H,12,R20,5,A20,19,D20,0
 O,15,R21,6,A21,2,D21,0
 O,16,R22,6,A22,2,D22,0
 O,16,R23,6,A23,22,D23,0
 C,23,R24,16,A24,6,D24,0
 H,24,R25,23,A25,16,D25,0
 H,24,R26,23,A26,25,D26,0
 H,24,R27,23,A27,25,D27,0
      Variables:
 R2=1.50755313
 R3=1.33141541
 R4=1.08258557
 R5=1.50621911
 R6=1.57010832
 R7=1.08673875
 R8=1.55190015
 R9=1.08321545
 R10=1.55028193
 R11=1.08995241
 R12=1.55004564
 R13=1.09151799
 R14=1.09044948
 R15=1.54866217
 R16=1.53699261
 R17=1.08863351
 R18=1.09082618
 R19=1.09162092
 R20=1.09058066
 R21=1.18994146
 R22=1.20317903
 R23=1.3387183
 R24=1.44157479
 R25=1.08595844
 R26=1.08876695
 R27=1.08887976
 A3=114.46275826
 A4=121.22963725
 A5=114.236062
 A6=107.55640916
 A7=112.87575786
 A8=107.95547623
 A9=123.78789183
 A10=108.3171817
 A11=112.25043107
 A12=107.98212639
 A13=110.07177703
 A14=108.20110416
 A15=103.74729486
 A16=111.66361151
 A17=110.54993084
 A18=110.23340819
 A19=109.16337363
 A20=109.89146332
 A21=115.58360938
 A22=124.30597554
 A23=111.75609891
 A24=115.94518863
 A25=105.45396501
 A26=110.30079224
 A27=110.36166718
 D4=-179.25803947
 D5=1.19718363
 D6=-58.20528491
 D7=-121.100721
 D8=115.30319599
 D9=179.54351676
 D10=57.35167731
 D11=121.39326037
 D12=-116.46322179
 D13=-177.61151858
 D14=-116.21006723
 D15=-69.14885533
 D16=-110.34183192
 D17=-176.4872152
 D18=-118.85789956
 D19=176.19613699
 D20=117.2177973
 D21=120.29162961
 D22=-133.25128994
 D23=-178.80540678
 D24=177.91155352
 D25=-178.89991742
 D26=119.66641188
 D27=-119.58989236
 Recover connectivity data from disk.

 GradGradGradGradGradGradGradGradGradGradGradGradGradGradGradGradGradGrad
 Berny optimization.
 Initialization pass.
                       ----------------------------
                       !    Initial Parameters    !
                       ! (Angstroms and Degrees)  !
 ----------------------                            ----------------------
 !      Name          Value   Derivative information (Atomic Units)     !
 ------------------------------------------------------------------------
 !       R2          1.5076   estimate D2E/DX2                          !
 !       R3          1.3314   estimate D2E/DX2                          !
 !       R4          1.0826   estimate D2E/DX2                          !
 !       R5          1.5062   estimate D2E/DX2                          !
 !       R6          1.5701   estimate D2E/DX2                          !
 !       R7          1.0867   estimate D2E/DX2                          !
 !       R8          1.5519   estimate D2E/DX2                          !
 !       R9          1.0832   estimate D2E/DX2                          !
 !       R10         1.5503   estimate D2E/DX2                          !
 !       R11         1.09     estimate D2E/DX2                          !
 !       R12         1.55     estimate D2E/DX2                          !
 !       R13         1.0915   estimate D2E/DX2                          !
 !       R14         1.0904   estimate D2E/DX2                          !
 !       R15         1.5487   estimate D2E/DX2                          !
 !       R16         1.537    estimate D2E/DX2                          !
 !       R17         1.0886   estimate D2E/DX2                          !
 !       R18         1.0908   estimate D2E/DX2                          !
 !       R19         1.0916   estimate D2E/DX2                          !
 !       R20         1.0906   estimate D2E/DX2                          !
 !       R21         1.1899   estimate D2E/DX2                          !
 !       R22         1.2032   estimate D2E/DX2                          !
 !       R23         1.3387   estimate D2E/DX2                          !
 !       R24         1.4416   estimate D2E/DX2                          !
 !       R25         1.086    estimate D2E/DX2                          !
 !       R26         1.0888   estimate D2E/DX2                          !
 !       R27         1.0889   estimate D2E/DX2                          !
 !       A3        114.4628   estimate D2E/DX2                          !
 !       A4        121.2296   estimate D2E/DX2                          !
 !       A5        114.2361   estimate D2E/DX2                          !
 !       A6        107.5564   estimate D2E/DX2                          !
 !       A7        112.8758   estimate D2E/DX2                          !
 !       A8        107.9555   estimate D2E/DX2                          !
 !       A9        123.7879   estimate D2E/DX2                          !
 !       A10       108.3172   estimate D2E/DX2                          !
 !       A11       112.2504   estimate D2E/DX2                          !
 !       A12       107.9821   estimate D2E/DX2                          !
 !       A13       110.0718   estimate D2E/DX2                          !
 !       A14       108.2011   estimate D2E/DX2                          !
 !       A15       103.7473   estimate D2E/DX2                          !
 !       A16       111.6636   estimate D2E/DX2                          !
 !       A17       110.5499   estimate D2E/DX2                          !
 !       A18       110.2334   estimate D2E/DX2                          !
 !       A19       109.1634   estimate D2E/DX2                          !
 !       A20       109.8915   estimate D2E/DX2                          !
 !       A21       115.5836   estimate D2E/DX2                          !
 !       A22       124.306    estimate D2E/DX2                          !
 !       A23       111.7561   estimate D2E/DX2                          !
 !       A24       115.9452   estimate D2E/DX2                          !
 !       A25       105.454    estimate D2E/DX2                          !
 !       A26       110.3008   estimate D2E/DX2                          !
 !       A27       110.3617   estimate D2E/DX2                          !
 !       D4       -179.258    estimate D2E/DX2                          !
 !       D5          1.1972   estimate D2E/DX2                          !
 !       D6        -58.2053   estimate D2E/DX2                          !
 !       D7       -121.1007   estimate D2E/DX2                          !
 !       D8        115.3032   estimate D2E/DX2                          !
 !       D9        179.5435   estimate D2E/DX2                          !
 !       D10        57.3517   estimate D2E/DX2                          !
 !       D11       121.3933   estimate D2E/DX2                          !
 !       D12      -116.4632   estimate D2E/DX2                          !
 !       D13      -177.6115   estimate D2E/DX2                          !
 !       D14      -116.2101   estimate D2E/DX2                          !
 !       D15       -69.1489   estimate D2E/DX2                          !
 !       D16      -110.3418   estimate D2E/DX2                          !
 !       D17      -176.4872   estimate D2E/DX2                          !
 !       D18      -118.8579   estimate D2E/DX2                          !
 !       D19       176.1961   estimate D2E/DX2                          !
 !       D20       117.2178   estimate D2E/DX2                          !
 !       D21       120.2916   estimate D2E/DX2                          !
 !       D22      -133.2513   estimate D2E/DX2                          !
 !       D23      -178.8054   estimate D2E/DX2                          !
 !       D24       177.9116   estimate D2E/DX2                          !
 !       D25      -178.8999   estimate D2E/DX2                          !
 !       D26       119.6664   estimate D2E/DX2                          !
 !       D27      -119.5899   estimate D2E/DX2                          !
 ------------------------------------------------------------------------
 Trust Radius=1.00D-01 FncErr=1.00D-07 GrdErr=1.00D-06 EigMax=2.50D+02 EigMin=1.00D-04
 Number of steps in this run=     85 maximum allowed number of steps=    150.
 GradGradGradGradGradGradGradGradGradGradGradGradGradGradGradGradGradGrad

 ---------------------------------------------------------------------------------------------------
                            Z-MATRIX (ANGSTROMS AND DEGREES)
   CD    Cent   Atom    N1       Length/X        N2       Alpha/Y        N3        Beta/Z          J
 ---------------------------------------------------------------------------------------------------
      1      1  C 
      2      2  C        1   1.507553(     1)
      3      3  C        1   1.331415(     2)      2  114.463(    27)
      4      4  H        1   1.082586(     3)      2  121.230(    28)      3 -179.258(    52)      0
      5      5  C        3   1.506219(     4)      1  114.236(    29)      2    1.197(    53)      0
      6      6  C        2   1.570108(     5)      1  107.556(    30)      3  -58.205(    54)      0
      7      7  H        2   1.086739(     6)      1  112.876(    31)      6 -121.101(    55)      0
      8      8  C        2   1.551900(     7)      1  107.955(    32)      6  115.303(    56)      0
      9      9  H        3   1.083215(     8)      1  123.788(    33)      5  179.544(    57)      0
     10     10  C        5   1.550282(     9)      3  108.317(    34)      1   57.352(    58)      0
     11     11  H        5   1.089952(    10)      3  112.250(    35)     10  121.393(    59)      0
     12     12  C        5   1.550046(    11)      3  107.982(    36)     10 -116.463(    60)      0
     13     13  H        8   1.091518(    12)      2  110.072(    37)      1 -177.612(    61)      0
     14     14  H        8   1.090449(    13)      2  108.201(    38)     13 -116.210(    62)      0
     15     15  N        6   1.548662(    14)      2  103.747(    39)      1  -69.149(    63)      0
     16     16  C        6   1.536993(    15)      2  111.664(    40)     15 -110.342(    64)      0
     17     17  H       10   1.088634(    16)      5  110.550(    41)      3 -176.487(    65)      0
     18     18  H       10   1.090826(    17)      5  110.233(    42)     17 -118.858(    66)      0
     19     19  H       12   1.091621(    18)      5  109.163(    43)      3  176.196(    67)      0
     20     20  H       12   1.090581(    19)      5  109.891(    44)     19  117.218(    68)      0
     21     21  O       15   1.189941(    20)      6  115.584(    45)      2  120.292(    69)      0
     22     22  O       16   1.203179(    21)      6  124.306(    46)      2 -133.251(    70)      0
     23     23  O       16   1.338718(    22)      6  111.756(    47)     22 -178.805(    71)      0
     24     24  C       23   1.441575(    23)     16  115.945(    48)      6  177.912(    72)      0
     25     25  H       24   1.085958(    24)     23  105.454(    49)     16 -178.900(    73)      0
     26     26  H       24   1.088767(    25)     23  110.301(    50)     25  119.666(    74)      0
     27     27  H       24   1.088880(    26)     23  110.362(    51)     25 -119.590(    75)      0
 ---------------------------------------------------------------------------------------------------
                         Z-Matrix orientation:                         
 ---------------------------------------------------------------------
 Center     Atomic      Atomic             Coordinates (Angstroms)
 Number     Number       Type             X           Y           Z
 ---------------------------------------------------------------------
      1          6           0        0.000000    0.000000    0.000000
      2          6           0        0.000000    0.000000    1.507553
      3          6           0        1.211895    0.000000   -0.551341
      4          1           0       -0.925637    0.011987   -0.561287
      5          6           0        2.343319   -0.028696    0.442516
      6          6           0        0.788721   -1.272339    1.981168
      7          1           0       -1.001193   -0.012128    1.930006
      8          6           0        0.801943    1.239516    1.985970
      9          1           0        1.387447    0.011638   -1.620173
     10          6           0        2.174516   -1.283712    1.336840
     11          1           0        3.318845   -0.050000   -0.043170
     12          6           0        2.214144    1.220643    1.350870
     13          1           0        0.859860    1.250380    3.075896
     14          1           0        0.252374    2.134614    1.692962
     15          7           0       -0.136139   -2.448518    1.581679
     16          6           0        0.835939   -1.372609    3.514159
     17          1           0        2.940226   -1.307574    2.110301
     18          1           0        2.280728   -2.189973    0.739084
     19          1           0        2.985595    1.184085    2.122338
     20          1           0        2.387609    2.124425    0.765674
     21          8           0        0.334057   -3.238059    0.825701
     22          8           0        1.830772   -1.609955    4.147890
     23          8           0       -0.372148   -1.188821    4.060890
     24          6           0       -0.440246   -1.310618    5.495695
     25          1           0       -1.483923   -1.151915    5.750367
     26          1           0       -0.112879   -2.301347    5.806661
     27          1           0        0.190112   -0.560046    5.969985
 ---------------------------------------------------------------------
                    Distance matrix (angstroms):
                    1          2          3          4          5
     1  C    0.000000
     2  C    1.507553   0.000000
     3  C    1.331415   2.389087   0.000000
     4  H    1.082586   2.266506   2.137589   0.000000
     5  C    2.384908   2.574154   1.506219   3.419847   0.000000
     6  C    2.483134   1.570108   2.865576   3.324545   2.516122
     7  H    2.174272   1.086739   3.324904   2.492555   3.660418
     8  C    2.474588   1.551900   2.853490   3.313590   2.523183
     9  H    2.133098   3.421669   1.083215   2.543933   2.273765
    10  C    2.857198   2.530925   2.477859   3.859103   1.550282
    11  H    3.319502   3.663601   2.167943   4.276437   1.089952
    12  C    2.866575   2.533171   2.472424   3.869809   1.550046
    13  H    3.429861   2.182317   3.852821   4.236829   3.281977
    14  H    2.736127   2.157463   3.242554   3.312838   3.258155
    15  N    2.918130   2.453420   3.515994   3.357038   3.647046
    16  C    3.864216   2.570859   4.307400   4.650755   3.676042
    17  H    3.848123   3.273834   3.432378   4.880935   2.184796
    18  H    3.247144   3.253959   2.757459   4.101265   2.182427
    19  H    3.849696   3.270137   3.420034   4.886041   2.169138
    20  H    3.286353   3.280890   2.762248   4.147387   2.177688
    21  O    3.358333   3.325889   3.626551   3.751448   3.805781
    22  O    4.811306   3.593753   5.005770   5.692525   4.061142
    23  O    4.247660   2.841007   5.019479   4.807579   4.670362
    24  C    5.666939   4.220997   6.404213   6.218676   5.909837
    25  H    6.049434   4.640086   6.950242   6.442308   6.639479
    26  H    6.247100   4.877629   6.890241   6.823699   6.322333
    27  H    5.999209   4.501454   6.624605   6.650536   5.955799
                    6          7          8          9         10
     6  C    0.000000
     7  H    2.189645   0.000000
     8  C    2.511895   2.195687   0.000000
     9  H    3.869978   4.279011   3.854188   0.000000
    10  C    1.528304   3.471873   2.944827   3.322851   0.000000
    11  H    3.463175   4.749483   3.480669   2.494201   2.176226
    12  C    2.940079   3.491921   1.548554   3.312434   2.504708
    13  H    2.750927   2.523987   1.091518   4.885273   3.342792
    14  H    3.460934   2.497222   1.090449   4.095398   3.937817
    15  N    1.548662   2.608764   3.826884   4.315732   2.599201
    16  C    1.536993   2.781278   3.026502   5.346183   2.557423
    17  H    2.155665   4.152767   3.327970   4.250633   1.088634
    18  H    2.147302   4.114889   3.937375   3.348304   1.090826
    19  H    3.298516   4.166821   2.188608   4.234986   2.713831
    20  H    3.946121   4.171870   2.187812   3.340129   3.462230
    21  O    2.325054   3.661832   4.649066   4.201483   2.732769
    22  O    2.427867   3.935999   3.721810   6.008049   2.850718
    23  O    2.383241   2.514155   3.403029   6.067270   3.730275
    24  C    3.723403   3.835998   4.512692   7.464878   4.912615
    25  H    4.402985   4.015881   5.011468   7.995216   5.734175
    26  H    4.062775   4.588909   5.288884   7.922042   5.123188
    27  H    4.095895   4.247452   4.414197   7.705254   5.091913
                   11         12         13         14         15
    11  H    0.000000
    12  C    2.185920   0.000000
    13  H    4.179254   2.193327   0.000000
    14  H    4.146075   2.191098   1.750262   0.000000
    15  N    4.508873   4.363467   4.111757   4.600916   0.000000
    16  C    4.535274   3.647496   2.659458   3.994736   2.415988
    17  H    2.522357   2.737848   3.435611   4.387184   3.323434
    18  H    2.503815   3.465691   4.394949   4.870950   2.572559
    19  H    2.514647   1.091621   2.330754   2.925469   4.820098
    20  H    2.499911   1.090581   2.904324   2.327916   5.286490
    21  O    4.452821   4.867294   5.048358   5.442832   1.189941
    22  O    4.713046   3.997822   3.205207   4.747610   3.340264
    23  O    5.635925   4.454058   2.904782   4.128236   2.790882
    24  C    6.811678   5.534677   3.755584   5.177849   4.087398
    25  H    7.605647   6.217741   4.291519   5.502593   4.568989
    26  H    7.146035   6.137876   4.584546   6.060831   4.227609
    27  H    6.797584   5.348250   3.478786   5.055491   4.788527
                   16         17         18         19         20
    16  C    0.000000
    17  H    2.530429   0.000000
    18  H    3.233658   1.758920   0.000000
    19  H    3.618684   2.492102   3.714094   0.000000
    20  H    4.710742   3.727201   4.315803   1.755666   0.000000
    21  O    3.310528   3.488421   2.212582   5.316698   5.742552
    22  O    1.203179   2.339677   3.486952   3.639112   5.069028
    23  O    1.338718   3.845871   4.367431   4.545669   5.426998
    24  C    2.357748   4.784193   5.549984   5.416592   6.493796
    25  H    3.229720   5.731266   6.353198   6.212574   7.111281
    26  H    2.649222   4.896133   5.605542   5.943317   7.159011
    27  H    2.666164   4.797821   5.864270   5.065679   6.254616
                   21         22         23         24         25
    21  O    0.000000
    22  O    3.990966   0.000000
    23  O    3.894168   2.244500   0.000000
    24  C    5.111107   2.657764   1.441575   0.000000
    25  H    5.648839   3.710113   2.022804   1.085958   0.000000
    26  H    5.087941   2.647135   2.086301   1.088767   1.790007
    27  H    5.801390   2.667228   2.087136   1.088880   1.789115
                   26         27
    26  H    0.000000
    27  H    1.774994   0.000000
 Symmetry turned off by external request.
 Stoichiometry    C10H13NO3
 Framework group  C1[X(C10H13NO3)]
 Deg. of freedom    75
 Full point group                 C1      NOp   1
 Rotational constants (GHZ):           1.1214211           0.6261424           0.5349851
 Standard basis: def2TZVP (5D, 7F)
 The following finite field(s) will be applied:
 An electric field of             -0.0020 -0.0014 -0.0044
   512 basis functions,   818 primitive gaussians,   582 cartesian basis functions
    52 alpha electrons       52 beta electrons
       nuclear repulsion energy       966.0655752940 Hartrees.
 NAtoms=   27 NActive=   27 NUniq=   27 SFac= 1.00D+00 NAtFMM=   60 NAOKFM=F Big=F
 Integral buffers will be    131072 words long.
 Raffenetti 2 integral format.
 Two-electron integral symmetry is turned off.
 One-electron integrals computed using PRISM.
   1 Symmetry operations used in ECPInt.
 ECPInt:  NShTT=   21321 NPrTT=   64608 LenC2=   20379 LenP2D=   46979.
 LDataN:  DoStor=T MaxTD1= 6 Len=  172
 NBasis=   512 RedAO= T EigKep=  1.05D-05  NBF=   512
 NBsUse=   512 1.00D-06 EigRej= -1.00D+00 NBFU=   512
 The nuclear repulsion energy is now       964.1967132462 hartrees.
 Initial guess from the checkpoint file:  "checkpoint.chk"
 B after Tr=     0.000000    0.000000    0.000000
         Rot=    1.000000    0.000000   -0.000000    0.000000 Ang=   0.00 deg.
 Requested convergence on RMS density matrix=1.00D-08 within 128 cycles.
 Requested convergence on MAX density matrix=1.00D-06.
 Requested convergence on             energy=1.00D-06.
 No special actions if energy rises.
 SCF Done:  E(RB3LYP) =  -669.474642607     A.U. after   10 cycles
            NFock= 10  Conv=0.71D-08     -V/T= 2.0048
   1 Symmetry operations used in ECPInt.
 ECPInt:  NShTT=   21321 NPrTT=   64608 LenC2=   20379 LenP2D=   46979.
 LDataN:  DoStor=T MaxTD1= 7 Len=  274
 Calling FoFJK, ICntrl=      2127 FMM=F ISym2X=0 I1Cent= 0 IOpClX= 0 NMat=1 NMatS=1 NMatT=0.
 -------------------------------------------------------------------
 Center     Atomic                   Forces (Hartrees/Bohr)
 Number     Number              X              Y              Z
 -------------------------------------------------------------------
      1        6          -0.000247384    0.001180158    0.000264549
      2        6           0.000124566   -0.000930681    0.000027872
      3        6           0.000233707   -0.000636714    0.000220355
      4        1          -0.000244816    0.000110899   -0.000138493
      5        6           0.000076459    0.000025506   -0.000052007
      6        6          -0.000594892   -0.000535250   -0.000692902
      7        1           0.000028359    0.000017280    0.000109268
      8        6           0.000175063    0.000038834    0.000186429
      9        1           0.000063872    0.000095990   -0.000310175
     10        6          -0.000094514   -0.000115166   -0.000060504
     11        1           0.000062711    0.000025402    0.000046832
     12        6           0.000055224    0.000052432    0.000218669
     13        1          -0.000039141    0.000013480   -0.000298997
     14        1           0.000030184    0.000032026    0.000105550
     15        7           0.000188801    0.002349180    0.001113062
     16        6           0.000199437   -0.000318905    0.003467057
     17        1          -0.000096836    0.000062682    0.000017445
     18        1           0.000103828   -0.000010470    0.000073280
     19        1          -0.000177527    0.000055638   -0.000221750
     20        1           0.000048988    0.000021552    0.000099234
     21        8           0.000440436   -0.001788735   -0.001518566
     22        8          -0.000863672    0.000175790   -0.002064700
     23        8           0.000434112   -0.000080842   -0.002257263
     24        6           0.000072455    0.000175034    0.001669370
     25        1           0.000103831    0.000065932    0.000045489
     26        1           0.000037863    0.000088091   -0.000038174
     27        1          -0.000121114   -0.000169143   -0.000010929
 -------------------------------------------------------------------
 Cartesian Forces:  Max     0.003467057 RMS     0.000724536
 -----------------------------------------------------------------------------------------------
                       Internal Coordinate Forces (Hartree/Bohr or radian)
  Cent   Atom   N1       Length/X         N2         Alpha/Y        N3         Beta/Z          J
 -----------------------------------------------------------------------------------------------
      1  C 
      2  C        1  -0.000157(     1)
      3  C        1   0.000238(     2)      2  -0.001391(    27)
      4  H        1   0.000282(     3)      2  -0.000019(    28)      3   0.000188(    52)     0
      5  C        3   0.000061(     4)      1  -0.000998(    29)      2  -0.000297(    53)     0
      6  C        2  -0.000107(     5)      1  -0.002365(    30)      3  -0.001710(    54)     0
      7  H        2   0.000016(     6)      1   0.000230(    31)      6  -0.000032(    55)     0
      8  C        2   0.000151(     7)      1  -0.000053(    32)      6  -0.000343(    56)     0
      9  H        3   0.000317(     8)      1   0.000025(    33)      5   0.000158(    57)     0
     10  C        5   0.000078(     9)      3  -0.000077(    34)      1   0.000152(    58)     0
     11  H        5   0.000035(    10)      3   0.000143(    35)     10   0.000051(    59)     0
     12  C        5   0.000167(    11)      3  -0.000074(    36)     10   0.000190(    60)     0
     13  H        8  -0.000301(    12)      2   0.000003(    37)      1   0.000095(    61)     0
     14  H        8  -0.000017(    13)      2   0.000172(    38)     13   0.000150(    62)     0
     15  N        6  -0.000697(    14)      2  -0.000948(    39)      1  -0.001250(    63)     0
     16  C        6   0.000809(    15)      2   0.000936(    40)     15  -0.001991(    64)     0
     17  H       10  -0.000057(    16)      5  -0.000022(    41)      3   0.000418(    65)     0
     18  H       10  -0.000021(    17)      5   0.000103(    42)     17   0.000223(    66)     0
     19  H       12  -0.000284(    18)      5   0.000050(    43)      3  -0.000033(    67)     0
     20  H       12  -0.000028(    19)      5   0.000177(    44)     19  -0.000131(    68)     0
     21  O       15   0.002326(    20)      6   0.001204(    45)      2  -0.000133(    69)     0
     22  O       16  -0.001836(    21)      6  -0.002924(    46)      2  -0.000661(    70)     0
     23  O       16  -0.000706(    22)      6  -0.000440(    47)     22  -0.000441(    71)     0
     24  C       23   0.001640(    23)     16  -0.000409(    48)      6   0.000663(    72)     0
     25  H       24  -0.000079(    24)     23   0.000119(    49)     16  -0.000079(    73)     0
     26  H       24  -0.000080(    25)     23  -0.000043(    50)     25   0.000120(    74)     0
     27  H       24  -0.000191(    26)     23   0.000166(    51)     25  -0.000028(    75)     0
 -----------------------------------------------------------------------------------------------
 Internal  Forces:  Max     0.002924169 RMS     0.000772025

 GradGradGradGradGradGradGradGradGradGradGradGradGradGradGradGradGradGrad
 Berny optimization.
 Search for a local minimum.
 Step number   1 out of a maximum of   85
 All quantities printed in internal units (Hartrees-Bohrs-Radians)
 Second derivative matrix not updated -- first step.
 ITU=  0
     Eigenvalues ---    0.00809   0.02828   0.04148   0.04729   0.06206
     Eigenvalues ---    0.06733   0.07867   0.07915   0.09070   0.09695
     Eigenvalues ---    0.09974   0.11715   0.14639   0.14779   0.16796
     Eigenvalues ---    0.16898   0.17947   0.18274   0.18806   0.20836
     Eigenvalues ---    0.21453   0.23092   0.23819   0.24103   0.25170
     Eigenvalues ---    0.25988   0.26216   0.26603   0.27457   0.27767
     Eigenvalues ---    0.27782   0.28014   0.28788   0.29340   0.30203
     Eigenvalues ---    0.30544   0.31102   0.31294   0.31796   0.32698
     Eigenvalues ---    0.33529   0.33913   0.34626   0.34638   0.34718
     Eigenvalues ---    0.34746   0.34761   0.34818   0.34941   0.34958
     Eigenvalues ---    0.34971   0.35017   0.35193   0.35286   0.35609
     Eigenvalues ---    0.35684   0.38289   0.39370   0.42360   0.45538
     Eigenvalues ---    0.51124   0.52911   0.57477   0.57629   0.62637
     Eigenvalues ---    0.71024   0.79361   0.97659   1.03242   1.10044
     Eigenvalues ---    1.70037   2.97566   6.96559   9.06391  23.42575
 RFO step:  Lambda=-8.53500206D-05 EMin= 8.08520488D-03
 Linear search not attempted -- first point.
 Variable       Old X    -DE/DX   Delta X   Delta X   Delta X     New X
                                 (Linear)    (Quad)   (Total)
    R2        2.84886  -0.00016   0.00000   0.00025   0.00025   2.84911
    R3        2.51601   0.00024   0.00000   0.00062   0.00062   2.51663
    R4        2.04579   0.00028   0.00000   0.00079   0.00079   2.04658
    R5        2.84634   0.00006   0.00000  -0.00021  -0.00021   2.84613
    R6        2.96707  -0.00011   0.00000  -0.00012  -0.00012   2.96696
    R7        2.05364   0.00002   0.00000   0.00005   0.00005   2.05369
    R8        2.93267   0.00015   0.00000   0.00053   0.00053   2.93319
    R9        2.04698   0.00032   0.00000   0.00089   0.00089   2.04787
   R10        2.92961   0.00008   0.00000   0.00013   0.00013   2.92974
   R11        2.05971   0.00003   0.00000   0.00010   0.00010   2.05981
   R12        2.92916   0.00017   0.00000   0.00019   0.00019   2.92935
   R13        2.06267  -0.00030   0.00000  -0.00087  -0.00087   2.06180
   R14        2.06065  -0.00002   0.00000  -0.00004  -0.00004   2.06061
   R15        2.92655  -0.00070   0.00000  -0.00249  -0.00249   2.92406
   R16        2.90450   0.00081   0.00000   0.00283   0.00283   2.90732
   R17        2.05722  -0.00006   0.00000  -0.00017  -0.00017   2.05705
   R18        2.06136  -0.00002   0.00000  -0.00006  -0.00006   2.06130
   R19        2.06286  -0.00028   0.00000  -0.00082  -0.00082   2.06204
   R20        2.06090  -0.00003   0.00000  -0.00007  -0.00007   2.06082
   R21        2.24866   0.00233   0.00000   0.00213   0.00213   2.25079
   R22        2.27368  -0.00184   0.00000  -0.00177  -0.00177   2.27191
   R23        2.52981  -0.00071   0.00000  -0.00122  -0.00122   2.52859
   R24        2.72418   0.00164   0.00000   0.00417   0.00417   2.72835
   R25        2.05216  -0.00008   0.00000  -0.00021  -0.00021   2.05196
   R26        2.05747  -0.00008   0.00000  -0.00022  -0.00022   2.05725
   R27        2.05768  -0.00019   0.00000  -0.00056  -0.00056   2.05712
    A3        1.99775  -0.00139   0.00000   0.00034   0.00034   1.99809
    A4        2.11586  -0.00002   0.00000  -0.00026  -0.00026   2.11560
    A5        1.99380  -0.00100   0.00000  -0.00006  -0.00006   1.99374
    A6        1.87721  -0.00237   0.00000  -0.00407  -0.00407   1.87314
    A7        1.97005   0.00023   0.00000   0.00114   0.00114   1.97120
    A8        1.88418  -0.00005   0.00000   0.00190   0.00190   1.88607
    A9        2.16051   0.00002   0.00000   0.00010   0.00010   2.16061
   A10        1.89049  -0.00008   0.00000  -0.00125  -0.00125   1.88924
   A11        1.95914   0.00014   0.00000   0.00079   0.00079   1.95993
   A12        1.88464  -0.00007   0.00000   0.00025   0.00025   1.88489
   A13        1.92111   0.00000   0.00000  -0.00018  -0.00018   1.92093
   A14        1.88847   0.00017   0.00000   0.00033   0.00033   1.88880
   A15        1.81073  -0.00095   0.00000  -0.00186  -0.00186   1.80887
   A16        1.94890   0.00094   0.00000   0.00194   0.00194   1.95084
   A17        1.92946  -0.00002   0.00000  -0.00097  -0.00097   1.92849
   A18        1.92394   0.00010   0.00000   0.00077   0.00077   1.92471
   A19        1.90526   0.00005   0.00000   0.00029   0.00029   1.90555
   A20        1.91797   0.00018   0.00000   0.00055   0.00055   1.91852
   A21        2.01731   0.00120   0.00000   0.00478   0.00478   2.02209
   A22        2.16955  -0.00292   0.00000  -0.00608  -0.00608   2.16346
   A23        1.95051  -0.00044   0.00000   0.00166   0.00166   1.95218
   A24        2.02363  -0.00041   0.00000  -0.00078  -0.00078   2.02285
   A25        1.84052   0.00012   0.00000  -0.00007  -0.00007   1.84045
   A26        1.92511  -0.00004   0.00000  -0.00079  -0.00079   1.92432
   A27        1.92617   0.00017   0.00000   0.00175   0.00175   1.92793
    D4       -3.12864   0.00019   0.00000   0.00520   0.00520  -3.12344
    D5        0.02089  -0.00030   0.00000   0.00496   0.00496   0.02585
    D6       -1.01587  -0.00171   0.00000  -0.00574  -0.00574  -1.02161
    D7       -2.11361  -0.00003   0.00000   0.00225   0.00225  -2.11136
    D8        2.01242  -0.00034   0.00000   0.00039   0.00039   2.01281
    D9        3.13363   0.00016   0.00000   0.00001   0.00001   3.13364
   D10        1.00098   0.00015   0.00000  -0.00265  -0.00265   0.99832
   D11        2.11871   0.00005   0.00000   0.00006   0.00006   2.11877
   D12       -2.03267   0.00019   0.00000   0.00003   0.00003  -2.03263
   D13       -3.09991   0.00009   0.00000   0.00219   0.00219  -3.09772
   D14       -2.02825   0.00015   0.00000   0.00092   0.00092  -2.02733
   D15       -1.20688  -0.00125   0.00000   0.00445   0.00445  -1.20242
   D16       -1.92583  -0.00199   0.00000  -0.00375  -0.00375  -1.92958
   D17       -3.08028   0.00042   0.00000   0.00274   0.00274  -3.07754
   D18       -2.07446   0.00022   0.00000   0.00040   0.00040  -2.07407
   D19        3.07520  -0.00003   0.00000   0.00028   0.00028   3.07548
   D20        2.04584  -0.00013   0.00000  -0.00050  -0.00050   2.04534
   D21        2.09948  -0.00013   0.00000  -0.01586  -0.01586   2.08362
   D22       -2.32567  -0.00066   0.00000  -0.00317  -0.00317  -2.32884
   D23       -3.12074  -0.00044   0.00000  -0.00524  -0.00524  -3.12599
   D24        3.10514   0.00066   0.00000   0.01323   0.01323   3.11837
   D25       -3.12239  -0.00008   0.00000   0.00451   0.00451  -3.11788
   D26        2.08857   0.00012   0.00000  -0.00026  -0.00026   2.08832
   D27       -2.08724  -0.00003   0.00000  -0.00017  -0.00017  -2.08741
         Item               Value     Threshold  Converged?
 Maximum Force            0.002924     0.000450     NO 
 RMS     Force            0.000772     0.000300     NO 
 Maximum Displacement     0.015862     0.001800     NO 
 RMS     Displacement     0.003212     0.001200     NO 
 Predicted change in Energy=-4.270807D-05
 GradGradGradGradGradGradGradGradGradGradGradGradGradGradGradGradGradGrad

 ---------------------------------------------------------------------------------------------------
                            Z-MATRIX (ANGSTROMS AND DEGREES)
   CD    Cent   Atom    N1       Length/X        N2       Alpha/Y        N3        Beta/Z          J
 ---------------------------------------------------------------------------------------------------
      1      1  C 
      2      2  C        1   1.507687(     1)
      3      3  C        1   1.331744(     2)      2  114.482(    27)
      4      4  H        1   1.083004(     3)      2  121.215(    28)      3 -178.960(    52)      0
      5      5  C        3   1.506108(     4)      1  114.233(    29)      2    1.481(    53)      0
      6      6  C        2   1.570046(     5)      1  107.323(    30)      3  -58.534(    54)      0
      7      7  H        2   1.086765(     6)      1  112.941(    31)      6 -120.972(    55)      0
      8      8  C        2   1.552179(     7)      1  108.064(    32)      6  115.325(    56)      0
      9      9  H        3   1.083687(     8)      1  123.794(    33)      5  179.544(    57)      0
     10     10  C        5   1.550349(     9)      3  108.246(    34)      1   57.200(    58)      0
     11     11  H        5   1.090005(    10)      3  112.296(    35)     10  121.396(    59)      0
     12     12  C        5   1.550145(    11)      3  107.996(    36)     10 -116.461(    60)      0
     13     13  H        8   1.091058(    12)      2  110.061(    37)      1 -177.486(    61)      0
     14     14  H        8   1.090427(    13)      2  108.220(    38)     13 -116.158(    62)      0
     15     15  N        6   1.547344(    14)      2  103.641(    39)      1  -68.894(    63)      0
     16     16  C        6   1.538489(    15)      2  111.775(    40)     15 -110.557(    64)      0
     17     17  H       10   1.088545(    16)      5  110.495(    41)      3 -176.330(    65)      0
     18     18  H       10   1.090793(    17)      5  110.278(    42)     17 -118.835(    66)      0
     19     19  H       12   1.091186(    18)      5  109.180(    43)      3  176.212(    67)      0
     20     20  H       12   1.090541(    19)      5  109.923(    44)     19  117.189(    68)      0
     21     21  O       15   1.191068(    20)      6  115.857(    45)      2  119.383(    69)      0
     22     22  O       16   1.202244(    21)      6  123.957(    46)      2 -133.433(    70)      0
     23     23  O       16   1.338072(    22)      6  111.851(    47)     22 -179.106(    71)      0
     24     24  C       23   1.443782(    23)     16  115.901(    48)      6  178.670(    72)      0
     25     25  H       24   1.085850(    24)     23  105.450(    49)     16 -178.642(    73)      0
     26     26  H       24   1.088650(    25)     23  110.255(    50)     25  119.652(    74)      0
     27     27  H       24   1.088583(    26)     23  110.462(    51)     25 -119.600(    75)      0
 ---------------------------------------------------------------------------------------------------
                         Z-Matrix orientation:                         
 ---------------------------------------------------------------------
 Center     Atomic      Atomic             Coordinates (Angstroms)
 Number     Number       Type             X           Y           Z
 ---------------------------------------------------------------------
      1          6           0        0.000000    0.000000    0.000000
      2          6           0        0.000000    0.000000    1.507687
      3          6           0        1.212008    0.000000   -0.551888
      4          1           0       -0.926066    0.016810   -0.561264
      5          6           0        2.343561   -0.035503    0.441434
      6          6           0        0.782372   -1.278429    1.975188
      7          1           0       -1.000771   -0.008626    1.931292
      8          6           0        0.808217    1.234663    1.988988
      9          1           0        1.387411    0.016118   -1.621164
     10          6           0        2.168668   -1.292641    1.331714
     11          1           0        3.319271   -0.059256   -0.043889
     12          6           0        2.219720    1.211972    1.353256
     13          1           0        0.866820    1.242115    3.078446
     14          1           0        0.262439    2.133287    1.699794
     15          7           0       -0.148164   -2.445350    1.566931
     16          6           0        0.833031   -1.387446    3.508973
     17          1           0        2.932667   -1.320165    2.106621
     18          1           0        2.273925   -2.197929    0.732379
     19          1           0        2.991143    1.170738    2.123901
     20          1           0        2.396607    2.116920    0.770967
     21          8           0        0.308132   -3.227225    0.792911
     22          8           0        1.830567   -1.637016    4.131891
     23          8           0       -0.369207   -1.190141    4.062263
     24          6           0       -0.427690   -1.302592    5.500471
     25          1           0       -1.468843   -1.138261    5.761366
     26          1           0       -0.102028   -2.292741    5.814651
     27          1           0        0.208312   -0.552362    5.967022
 ---------------------------------------------------------------------
                    Distance matrix (angstroms):
                    1          2          3          4          5
     1  C    0.000000
     2  C    1.507687   0.000000
     3  C    1.331744   2.389730   0.000000
     4  H    1.083004   2.266813   2.138160   0.000000
     5  C    2.385037   2.574963   1.506108   3.420322   0.000000
     6  C    2.479486   1.570046   2.864451   3.321143   2.516859
     7  H    2.175202   1.086765   3.326056   2.493806   3.661278
     8  C    2.476627   1.552179   2.853681   3.315824   2.523000
     9  H    2.133856   3.422700   1.083687   2.544713   2.274027
    10  C    2.854383   2.530812   2.476707   3.856865   1.550349
    11  H    3.320090   3.664486   2.168440   4.277423   1.090005
    12  C    2.868333   2.533749   2.472637   3.871663   1.550145
    13  H    3.430897   2.182089   3.852445   4.238314   3.281297
    14  H    2.740271   2.157937   3.243866   3.317289   3.258556
    15  N    2.908085   2.450550   3.509871   3.346129   3.644557
    16  C    3.864173   2.573731   4.308041   4.651149   3.676853
    17  H    3.844635   3.271405   3.430914   4.878005   2.184090
    18  H    3.246229   3.256183   2.758242   4.101039   2.183022
    19  H    3.850781   3.270670   3.419912   4.887350   2.169118
    20  H    3.289295   3.281437   2.763073   4.150356   2.178149
    21  O    3.337459   3.319764   3.611157   3.725695   3.801789
    22  O    4.806591   3.594057   5.000022   5.688574   4.055549
    23  O    4.249086   2.842290   5.020664   4.810804   4.669337
    24  C    5.668761   4.221610   6.404405   6.223651   5.905862
    25  H    6.053634   4.641867   6.952681   6.450152   6.637182
    26  H    6.251179   4.880268   6.893198   6.831205   6.320404
    27  H    5.996153   4.498240   6.618814   6.650510   5.946306
                    6          7          8          9         10
     6  C    0.000000
     7  H    2.189503   0.000000
     8  C    2.513263   2.195799   0.000000
     9  H    3.869841   4.280651   3.854026   0.000000
    10  C    1.528423   3.471819   2.944504   3.323057   0.000000
    11  H    3.463944   4.750438   3.480260   2.495107   2.176559
    12  C    2.941915   3.492212   1.548229   3.312096   2.505225
    13  H    2.752717   2.523532   1.091058   4.884713   3.342285
    14  H    3.462077   2.497416   1.090427   4.095940   3.937788
    15  N    1.547344   2.607166   3.825610   4.310541   2.598418
    16  C    1.538489   2.784429   3.030912   5.347489   2.556045
    17  H    2.154712   4.150036   3.324796   4.250864   1.088545
    18  H    2.148205   4.117532   3.938281   3.350683   1.090793
    19  H    3.301393   4.166938   2.188025   4.234456   2.715190
    20  H    3.947694   4.172106   2.187449   3.339781   3.462874
    21  O    2.328194   3.656298   4.646411   4.184720   2.737612
    22  O    2.424596   3.938370   3.726093   6.002240   2.841460
    23  O    2.385333   2.517119   3.400658   6.069771   3.729238
    24  C    3.727259   3.839506   4.505069   7.466678   4.911182
    25  H    4.407127   4.020527   5.004659   7.999534   5.733859
    26  H    4.068473   4.594061   5.282691   7.927207   5.123767
    27  H    4.097738   4.247898   4.402056   7.700261   5.086952
                   11         12         13         14         15
    11  H    0.000000
    12  C    2.185645   0.000000
    13  H    4.178164   2.192607   0.000000
    14  H    4.146311   2.190858   1.749327   0.000000
    15  N    4.506804   4.362170   4.112452   4.598930   0.000000
    16  C    4.535229   3.650615   2.664786   3.999283   2.419386
    17  H    2.522705   2.736341   3.431828   4.384284   3.323977
    18  H    2.503849   3.466388   4.395211   4.872514   2.573753
    19  H    2.513934   1.091186   2.330021   2.924413   4.820949
    20  H    2.500208   1.090541   2.903444   2.327586   5.284290
    21  O    4.450081   4.865657   5.050822   5.436875   1.191068
    22  O    4.705603   3.998622   3.213713   4.752821   3.338832
    23  O    5.634204   4.451001   2.900264   4.126187   2.801980
    24  C    6.806286   5.525505   3.743995   5.169787   4.105699
    25  H    7.602057   6.209712   4.280137   5.495156   4.587588
    26  H    7.142565   6.130055   4.573915   6.054306   4.250711
    27  H    6.786182   5.333430   3.463763   5.042308   4.803257
                   16         17         18         19         20
    16  C    0.000000
    17  H    2.525784   0.000000
    18  H    3.231490   1.758679   0.000000
    19  H    3.622178   2.491648   3.714653   0.000000
    20  H    4.714024   3.726242   4.316765   1.754755   0.000000
    21  O    3.322242   3.500128   2.219787   5.320917   5.737778
    22  O    1.202244   2.327389   3.473884   3.641763   5.070329
    23  O    1.338072   3.839767   4.369200   4.541250   5.423929
    24  C    2.358534   4.776037   5.552932   5.404351   6.483666
    25  H    3.230169   5.723944   6.357823   6.201137   7.102252
    26  H    2.647650   4.889251   5.611028   5.931697   7.150317
    27  H    2.670140   4.786891   5.863117   5.048049   6.238003
                   21         22         23         24         25
    21  O    0.000000
    22  O    3.999420   0.000000
    23  O    3.911158   2.245785   0.000000
    24  C    5.138751   2.661687   1.443782   0.000000
    25  H    5.675117   3.713496   2.024560   1.085850   0.000000
    26  H    5.124389   2.645105   2.087576   1.088650   1.789928
    27  H    5.825485   2.678785   2.090071   1.088583   1.788412
                   26         27
    26  H    0.000000
    27  H    1.774387   0.000000
 Symmetry turned off by external request.
 Stoichiometry    C10H13NO3
 Framework group  C1[X(C10H13NO3)]
 Deg. of freedom    75
 Full point group                 C1      NOp   1
 Rotational constants (GHZ):           1.1194778           0.6266835           0.5348726
 Standard basis: def2TZVP (5D, 7F)
 The following finite field(s) will be applied:
 An electric field of             -0.0020 -0.0014 -0.0044
   512 basis functions,   818 primitive gaussians,   582 cartesian basis functions
    52 alpha electrons       52 beta electrons
       nuclear repulsion energy       965.9819144802 Hartrees.
 NAtoms=   27 NActive=   27 NUniq=   27 SFac= 1.00D+00 NAtFMM=   60 NAOKFM=F Big=F
 Integral buffers will be    131072 words long.
 Raffenetti 2 integral format.
 Two-electron integral symmetry is turned off.
 One-electron integrals computed using PRISM.
   1 Symmetry operations used in ECPInt.
 ECPInt:  NShTT=   21321 NPrTT=   64608 LenC2=   20377 LenP2D=   46986.
 LDataN:  DoStor=T MaxTD1= 6 Len=  172
 NBasis=   512 RedAO= T EigKep=  1.05D-05  NBF=   512
 NBsUse=   512 1.00D-06 EigRej= -1.00D+00 NBFU=   512
 The nuclear repulsion energy is now       964.1188225822 hartrees.
 Initial guess from the checkpoint file:  "checkpoint.chk"
 B after Tr=    -0.003993    0.017722    0.001049
         Rot=    0.999992   -0.001850   -0.001477    0.003340 Ang=  -0.47 deg.
 Requested convergence on RMS density matrix=1.00D-08 within 128 cycles.
 Requested convergence on MAX density matrix=1.00D-06.
 Requested convergence on             energy=1.00D-06.
 No special actions if energy rises.
 SCF Done:  E(RB3LYP) =  -669.474690959     A.U. after   11 cycles
            NFock= 11  Conv=0.76D-08     -V/T= 2.0048
   1 Symmetry operations used in ECPInt.
 ECPInt:  NShTT=   21321 NPrTT=   64608 LenC2=   20377 LenP2D=   46986.
 LDataN:  DoStor=T MaxTD1= 7 Len=  274
 Calling FoFJK, ICntrl=      2127 FMM=F ISym2X=0 I1Cent= 0 IOpClX= 0 NMat=1 NMatS=1 NMatT=0.
 -------------------------------------------------------------------
 Center     Atomic                   Forces (Hartrees/Bohr)
 Number     Number              X              Y              Z
 -------------------------------------------------------------------
      1        6          -0.000311835    0.002210011   -0.000099366
      2        6           0.000237543   -0.001295330   -0.000146295
      3        6          -0.000067173   -0.000643800    0.000029340
      4        1           0.000013901    0.000057349   -0.000014086
      5        6           0.000000069   -0.000000673   -0.000098658
      6        6          -0.000247619   -0.001247813   -0.000770380
      7        1           0.000003744    0.000031931    0.000005146
      8        6           0.000060640   -0.000106489   -0.000050153
      9        1          -0.000034774   -0.000038901    0.000003008
     10        6           0.000186079    0.000080632   -0.000014221
     11        1          -0.000001495   -0.000005792    0.000006548
     12        6          -0.000078930   -0.000010215    0.000051868
     13        1          -0.000041106   -0.000059322    0.000000807
     14        1          -0.000031981   -0.000009378    0.000013808
     15        7          -0.000268156    0.001302790    0.000975468
     16        6          -0.000381145    0.000232771    0.001284401
     17        1          -0.000049917    0.000002713   -0.000042182
     18        1          -0.000020804    0.000004380   -0.000054966
     19        1           0.000021751   -0.000021128   -0.000011145
     20        1           0.000027543    0.000000294   -0.000005609
     21        8           0.000675147   -0.000210526   -0.000412764
     22        8          -0.000310083   -0.000152302   -0.000308493
     23        8           0.000595219    0.000017816   -0.000842236
     24        6          -0.000100744   -0.000317287    0.000870388
     25        1           0.000044261    0.000064476   -0.000048920
     26        1          -0.000001522    0.000048688   -0.000055750
     27        1           0.000081388    0.000065105   -0.000265560
 -------------------------------------------------------------------
 Cartesian Forces:  Max     0.002210011 RMS     0.000457618
 -----------------------------------------------------------------------------------------------
                       Internal Coordinate Forces (Hartree/Bohr or radian)
  Cent   Atom   N1       Length/X         N2         Alpha/Y        N3         Beta/Z          J
 -----------------------------------------------------------------------------------------------
      1  C 
      2  C        1   0.000249(     1)
      3  C        1   0.000040(     2)      2   0.001063(    27)
      4  H        1  -0.000004(     3)      2   0.000038(    28)      3   0.000101(    52)     0
      5  C        3  -0.000049(     4)      1   0.000674(    29)      2   0.000062(    53)     0
      6  C        2   0.000330(     5)      1   0.000779(    30)      3  -0.001066(    54)     0
      7  H        2  -0.000002(     6)      1   0.000013(    31)      6  -0.000060(    55)     0
      8  C        2  -0.000157(     7)      1   0.000187(    32)      6  -0.000181(    56)     0
      9  H        3  -0.000009(     8)      1  -0.000068(    33)      5  -0.000067(    57)     0
     10  C        5  -0.000148(     9)      3   0.000114(    34)      1   0.000406(    58)     0
     11  H        5  -0.000004(    10)      3   0.000011(    35)     10  -0.000011(    59)     0
     12  C        5  -0.000002(    11)      3   0.000078(    36)     10   0.000120(    60)     0
     13  H        8  -0.000002(    12)      2  -0.000149(    37)      1   0.000049(    61)     0
     14  H        8   0.000005(    13)      2  -0.000046(    38)     13   0.000055(    62)     0
     15  N        6  -0.001217(    14)      2  -0.000139(    39)      1  -0.000448(    63)     0
     16  C        6   0.000632(    15)      2   0.000295(    40)     15  -0.000303(    64)     0
     17  H       10  -0.000065(    16)      5   0.000004(    41)      3  -0.000048(    65)     0
     18  H       10   0.000025(    17)      5  -0.000091(    42)     17  -0.000059(    66)     0
     19  H       12   0.000008(    18)      5  -0.000061(    43)      3  -0.000031(    67)     0
     20  H       12   0.000008(    19)      5  -0.000017(    44)     19  -0.000050(    68)     0
     21  O       15   0.000665(    20)      6  -0.001072(    45)      2   0.000079(    69)     0
     22  O       16  -0.000386(    21)      6  -0.000251(    46)      2  -0.000550(    70)     0
     23  O       16  -0.000715(    22)      6   0.000300(    47)     22  -0.000114(    71)     0
     24  C       23   0.000508(    23)     16  -0.000420(    48)      6   0.000136(    72)     0
     25  H       24  -0.000044(    24)     23  -0.000093(    49)     16  -0.000161(    73)     0
     26  H       24  -0.000061(    25)     23  -0.000084(    50)     25   0.000021(    74)     0
     27  H       24  -0.000021(    26)     23  -0.000583(    51)     25  -0.000050(    75)     0
 -----------------------------------------------------------------------------------------------
 Internal  Forces:  Max     0.001216945 RMS     0.000360540

 GradGradGradGradGradGradGradGradGradGradGradGradGradGradGradGradGradGrad
 Berny optimization.
 Search for a local minimum.
 Step number   2 out of a maximum of   85
 All quantities printed in internal units (Hartrees-Bohrs-Radians)
 Update second derivatives using D2CorN and points    1    2
 DE= -4.84D-05 DEPred=-4.27D-05 R= 1.13D+00
 TightC=F SS=  1.41D+00  RLast= 2.78D-02 DXNew= 1.6818D-01 8.3462D-02
 Trust test= 1.13D+00 RLast= 2.78D-02 DXMaxT set to 1.00D-01
 ITU=  1  0
     Eigenvalues ---    0.00681   0.02959   0.03942   0.04739   0.05907
     Eigenvalues ---    0.06680   0.07633   0.07916   0.09091   0.09668
     Eigenvalues ---    0.09967   0.11705   0.14648   0.14780   0.16760
     Eigenvalues ---    0.16898   0.17950   0.18271   0.18806   0.20825
     Eigenvalues ---    0.21456   0.23093   0.23842   0.24101   0.25767
     Eigenvalues ---    0.25971   0.26240   0.26603   0.27374   0.27636
     Eigenvalues ---    0.27796   0.28014   0.28658   0.29358   0.30219
     Eigenvalues ---    0.30536   0.31095   0.31294   0.31796   0.32694
     Eigenvalues ---    0.33488   0.33896   0.34629   0.34640   0.34718
     Eigenvalues ---    0.34746   0.34761   0.34818   0.34940   0.34957
     Eigenvalues ---    0.34970   0.35030   0.35193   0.35286   0.35611
     Eigenvalues ---    0.35685   0.38139   0.39177   0.42363   0.45555
     Eigenvalues ---    0.51130   0.52907   0.57400   0.57635   0.62519
     Eigenvalues ---    0.70764   0.79427   0.97668   1.03158   1.09882
     Eigenvalues ---    1.70046   2.97597   6.96553   9.06387  23.42590
 RFO step:  Lambda=-3.31624866D-05 EMin= 6.80648655D-03
 Quartic linear search produced a step of  0.15207.
 Variable       Old X    -DE/DX   Delta X   Delta X   Delta X     New X
                                 (Linear)    (Quad)   (Total)
    R2        2.84911   0.00025   0.00004   0.00040   0.00043   2.84955
    R3        2.51663   0.00004   0.00009  -0.00049  -0.00039   2.51624
    R4        2.04658  -0.00000   0.00012  -0.00009   0.00003   2.04661
    R5        2.84613  -0.00005  -0.00003  -0.00024  -0.00028   2.84586
    R6        2.96696   0.00033  -0.00002   0.00159   0.00157   2.96853
    R7        2.05369  -0.00000   0.00001  -0.00001  -0.00000   2.05369
    R8        2.93319  -0.00016   0.00008  -0.00089  -0.00081   2.93238
    R9        2.04787  -0.00001   0.00014  -0.00012   0.00001   2.04788
   R10        2.92974  -0.00015   0.00002   0.00026   0.00028   2.93001
   R11        2.05981  -0.00000   0.00002  -0.00003  -0.00001   2.05980
   R12        2.92935  -0.00000   0.00003  -0.00006  -0.00003   2.92932
   R13        2.06180  -0.00000  -0.00013   0.00007  -0.00006   2.06174
   R14        2.06061   0.00000  -0.00001   0.00003   0.00002   2.06063
   R15        2.92406  -0.00122  -0.00038  -0.00628  -0.00666   2.91740
   R16        2.90732   0.00063   0.00043   0.00301   0.00344   2.91077
   R17        2.05705  -0.00007  -0.00003  -0.00026  -0.00029   2.05676
   R18        2.06130   0.00002  -0.00001   0.00011   0.00010   2.06140
   R19        2.06204   0.00001  -0.00013   0.00011  -0.00001   2.06203
   R20        2.06082   0.00001  -0.00001   0.00004   0.00003   2.06086
   R21        2.25079   0.00067   0.00032   0.00063   0.00095   2.25174
   R22        2.27191  -0.00039  -0.00027  -0.00030  -0.00057   2.27134
   R23        2.52859  -0.00072  -0.00019  -0.00169  -0.00188   2.52671
   R24        2.72835   0.00051   0.00063   0.00149   0.00212   2.73048
   R25        2.05196  -0.00004  -0.00003  -0.00015  -0.00018   2.05178
   R26        2.05725  -0.00006  -0.00003  -0.00023  -0.00027   2.05699
   R27        2.05712  -0.00002  -0.00009  -0.00005  -0.00014   2.05699
    A3        1.99809   0.00106   0.00005   0.00044   0.00049   1.99858
    A4        2.11560   0.00004  -0.00004  -0.00006  -0.00010   2.11549
    A5        1.99374   0.00067  -0.00001  -0.00012  -0.00013   1.99361
    A6        1.87314   0.00078  -0.00062   0.00089   0.00028   1.87342
    A7        1.97120   0.00001   0.00017   0.00008   0.00025   1.97144
    A8        1.88607   0.00019   0.00029   0.00056   0.00085   1.88693
    A9        2.16061  -0.00007   0.00002  -0.00028  -0.00026   2.16035
   A10        1.88924   0.00011  -0.00019   0.00047   0.00028   1.88953
   A11        1.95993   0.00001   0.00012   0.00008   0.00020   1.96013
   A12        1.88489   0.00008   0.00004  -0.00021  -0.00018   1.88471
   A13        1.92093  -0.00015  -0.00003  -0.00101  -0.00104   1.91990
   A14        1.88880  -0.00005   0.00005  -0.00022  -0.00017   1.88862
   A15        1.80887  -0.00014  -0.00028  -0.00084  -0.00113   1.80775
   A16        1.95084   0.00029   0.00030   0.00160   0.00190   1.95274
   A17        1.92849   0.00000  -0.00015  -0.00025  -0.00040   1.92810
   A18        1.92471  -0.00009   0.00012  -0.00046  -0.00034   1.92437
   A19        1.90555  -0.00006   0.00004  -0.00022  -0.00018   1.90537
   A20        1.91852  -0.00002   0.00008  -0.00024  -0.00016   1.91836
   A21        2.02209  -0.00107   0.00073  -0.00672  -0.00600   2.01609
   A22        2.16346  -0.00025  -0.00093  -0.00047  -0.00140   2.16207
   A23        1.95218   0.00030   0.00025   0.00085   0.00110   1.95328
   A24        2.02285  -0.00042  -0.00012  -0.00154  -0.00165   2.02119
   A25        1.84045  -0.00009  -0.00001  -0.00031  -0.00032   1.84012
   A26        1.92432  -0.00008  -0.00012  -0.00004  -0.00016   1.92416
   A27        1.92793  -0.00058   0.00027  -0.00286  -0.00260   1.92533
    D4       -3.12344   0.00010   0.00079   0.00343   0.00422  -3.11922
    D5        0.02585   0.00006   0.00075   0.00303   0.00378   0.02963
    D6       -1.02161  -0.00107  -0.00087  -0.00141  -0.00229  -1.02390
    D7       -2.11136  -0.00006   0.00034  -0.00077  -0.00042  -2.11178
    D8        2.01281  -0.00018   0.00006  -0.00108  -0.00102   2.01179
    D9        3.13364  -0.00007   0.00000  -0.00200  -0.00200   3.13164
   D10        0.99832   0.00041  -0.00040  -0.00212  -0.00253   0.99579
   D11        2.11877  -0.00001   0.00001   0.00042   0.00043   2.11920
   D12       -2.03263   0.00012   0.00001   0.00050   0.00050  -2.03213
   D13       -3.09772   0.00005   0.00033   0.00086   0.00119  -3.09652
   D14       -2.02733   0.00005   0.00014   0.00046   0.00060  -2.02673
   D15       -1.20242  -0.00045   0.00068  -0.00190  -0.00122  -1.20365
   D16       -1.92958  -0.00030  -0.00057   0.00050  -0.00007  -1.92966
   D17       -3.07754  -0.00005   0.00042  -0.00176  -0.00134  -3.07888
   D18       -2.07407  -0.00006   0.00006  -0.00013  -0.00007  -2.07414
   D19        3.07548  -0.00003   0.00004  -0.00008  -0.00004   3.07544
   D20        2.04534  -0.00005  -0.00008  -0.00039  -0.00047   2.04487
   D21        2.08362   0.00008  -0.00241  -0.02391  -0.02632   2.05730
   D22       -2.32884  -0.00055  -0.00048  -0.01151  -0.01199  -2.34083
   D23       -3.12599  -0.00011  -0.00080   0.00280   0.00200  -3.12398
   D24        3.11837   0.00014   0.00201   0.00394   0.00595   3.12433
   D25       -3.11788  -0.00016   0.00069   0.00352   0.00421  -3.11368
   D26        2.08832   0.00002  -0.00004   0.00094   0.00090   2.08922
   D27       -2.08741  -0.00005  -0.00003   0.00043   0.00041  -2.08700
         Item               Value     Threshold  Converged?
 Maximum Force            0.001217     0.000450     NO 
 RMS     Force            0.000361     0.000300     NO 
 Maximum Displacement     0.026319     0.001800     NO 
 RMS     Displacement     0.003786     0.001200     NO 
 Predicted change in Energy=-1.565291D-05
 GradGradGradGradGradGradGradGradGradGradGradGradGradGradGradGradGradGrad

 ---------------------------------------------------------------------------------------------------
                            Z-MATRIX (ANGSTROMS AND DEGREES)
   CD    Cent   Atom    N1       Length/X        N2       Alpha/Y        N3        Beta/Z          J
 ---------------------------------------------------------------------------------------------------
      1      1  C 
      2      2  C        1   1.507916(     1)
      3      3  C        1   1.331536(     2)      2  114.510(    27)
      4      4  H        1   1.083020(     3)      2  121.209(    28)      3 -178.718(    52)      0
      5      5  C        3   1.505962(     4)      1  114.225(    29)      2    1.698(    53)      0
      6      6  C        2   1.570877(     5)      1  107.339(    30)      3  -58.665(    54)      0
      7      7  H        2   1.086764(     6)      1  112.955(    31)      6 -120.996(    55)      0
      8      8  C        2   1.551748(     7)      1  108.113(    32)      6  115.267(    56)      0
      9      9  H        3   1.083693(     8)      1  123.779(    33)      5  179.430(    57)      0
     10     10  C        5   1.550495(     9)      3  108.262(    34)      1   57.055(    58)      0
     11     11  H        5   1.089998(    10)      3  112.307(    35)     10  121.421(    59)      0
     12     12  C        5   1.550130(    11)      3  107.986(    36)     10 -116.432(    60)      0
     13     13  H        8   1.091027(    12)      2  110.002(    37)      1 -177.418(    61)      0
     14     14  H        8   1.090438(    13)      2  108.210(    38)     13 -116.123(    62)      0
     15     15  N        6   1.543822(    14)      2  103.576(    39)      1  -68.964(    63)      0
     16     16  C        6   1.540311(    15)      2  111.884(    40)     15 -110.561(    64)      0
     17     17  H       10   1.088393(    16)      5  110.472(    41)      3 -176.407(    65)      0
     18     18  H       10   1.090844(    17)      5  110.258(    42)     17 -118.839(    66)      0
     19     19  H       12   1.091178(    18)      5  109.170(    43)      3  176.210(    67)      0
     20     20  H       12   1.090558(    19)      5  109.914(    44)     19  117.162(    68)      0
     21     21  O       15   1.191570(    20)      6  115.514(    45)      2  117.875(    69)      0
     22     22  O       16   1.201940(    21)      6  123.877(    46)      2 -134.120(    70)      0
     23     23  O       16   1.337077(    22)      6  111.915(    47)     22 -178.991(    71)      0
     24     24  C       23   1.444906(    23)     16  115.806(    48)      6  179.011(    72)      0
     25     25  H       24   1.085754(    24)     23  105.431(    49)     16 -178.401(    73)      0
     26     26  H       24   1.088510(    25)     23  110.246(    50)     25  119.703(    74)      0
     27     27  H       24   1.088510(    26)     23  110.313(    51)     25 -119.576(    75)      0
 ---------------------------------------------------------------------------------------------------
                         Z-Matrix orientation:                         
 ---------------------------------------------------------------------
 Center     Atomic      Atomic             Coordinates (Angstroms)
 Number     Number       Type             X           Y           Z
 ---------------------------------------------------------------------
      1          6           0        0.000000    0.000000    0.000000
      2          6           0        0.000000    0.000000    1.507916
      3          6           0        1.211548    0.000000   -0.552394
      4          1           0       -0.926058    0.020718   -0.561177
      5          6           0        2.343286   -0.040692    0.440297
      6          6           0        0.779792   -1.280783    1.976078
      7          1           0       -1.000684   -0.005912    1.931770
      8          6           0        0.811840    1.231301    1.990342
      9          1           0        1.386164    0.017727   -1.621780
     10          6           0        2.165046   -1.298640    1.329022
     11          1           0        3.318813   -0.066427   -0.045276
     12          6           0        2.223217    1.205451    1.354415
     13          1           0        0.870376    1.236171    3.079786
     14          1           0        0.268118    2.131800    1.703072
     15          7           0       -0.153201   -2.441781    1.569883
     16          6           0        0.833149   -1.391200    3.511499
     17          1           0        2.930276   -1.329902    2.102356
     18          1           0        2.265837   -2.203235    0.727783
     19          1           0        2.994794    1.160474    2.124685
     20          1           0        2.402984    2.110847    0.773675
     21          8           0        0.295722   -3.206566    0.774012
     22          8           0        1.829262   -1.655571    4.129988
     23          8           0       -0.363576   -1.179346    4.068941
     24          6           0       -0.414228   -1.285032    5.509087
     25          1           0       -1.452847   -1.113503    5.774998
     26          1           0       -0.091538   -2.275225    5.825699
     27          1           0        0.229178   -0.535212    5.965872
 ---------------------------------------------------------------------
                    Distance matrix (angstroms):
                    1          2          3          4          5
     1  C    0.000000
     2  C    1.507916   0.000000
     3  C    1.331536   2.390131   0.000000
     4  H    1.083020   2.266972   2.137725   0.000000
     5  C    2.384640   2.575356   1.505962   3.419844   0.000000
     6  C    2.480597   1.570877   2.867052   3.322874   2.518127
     7  H    2.175578   1.086764   3.326421   2.494206   3.661671
     8  C    2.477226   1.551748   2.853309   3.316029   2.523080
     9  H    2.133526   3.422976   1.083693   2.543867   2.274127
    10  C    2.853102   2.530986   2.476964   3.855967   1.550495
    11  H    3.319787   3.664879   2.168443   4.276994   1.089998
    12  C    2.868841   2.533647   2.472349   3.871824   1.550130
    13  H    3.430853   2.180928   3.851915   4.238055   3.281272
    14  H    2.741699   2.157439   3.243726   3.318064   3.258933
    15  N    2.906939   2.447367   3.511252   3.347032   3.643301
    16  C    3.867842   2.577580   4.312059   4.655643   3.679222
    17  H    3.843833   3.272386   3.430796   4.877488   2.183818
    18  H    3.243136   3.255283   2.757648   4.098241   2.182943
    19  H    3.850945   3.270458   3.419564   4.887329   2.168969
    20  H    3.290681   3.281633   2.762906   4.151264   2.178032
    21  O    3.311889   3.302746   3.588893   3.700113   3.785056
    22  O    4.810812   3.600330   5.004716   5.692869   4.060280
    23  O    4.251979   2.842867   5.022809   4.816070   4.668051
    24  C    5.672119   4.222826   6.405935   6.230173   5.902957
    25  H    6.058157   4.643129   6.955198   6.458412   6.634802
    26  H    6.254902   4.881421   6.895995   6.838126   6.318549
    27  H    5.994214   4.495814   6.613569   6.651767   5.936833
                    6          7          8          9         10
     6  C    0.000000
     7  H    2.190286   0.000000
     8  C    2.512329   2.195307   0.000000
     9  H    3.872776   4.280808   3.853574   0.000000
    10  C    1.529028   3.472217   2.944336   3.323660   0.000000
    11  H    3.465135   4.750834   3.480338   2.495512   2.176746
    12  C    2.941309   3.492030   1.548242   3.311961   2.504896
    13  H    2.749806   2.522216   1.091027   4.884195   3.341647
    14  H    3.461512   2.496392   1.090438   4.095604   3.937787
    15  N    1.543822   2.604351   3.820945   4.313413   2.595968
    16  C    1.540311   2.788818   3.031813   5.351771   2.558461
    17  H    2.154748   4.151444   3.325669   4.250832   1.088393
    18  H    2.148834   4.116791   3.937538   3.350663   1.090844
    19  H    3.299705   4.166715   2.188230   4.234331   2.714554
    20  H    3.947617   4.172147   2.187605   3.339652   3.462604
    21  O    2.321191   3.642150   4.630389   4.162325   2.728112
    22  O    2.425115   3.944886   3.734604   6.006588   2.843512
    23  O    2.386977   2.519990   3.393140   6.072798   3.730324
    24  C    3.729324   3.844122   4.496304   7.469127   4.911800
    25  H    4.409587   4.025123   4.995052   8.003249   5.734992
    26  H    4.070346   4.597717   5.274636   7.931341   5.125036
    27  H    4.096036   4.250494   4.389181   7.695247   5.082400
                   11         12         13         14         15
    11  H    0.000000
    12  C    2.185668   0.000000
    13  H    4.178232   2.192721   0.000000
    14  H    4.146766   2.191368   1.749345   0.000000
    15  N    4.506209   4.358450   4.105465   4.594877   0.000000
    16  C    4.536982   3.650739   2.662862   4.000149   2.417950
    17  H    2.521836   2.736305   3.432678   4.385190   3.320787
    18  H    2.504461   3.466068   4.394171   4.871817   2.572505
    19  H    2.513764   1.091178   2.330472   2.925062   4.816006
    20  H    2.499990   1.090558   2.903807   2.328491   5.281519
    21  O    4.435176   4.849537   5.038326   5.418678   1.191570
    22  O    4.709243   4.005553   3.222508   4.761436   3.332030
    23  O    5.632527   4.443805   2.887176   4.118259   2.807721
    24  C    6.802319   5.515426   3.729366   5.160047   4.113822
    25  H    7.598731   6.199399   4.264094   5.484004   4.597434
    26  H    7.139862   6.120913   4.560177   6.045434   4.259521
    27  H    6.774918   5.317108   3.446509   5.028512   4.806864
                   16         17         18         19         20
    16  C    0.000000
    17  H    2.527327   0.000000
    18  H    3.234358   1.758875   0.000000
    19  H    3.620360   2.491312   3.714466   0.000000
    20  H    4.714276   3.725880   4.316505   1.754616   0.000000
    21  O    3.328396   3.496747   2.211372   5.308517   5.719741
    22  O    1.201940   2.330146   3.473547   3.648262   5.077391
    23  O    1.337077   3.839216   4.373271   4.531395   5.416457
    24  C    2.357451   4.774257   5.557582   5.390372   6.472465
    25  H    3.228982   5.722490   6.363216   6.186863   7.090635
    26  H    2.644251   4.887563   5.617041   5.918359   7.140253
    27  H    2.668603   4.780608   5.862411   5.027793   6.219805
                   21         22         23         24         25
    21  O    0.000000
    22  O    4.002487   0.000000
    23  O    3.924393   2.244784   0.000000
    24  C    5.159192   2.659410   1.444906   0.000000
    25  H    5.696339   3.711083   2.025210   1.085754   0.000000
    26  H    5.151399   2.636073   2.088337   1.088510   1.790344
    27  H    5.839176   2.680661   2.089166   1.088510   1.788872
                   26         27
    26  H    0.000000
    27  H    1.774867   0.000000
 Symmetry turned off by external request.
 Stoichiometry    C10H13NO3
 Framework group  C1[X(C10H13NO3)]
 Deg. of freedom    75
 Full point group                 C1      NOp   1
 Rotational constants (GHZ):           1.1213402           0.6264987           0.5351241
 Standard basis: def2TZVP (5D, 7F)
 The following finite field(s) will be applied:
 An electric field of             -0.0020 -0.0014 -0.0044
   512 basis functions,   818 primitive gaussians,   582 cartesian basis functions
    52 alpha electrons       52 beta electrons
       nuclear repulsion energy       966.1967492791 Hartrees.
 NAtoms=   27 NActive=   27 NUniq=   27 SFac= 1.00D+00 NAtFMM=   60 NAOKFM=F Big=F
 Integral buffers will be    131072 words long.
 Raffenetti 2 integral format.
 Two-electron integral symmetry is turned off.
 One-electron integrals computed using PRISM.
   1 Symmetry operations used in ECPInt.
 ECPInt:  NShTT=   21321 NPrTT=   64608 LenC2=   20376 LenP2D=   46991.
 LDataN:  DoStor=T MaxTD1= 6 Len=  172
 NBasis=   512 RedAO= T EigKep=  1.05D-05  NBF=   512
 NBsUse=   512 1.00D-06 EigRej= -1.00D+00 NBFU=   512
 The nuclear repulsion energy is now       964.3333447902 hartrees.
 Initial guess from the checkpoint file:  "checkpoint.chk"
 B after Tr=    -0.002164    0.012399    0.005219
         Rot=    0.999996   -0.000408   -0.001321    0.002422 Ang=  -0.32 deg.
 ExpMin= 9.52D-02 ExpMax= 2.70D+04 ExpMxC= 9.22D+02 IAcc=2 IRadAn=         4 AccDes= 0.00D+00
 Harris functional with IExCor=  402 and IRadAn=       4 diagonalized for initial guess.
 HarFok:  IExCor=  402 AccDes= 0.00D+00 IRadAn=         4 IDoV= 1 UseB2=F ITyADJ=14
 ICtDFT=  3500011 ScaDFX=  1.000000  1.000000  1.000000  1.000000
 FoFCou: FMM=F IPFlag=           0 FMFlag=      100000 FMFlg1=           0
         NFxFlg=           0 DoJE=T BraDBF=F KetDBF=T FulRan=T
         wScrn=  0.000000 ICntrl=       500 IOpCl=  0 I1Cent=   200000004 NGrid=           0
         NMat0=    1 NMatS0=      1 NMatT0=    0 NMatD0=    1 NMtDS0=    0 NMtDT0=    0
 Symmetry not used in FoFCou.
 Requested convergence on RMS density matrix=1.00D-08 within 128 cycles.
 Requested convergence on MAX density matrix=1.00D-06.
 Requested convergence on             energy=1.00D-06.
 No special actions if energy rises.
 Integral accuracy reduced to 1.0D-05 until final iterations.
 Initial convergence to 1.0D-05 achieved.  Increase integral accuracy.
 SCF Done:  E(RB3LYP) =  -669.474701677     A.U. after   12 cycles
            NFock= 12  Conv=0.77D-08     -V/T= 2.0048
   1 Symmetry operations used in ECPInt.
 ECPInt:  NShTT=   21321 NPrTT=   64608 LenC2=   20376 LenP2D=   46991.
 LDataN:  DoStor=T MaxTD1= 7 Len=  274
 Calling FoFJK, ICntrl=      2127 FMM=F ISym2X=0 I1Cent= 0 IOpClX= 0 NMat=1 NMatS=1 NMatT=0.
 -------------------------------------------------------------------
 Center     Atomic                   Forces (Hartrees/Bohr)
 Number     Number              X              Y              Z
 -------------------------------------------------------------------
      1        6          -0.000536405    0.002687357    0.000113371
      2        6           0.000299026   -0.001489638   -0.000132544
      3        6           0.000030812   -0.000897125    0.000001544
      4        1           0.000002114   -0.000025566    0.000022827
      5        6          -0.000033124   -0.000001599    0.000073392
      6        6          -0.000351002   -0.000781734    0.000081875
      7        1          -0.000013580    0.000037836   -0.000003772
      8        6           0.000087870    0.000007481   -0.000035606
      9        1          -0.000011869   -0.000043030    0.000017807
     10        6           0.000167867    0.000127772    0.000046820
     11        1          -0.000000015   -0.000008337    0.000015207
     12        6          -0.000049595    0.000072025   -0.000008705
     13        1          -0.000018107    0.000013758   -0.000002919
     14        1           0.000038820    0.000026405   -0.000007944
     15        7           0.000825990    0.001007642    0.000377777
     16        6          -0.000316409    0.000321620    0.000010031
     17        1           0.000000042    0.000006250    0.000065899
     18        1          -0.000023916    0.000180613    0.000031153
     19        1           0.000004743   -0.000012853    0.000017672
     20        1          -0.000005326    0.000019528    0.000012261
     21        8          -0.000447984   -0.001152285   -0.000544411
     22        8           0.000290247   -0.000142167   -0.000068635
     23        8           0.000144020    0.000171596   -0.000271538
     24        6          -0.000137882   -0.000259618    0.000287554
     25        1           0.000029185    0.000080152   -0.000008669
     26        1          -0.000016541    0.000045019   -0.000017349
     27        1           0.000041018    0.000008900   -0.000073101
[...]
 2430,0.00007777,0.00006603,-0.00062671,0.00003549,0.00160300,-0.000387
 94,-0.00020897,-0.00015872,-0.00015616,0.00025724,-0.00001966,-0.00029
 272,-0.00001832,0.00044361,-0.00025040,-0.00033318,-0.00116463,0.00116
 203,0.00049186,-0.00080935,0.00121064,0.03483694,0.24645312,0.00002679
 ,0.00027840,-0.00018112,0.00058869,-0.00066512,-0.00079276,0.00057477,
 -0.00071553,0.00162361,-0.00002505,-0.00003822,0.00004414,-0.00407864,
 -0.01789737,0.01034254,0.00032436,-0.00009014,-0.00021633,0.00010437,0
 .00031088,0.00015083,0.00200841,0.00880370,-0.00698543,0.00008705,0.00
 002789,0.00004583,-0.00015271,-0.00329981,-0.00228684,-0.00002380,0.00
 102003,0.00091766,0.02036949,0.11858963,-0.12518301,0.00191527,0.00007
 188,-0.00034324,-0.00006861,-0.00027409,0.00163962,-0.00014264,-0.0001
 9765,-0.00019534,-0.00017182,-0.00015070,-0.00009637,0.00020813,-0.000
 07273,0.00004507,0.00006069,-0.00100336,0.00090932,0.00360649,0.020131
 39,-0.01238015,-0.02519819,-0.12520869,0.13266412,-0.00061909,-0.00012
 807,-0.00001149,-0.00083821,-0.00466343,-0.00083713,0.00037677,-0.0002
 2426,-0.00011806,0.00000929,0.00026901,-0.00022885,0.00181175,-0.00138
 411,-0.00196860,0.03668189,-0.00249862,-0.01351543,-0.00003176,-0.0004
 6435,-0.00003702,-0.00007850,-0.00097023,0.00014112,0.00007089,0.00003
 232,-0.00006001,-0.00312995,0.00309306,0.00210381,0.00011209,0.0006122
 4,-0.00049525,-0.00002566,-0.00068389,0.00054421,-0.00001176,-0.000063
 37,-0.00008410,-0.00005629,-0.00002488,-0.00004721,-0.20223529,0.16322
 459,0.20818550,-0.00323866,-0.00168471,-0.00663296,0.00114421,-0.00124
 256,-0.00094820,-0.00178893,-0.00659762,-0.00475655,0.00003332,0.00004
 024,0.00005804,0.00014556,-0.00027046,-0.00010851,0.16796604,0.0010719
 2,-0.00087206,-0.00140274,-0.00573941,0.00080669,-0.00202177,-0.000752
 89,0.00035599,0.00048672,0.00010314,-0.00021603,0.00088602,-0.00043617
 ,0.00091250,0.00049188,-0.00327000,-0.06200632,-0.05922662,0.00061236,
 -0.00042908,-0.00010421,0.00242940,-0.00208397,0.00132950,-0.00008542,
 -0.00015632,0.00027044,0.00566692,-0.00138247,-0.00289951,-0.00013587,
 -0.00035430,0.00036265,0.00065096,0.00028376,-0.00037228,0.00020937,0.
 00061492,0.00039293,-0.00076093,-0.00125911,-0.00001283,0.15346539,-0.
 31442663,-0.29909556,-0.00525017,-0.01224916,0.01970385,0.00093441,0.0
 0012045,-0.00072689,-0.00196842,-0.00075191,0.00165847,-0.00000615,0.0
 0014413,0.00004232,-0.00006491,-0.00007712,0.00019975,-0.14639237,0.38
 691951,0.00208518,0.00207108,-0.00116537,-0.00869664,0.00429602,-0.006
 57143,-0.00159450,0.00125500,0.00091092,0.00019368,-0.00083898,0.00078
 627,0.00042248,-0.00028632,0.00041301,-0.01538166,-0.05587122,-0.02948
 181,0.00024263,0.00071081,0.00016096,0.00322996,-0.00160876,0.00230024
 ,-0.00020704,-0.00031084,0.00039725,0.00543949,-0.00101992,-0.00458647
 ,-0.00017835,-0.00009330,0.00034774,0.00049590,-0.00012565,-0.00035350
 ,0.00011372,0.00038728,0.00022685,-0.00098897,-0.00141337,-0.00019169,
 0.20501117,-0.30143025,-0.31758600,-0.00436125,-0.00641681,0.01437088,
 -0.00082293,0.00152963,0.00099522,-0.00155371,0.00342316,0.00142336,-0
 .00012572,0.00010336,0.00002095,-0.00029533,0.00004402,0.00014360,-0.1
 8315556,0.35112121,0.34477111,0.00064015,0.00094490,0.00036616,0.00057
 061,-0.00157499,-0.00060418,-0.00051807,-0.00055706,-0.00046462,0.0000
 8133,0.00005221,-0.00022194,0.00140694,0.00082134,0.00055195,-0.011341
 21,0.00573285,-0.02202350,0.00086866,-0.00031401,0.00057646,-0.0004521
 2,-0.00041581,-0.00048347,0.00033830,-0.00014931,0.00010682,-0.0043174
 7,-0.00110001,0.00239920,0.00009118,0.00012157,-0.00018873,-0.00040817
 ,-0.00010375,-0.00041811,-0.00071913,-0.00000275,0.00017382,0.00029154
 ,0.00018584,0.00030484,0.00193073,0.00756947,0.00313810,-0.49763402,0.
 14212979,-0.26117411,0.00352986,0.00007859,0.00131913,0.00058771,-0.00
 038359,0.00029198,0.00057771,0.00036208,0.00009527,0.00030223,-0.00015
 548,0.00008356,0.00255447,-0.00409248,-0.00271818,0.60430239,-0.000849
 89,0.00052230,-0.00019890,0.00007722,-0.00164373,-0.00275905,0.0000900
 7,0.00000897,0.00000034,0.00006053,0.00006980,-0.00016127,-0.00040880,
 0.00008229,-0.00014929,0.01163060,0.02067868,0.01306088,-0.00023919,0.
 00011320,-0.00006404,0.00021763,-0.00042602,-0.00043828,-0.00004148,-0
 .00004949,0.00001267,0.00133992,0.00086863,-0.00024588,-0.00002042,-0.
 00003566,0.00007409,0.00010192,-0.00006380,-0.00012911,-0.00002334,0.0
 0000619,0.00027887,-0.00000723,-0.00001297,0.00007627,-0.00238725,-0.0
 0682249,-0.00059450,0.14307935,-0.12323522,0.09132433,-0.00034941,-0.0
 0096674,0.00003106,0.00037368,0.00005441,0.00046974,0.00014220,0.00006
 721,-0.00000847,-0.00000029,0.00001327,0.00011214,-0.00076035,0.005104
 55,0.00382588,-0.18713962,0.09170877,-0.00053738,0.00242795,-0.0002443
 6,0.00109889,-0.00236565,-0.00508375,-0.00068737,0.00044648,-0.0007244
 6,-0.00004143,-0.00002705,-0.00056728,-0.00061539,-0.00081502,0.000077
 13,-0.03963627,0.00990934,-0.03072265,-0.00025426,0.00024467,-0.000168
 22,-0.00066542,-0.00080141,-0.00092686,0.00006700,-0.00018201,-0.00010
 876,-0.00216289,0.00180915,-0.00109761,0.00018538,0.00023952,-0.000197
 66,0.00001748,-0.00019294,-0.00024228,-0.00012285,0.00030633,0.0004221
 5,0.00025429,0.00042941,0.00032105,0.00444818,0.01327239,0.00484451,-0
 .25823635,0.09002015,-0.27972140,-0.00051225,0.00050296,-0.00356826,-0
 .00005162,0.00004213,-0.00026345,0.00033440,0.00018990,0.00003370,0.00
 008201,0.00015007,0.00006964,0.00181252,-0.00749638,-0.00523803,0.2925
 2085,-0.10699293,0.28930851,0.00088917,-0.00039626,0.00004241,-0.00285
 952,0.00142488,-0.00077882,-0.00020321,-0.00034822,-0.00028876,0.00008
 002,0.00004336,0.00017883,0.00027108,0.00051659,0.00012877,-0.00165125
 ,0.00453432,0.01513059,0.00151405,-0.00032400,0.00008322,0.00036284,-0
 .00023907,-0.00002932,0.00017640,0.00006239,0.00008173,0.00113985,-0.0
 0008300,0.00064089,-0.00003169,-0.00024414,0.00008160,-0.00025314,0.00
 008075,-0.00006339,-0.00065702,-0.00034449,0.00011336,-0.00003082,-0.0
 0027889,0.00001832,-0.00511868,-0.00639746,-0.00497622,-0.21547906,0.0
 3863187,0.05120312,0.00129466,0.00043328,-0.00138640,-0.00008448,-0.00
 016204,0.00027796,0.00023736,0.00020250,0.00000424,0.00018364,-0.00019
 727,0.00005357,0.00093897,0.00363631,0.00295338,-0.10390730,0.03713783
 ,0.00051974,0.39807739,-0.00097344,0.00070217,-0.00027131,0.00158729,-
 0.00135248,-0.00048771,-0.00000431,0.00012504,0.00022458,0.00003705,-0
 .00001496,-0.00008660,-0.00007782,-0.00017646,-0.00001510,0.00065939,0
 .00786545,-0.00037294,-0.00104679,-0.00045715,0.00078176,-0.00075928,-
 0.00073466,-0.00095537,-0.00009243,-0.00008801,0.00001847,-0.00032034,
 0.00086630,0.00051855,-0.00003159,0.00015338,0.00000847,0.00047548,-0.
 00015896,0.00043570,0.00059606,-0.00001070,0.00137989,0.00002920,0.000
 08823,0.00031366,-0.00117114,-0.00065060,-0.00130620,0.03584334,-0.074
 31230,-0.00591286,-0.00039779,0.00001879,0.00063890,-0.00024209,0.0000
 4884,0.00006162,-0.00011019,-0.00004802,0.00000602,-0.00020765,0.00005
 846,0.00008448,0.00071795,0.00059534,0.00069009,0.03864655,0.01888719,
 0.00024564,-0.08191385,0.10431722,0.00047547,0.00084696,0.00053117,0.0
 0134387,-0.00071887,-0.00173016,0.00021327,0.00018561,-0.00019115,-0.0
 0012874,-0.00008845,-0.00030011,0.00116385,-0.00072549,-0.00039989,0.0
 3417211,-0.00728291,-0.02767473,0.00091262,0.00070220,-0.00223283,-0.0
 0054102,-0.00017609,-0.00079396,0.00007422,-0.00019203,-0.00020958,-0.
 00422889,-0.00069488,-0.00627383,0.00019626,0.00072022,-0.00046812,-0.
 00003938,-0.00022790,-0.00005398,0.00030603,0.00023428,-0.00002755,0.0
 0011254,0.00048414,0.00006056,0.00366002,0.00522299,0.00034384,0.06997
 526,-0.01099213,-0.15429499,-0.00034667,0.00016706,0.00081432,0.001405
 72,0.00008272,-0.00110458,0.00006565,-0.00008956,0.00003518,-0.0000264
 9,0.00025756,-0.00005175,0.00075288,-0.00424802,-0.00245409,-0.0021838
 5,0.00035053,0.02992049,-0.08581972,-0.00989883,0.42828595,0.00013658,
 0.00006959,0.00004337,-0.00023871,0.00011422,-0.00066602,-0.00000848,0
 .00001164,-0.00015214,-0.00000982,0.00000339,-0.00006241,-0.00020705,0
 .00007079,0.00006957,-0.00393084,0.00251248,0.00157518,0.00042696,-0.0
 0028900,0.00007787,0.00008148,-0.00007641,0.00016047,0.00002985,0.0000
 0163,-0.00003325,0.00037577,0.00011460,0.00083867,0.00001490,-0.000068
 63,0.00001961,0.00000160,0.00005674,0.00003699,-0.00001482,-0.00017851
 ,-0.00003771,-0.00001824,0.00002607,-0.00013117,-0.00029268,-0.0001501
 8,0.00009213,-0.00747040,-0.00140814,0.04459137,-0.00004355,-0.0000250
 1,0.00006027,-0.00016912,-0.00002674,0.00010713,-0.00002958,-0.0000164
 2,0.00001696,0.00002537,0.00000592,-0.00004538,0.00021038,0.00005133,-
 0.00013540,0.00156041,-0.00254517,0.00222532,-0.08194793,0.00698345,-0
 .02319029,0.62326330,-0.00024874,-0.00003201,-0.00002141,-0.00026406,0
 .00011343,-0.00034730,0.00006207,-0.00003711,0.00005663,-0.00000510,0.
 00001948,-0.00003764,0.00015367,0.00000577,-0.00009689,0.00335325,0.00
 418404,0.00096198,-0.00024243,0.00011141,0.00000095,0.00011751,0.00002
 688,0.00021624,-0.00001709,0.00000981,-0.00000798,-0.00027336,0.000213
 85,-0.00052174,0.00000711,0.00004424,-0.00004493,-0.00001525,-0.000042
 46,0.00000242,-0.00004922,-0.00009306,0.00001556,-0.00003502,-0.000026
 25,-0.00008192,-0.00015346,-0.00024516,0.00073454,-0.00104748,0.002890
 95,-0.00958637,-0.00005224,0.00005311,0.00011330,0.00010073,0.00005120
 ,-0.00004354,-0.00002998,-0.00000828,0.00001778,0.00000470,0.00000639,
 -0.00002272,0.00010210,0.00042530,-0.00004706,-0.00024483,-0.00613256,
 -0.00090544,0.00438240,-0.06820367,0.01628996,-0.00958273,0.59093897,-
 0.00043491,-0.00032769,-0.00025401,0.00012145,0.00026516,-0.00011106,-
 0.00002015,-0.00011394,0.00027752,0.00006298,0.00003728,0.00013816,0.0
 0009742,0.00013031,-0.00000411,0.00084468,0.00104713,0.00390902,-0.000
 54635,0.00022973,-0.00038763,-0.00002790,-0.00006079,-0.00010126,-0.00
 007043,0.00006592,0.00013481,-0.00013854,-0.00009637,0.00055725,-0.000
 11717,-0.00008044,0.00012193,0.00012990,-0.00006958,0.00007246,0.00028
 416,0.00045058,0.00037344,-0.00001175,-0.00018775,0.00020166,-0.000058
 85,-0.00228372,-0.00052836,0.03873453,-0.00667735,-0.03938602,0.000211
 88,0.00002521,-0.00025264,-0.00002229,0.00006903,0.00017006,-0.0000357
 3,0.00008882,-0.00002663,-0.00008197,-0.00010086,0.00012003,-0.0008665
 5,0.00155416,0.00093526,-0.01746380,0.00430923,-0.00132580,0.00207469,
 0.00946994,-0.17323824,0.00095269,0.01681132,0.41474231,-0.00000128,-0
 .00003290,-0.00001152,-0.00002004,0.00003572,0.00002144,-0.00000642,-0
 .00001361,0.00001063,0.00000577,0.00000401,0.00001407,0.00001630,0.000
 02803,0.00000073,0.00013236,0.00007412,-0.00000491,-0.00002377,0.00001
 540,0.00001325,0.00002585,-0.00000401,0.00000054,0.00000077,0.00000573
 ,0.00001063,0.00001821,-0.00001395,0.00002557,-0.00000484,-0.00001193,
 0.00000771,-0.00001013,-0.00000485,-0.00001739,-0.00003429,0.00004193,
 -0.00000525,-0.00000033,-0.00002519,0.00003113,-0.00003228,-0.00021131
 ,-0.00006626,0.00018900,0.00017756,-0.00185162,0.00005038,-0.00000040,
 -0.00001872,-0.00000227,-0.00000551,0.00001743,0.00001129,0.00000998,-
 0.00000445,0.00000258,-0.00001100,0.00000880,-0.00004464,0.00015150,0.
 00009638,0.00049463,-0.00010938,0.00156216,0.00250554,-0.00078262,0.00
 111402,-0.29784168,0.06295213,0.06304365,0.31465194,0.00001463,-0.0000
 0267,0.00000288,-0.00004248,0.00001424,-0.00005180,0.00000320,-0.00000
 061,-0.00001047,-0.00000220,0.00000524,-0.00000394,-0.00000611,0.00000
 198,-0.00000259,-0.00009225,0.00019610,0.00007874,0.00002943,0.0000204
 9,0.00002483,0.00001848,-0.00000595,0.00001006,0.00000216,0.00000137,-
 0.00000375,0.00001774,-0.00001458,-0.00000056,0.00000133,-0.00000505,-
 0.00000212,-0.00001167,-0.00000445,-0.00000816,-0.00004067,0.00001462,
 -0.00001664,-0.00000303,-0.00001348,0.00001733,0.00002374,0.00001801,0
 .00010838,0.00046008,-0.00005615,0.00112236,-0.00001921,-0.00000678,0.
 00000021,0.00000208,0.00000659,-0.00000026,0.00000411,-0.00000068,-0.0
 0000184,0.00000272,0.00000063,-0.00000136,-0.00001456,-0.00000172,-0.0
 0003830,-0.00003689,0.00071040,-0.00061793,-0.00447402,0.00114991,0.00
 214466,0.06429649,-0.06931268,-0.01726241,-0.06887529,0.06475008,-0.00
 004007,0.00004210,0.00002420,0.00017262,-0.00010145,0.00011212,0.00002
 288,0.00000266,0.00002215,-0.00000575,-0.00000639,-0.00002393,0.000088
 79,-0.00004337,-0.00003684,0.00138974,-0.00045385,-0.00041874,-0.00003
 639,0.00003486,-0.00003978,-0.00005932,0.00002137,-0.00001523,-0.00000
 372,-0.00001153,-0.00000659,-0.00022095,-0.00003724,-0.00042010,0.0000
 0658,0.00004750,-0.00002974,-0.00001099,-0.00001901,-0.00001064,0.0000
 1088,-0.00001484,-0.00000471,0.00001397,0.00003895,-0.00000744,0.00014
 978,0.00045889,0.00013801,-0.00508227,0.00200833,-0.00631578,-0.000007
 89,0.00001960,0.00001946,0.00008687,0.00001270,-0.00007009,0.00000030,
 -0.00000582,0.00000102,-0.00000310,0.00001339,0.00000152,0.00003734,-0
 .00029584,-0.00013178,0.00051164,-0.00032768,0.00250477,0.03961295,-0.
 00871486,-0.02541933,0.05038678,-0.01361414,-0.05725149,-0.06846774,0.
 01620302,0.07797691,0.00001100,0.00002177,-0.00001058,-0.00008539,0.00
 001219,-0.00007572,-0.00000128,0.00000969,-0.00001349,-0.00000462,0.00
 000468,-0.00000411,-0.00001395,-0.00001108,0.00000243,0.00007751,0.000
 37234,-0.00004649,0.00000081,0.00001925,0.00001639,0.00000882,-0.00001
 436,-0.00002699,0.00000019,-0.00000231,-0.00000489,-0.00000262,-0.0000
 0540,-0.00002302,0.00000100,0.00000238,0.00000039,0.00001002,0.0000016
 5,0.00000685,-0.00000630,0.00000338,-0.00001627,-0.00000493,-0.0000046
 5,0.00000637,0.00005294,0.00001976,0.00019797,0.00251151,-0.00187507,0
 .00198299,-0.00004556,-0.00001417,0.00004266,0.00000715,0.00001094,-0.
 00000418,-0.00000133,-0.00000725,-0.00000322,-0.00000325,0.00000432,-0
 .00000278,-0.00001102,0.00004034,-0.00006515,-0.00051819,0.00036712,-0
 .00126513,0.00005623,-0.00289509,0.00036677,-0.06363265,0.05728224,-0.
 01465127,-0.00371496,0.02804672,-0.00750904,0.05990499,-0.00001931,0.0
 0000809,-0.00001216,0.00008558,0.00000993,0.00006323,0.00000169,0.0000
 0754,0.00002165,0.00000235,-0.00000680,0.00001043,-0.00001230,-0.00001
 292,0.00000217,-0.00036518,-0.00042019,-0.00017357,-0.00004613,0.00000
 753,-0.00003486,-0.00003156,0.00001792,-0.00007521,-0.00000671,-0.0000
 0200,0.00000615,0.00000993,0.00002203,0.00004190,-0.00000508,0.0000048
 1,0.00000745,0.00001798,0.00000287,0.00000799,0.00003668,0.00002327,0.
 00000256,0.00000559,0.00000784,0.00000962,0.00006335,0.00015798,0.0000
 2744,0.00326117,0.00007682,-0.00021566,-0.00000992,-0.00000940,-0.0000
 0906,-0.00001700,0.00000042,0.00001039,0.00000144,-0.00000091,-0.00000
 483,-0.00000887,0.00000044,0.00000960,0.00000580,-0.00011687,-0.000047
 02,-0.00081132,0.00057995,-0.00158506,-0.00174778,0.00493943,0.0059332
 7,0.05455890,-0.29298748,0.06185789,0.00027964,-0.00419829,0.00012504,
 -0.06080246,0.30965919,0.00011821,0.00004738,0.00006650,0.00001317,-0.
 00004761,0.00012141,-0.00000117,0.00000889,-0.00006455,-0.00000980,-0.
 00000428,-0.00002300,-0.00001247,-0.00001049,0.00000483,-0.00052847,-0
 .00093473,-0.00071055,0.00017696,-0.00007639,0.00008123,-0.00002396,-0
 .00001371,-0.00004676,0.00001854,-0.00000882,-0.00001858,-0.00008702,-
 0.00007915,-0.00004837,0.00001335,0.00000967,-0.00001191,-0.00001701,0
 .00001406,-0.00000580,-0.00003427,-0.00006605,-0.00004884,0.00000867,0
 .00003566,-0.00001980,0.00030761,0.00057162,0.00023391,-0.00771806,0.0
 0333418,0.00178952,0.00001505,-0.00000237,0.00002061,0.00003441,-0.000
 01055,-0.00003320,0.00001449,-0.00000537,0.00000136,0.00001406,0.00000
 973,-0.00001175,0.00008533,-0.00049318,-0.00033635,0.00267970,-0.00077
 908,0.00115795,-0.00247105,0.03419728,-0.02870528,-0.01192653,0.053528
 24,-0.06164123,0.00014850,-0.00763565,0.00387628,0.01569706,-0.0701039
 8,0.07844359,0.00005052,0.00000300,0.00000777,-0.00002102,0.00002424,0
 .00012650,0.00000140,0.00001419,0.00000323,-0.00000352,-0.00000869,0.0
 0001566,-0.00001849,-0.00001609,-0.00000108,-0.00020802,-0.00071518,-0
 .00022855,0.00000426,-0.00002418,0.00000275,-0.00002087,0.00004189,-0.
 00004486,-0.00000178,-0.00000478,-0.00000309,0.00003907,0.00000383,0.0
 0001873,-0.00000008,0.00000622,0.00000437,0.00002716,0.00001213,0.0000
 1649,0.00005196,-0.00001454,-0.00002220,-0.00000098,0.00001331,-0.0000
 1664,-0.00005550,0.00012105,-0.00005749,0.00169412,0.00059446,0.002037
 77,-0.00001868,-0.00000736,0.00000091,-0.00001239,-0.00000180,-0.00000
 277,-0.00001052,-0.00000635,0.00000216,-0.00000692,0.00000528,-0.00000
 232,0.00005410,-0.00006818,-0.00000356,-0.00031317,0.00026374,-0.00033
 962,0.00449691,0.00545066,0.00019449,-0.17027105,-0.11625692,-0.072010
 37,-0.01636767,-0.01930453,-0.01104390,0.00540387,0.00555352,0.0034847
 1,0.17550729,0.00002865,-0.00004038,0.00000139,0.00000803,0.00004286,0
 .00008527,-0.00000011,-0.00001318,0.00000420,0.00000144,0.00000066,0.0
 0000984,0.00001739,0.00001866,-0.00000577,0.00014483,-0.00030719,0.000
 09529,0.00001204,-0.00000144,0.00001182,0.00004527,0.00005479,0.000085
 56,0.00000193,0.00000474,0.00000252,0.00002378,-0.00001175,-0.00000381
 ,0.00000050,-0.00001053,-0.00000176,-0.00003676,0.00000406,-0.00003222
 ,-0.00004614,0.00001642,-0.00005606,0.00000004,-0.00001085,-0.00000937
 ,-0.00006262,-0.00015390,-0.00011467,-0.00220325,0.00129099,-0.0010141
 6,0.00003270,0.00001014,-0.00003644,-0.00000365,-0.00000808,0.00000548
 ,0.00000295,0.00000611,0.00000153,0.00001170,-0.00000509,-0.00000229,-
 0.00002947,0.00009991,0.00009026,0.00043672,-0.00008711,0.00174573,0.0
 0606401,0.00639222,0.00171299,-0.11451028,-0.16197413,-0.06915082,0.00
 632620,0.00673343,0.00461760,-0.02058695,-0.01777119,-0.01148529,0.124
 32107,0.16571980,0.00002044,0.00008059,0.00002829,-0.00004684,-0.00011
 286,0.00001144,0.00000759,0.00001743,-0.00002655,-0.00000284,-0.000006
 33,-0.00001981,0.00002645,-0.00002993,-0.00000710,0.00041779,0.0007904
 4,0.00011033,0.00008093,-0.00007786,0.00004733,-0.00004504,-0.00007382
 ,-0.00022922,0.00000960,-0.00001427,-0.00001104,-0.00014533,0.00000877
 ,-0.00014331,0.00000980,0.00003939,-0.00001604,0.00003072,0.00000337,0
 .00001223,0.00000314,0.00002150,-0.00001041,0.00001417,0.00003556,0.00
 003063,-0.00005067,0.00015421,0.00007787,-0.00870039,0.00124033,0.0010
 6806,0.00000677,-0.00000148,0.00004425,0.00004041,0.00000396,-0.000030
 23,0.00002310,-0.00000055,-0.00000632,-0.00000032,0.00001317,0.0000065
 6,0.00015072,-0.00010409,-0.00010712,0.00282501,-0.00107753,0.00154093
 ,-0.01738569,-0.02105328,-0.03436736,-0.06487407,-0.06336985,-0.087245
 42,0.00432120,0.00594532,0.00552578,0.00540245,0.00412463,0.00592877,0
 .07786090,0.07344319,0.10778748\\0.00058556,-0.00278914,-0.00000075,-0
 .00058171,0.00173831,-0.00000637,-0.00000179,0.00104891,0.00000123,-0.
 00000047,0.00000372,0.00000011,-0.00000058,-0.00000440,-0.00000047,0.0
 0002303,0.00004482,0.00002765,-0.00000115,0.00000108,0.00000053,0.0000
 0294,0.00000133,-0.00000092,0.00000015,-0.00000384,-0.00000024,-0.0000
 1041,-0.00000236,0.00000534,-0.00000030,-0.00000136,0.00000081,0.00000
 277,0.00000136,-0.00000019,-0.00000162,-0.00000039,-0.00000045,-0.0000
 0067,0.00000057,0.00000089,-0.00000733,-0.00005202,-0.00002309,0.00000
 630,-0.00001440,-0.00002105,0.00000278,-0.00000157,0.00000020,0.000000
 38,-0.00000274,0.00000011,-0.00000156,-0.00000059,0.00000118,-0.000000
 62,0.00000027,0.00000032,-0.00000997,0.00002687,0.00001708,0.00000786,
 0.00000098,-0.00000239,-0.00001467,0.00000030,0.00000917,0.00000135,-0
 .00000199,-0.00001413,0.00000018,0.00000432,0.00000124,0.00000325,0.00
 000051,-0.00000074,-0.00000370,0.00000144,0.00000494\\\@


 THE MOST INCOMPREHENSIBLE THING ABOUT THE WORLD
 IS THAT IT IS COMPREHENSIBLE. -- A. EINSTEIN
 Job cpu time:       0 days  8 hours 35 minutes 33.4 seconds.
 Elapsed time:       0 days  0 hours 42 minutes 58.7 seconds.
 File lengths (MBytes):  RWF=    555 Int=      0 D2E=      0 Chk=     48 Scr=      1
 Normal termination of Gaussian 16 at Fri Jun 10 08:14:28 2022.
