 Entering Gaussian System, Link 0=g16
 Input=int_zmat_field_N75.gjf
 Output=int_zmat_field_N75.out
 Initial command:
 /software/gaussian/g16-a03/l1.exe "/local_scratch/11171891/Gau-30750.inp" -scrdir="/local_scratch/11171891/"
 Entering Link 1 = /software/gaussian/g16-a03/l1.exe PID=     30751.
  
 Copyright (c) 1988,1990,1992,1993,1995,1998,2003,2009,2016,
            Gaussian, Inc.  All Rights Reserved.
  
 This is part of the Gaussian(R) 16 program.  It is based on
 the Gaussian(R) 09 system (copyright 2009, Gaussian, Inc.),
 the Gaussian(R) 03 system (copyright 2003, Gaussian, Inc.),
 the Gaussian(R) 98 system (copyright 1998, Gaussian, Inc.),
 the Gaussian(R) 94 system (copyright 1995, Gaussian, Inc.),
 the Gaussian 92(TM) system (copyright 1992, Gaussian, Inc.),
 the Gaussian 90(TM) system (copyright 1990, Gaussian, Inc.),
 the Gaussian 88(TM) system (copyright 1988, Gaussian, Inc.),
 the Gaussian 86(TM) system (copyright 1986, Carnegie Mellon
 University), and the Gaussian 82(TM) system (copyright 1983,
 Carnegie Mellon University). Gaussian is a federally registered
 trademark of Gaussian, Inc.
  
 This software contains proprietary and confidential information,
 including trade secrets, belonging to Gaussian, Inc.
  
 This software is provided under written license and may be
 used, copied, transmitted, or stored only in accord with that
 written license.
  
 The following legend is applicable only to US Government
 contracts under FAR:
  
                    RESTRICTED RIGHTS LEGEND
  
 Use, reproduction and disclosure by the US Government is
 subject to restrictions as set forth in subparagraphs (a)
 and (c) of the Commercial Computer Software - Restricted
 Rights clause in FAR 52.227-19.
  
 Gaussian, Inc.
 340 Quinnipiac St., Bldg. 40, Wallingford CT 06492
  
  
 ---------------------------------------------------------------
 Warning -- This program may not be used in any manner that
 competes with the business of Gaussian, Inc. or will provide
 assistance to any competitor of Gaussian, Inc.  The licensee
 of this program is prohibited from giving any competitor of
 Gaussian, Inc. access to this program.  By using this program,
 the user acknowledges that Gaussian, Inc. is engaged in the
 business of creating and licensing software in the field of
 computational chemistry and represents and warrants to the
 licensee that it is not a competitor of Gaussian, Inc. and that
 it will not use this program in any manner prohibited above.
 ---------------------------------------------------------------
  

 Cite this work as:
 Gaussian 16, Revision A.03,
 M. J. Frisch, G. W. Trucks, H. B. Schlegel, G. E. Scuseria, 
 M. A. Robb, J. R. Cheeseman, G. Scalmani, V. Barone, 
 G. A. Petersson, H. Nakatsuji, X. Li, M. Caricato, A. V. Marenich, 
 J. Bloino, B. G. Janesko, R. Gomperts, B. Mennucci, H. P. Hratchian, 
 J. V. Ortiz, A. F. Izmaylov, J. L. Sonnenberg, D. Williams-Young, 
 F. Ding, F. Lipparini, F. Egidi, J. Goings, B. Peng, A. Petrone, 
 T. Henderson, D. Ranasinghe, V. G. Zakrzewski, J. Gao, N. Rega, 
 G. Zheng, W. Liang, M. Hada, M. Ehara, K. Toyota, R. Fukuda, 
 J. Hasegawa, M. Ishida, T. Nakajima, Y. Honda, O. Kitao, H. Nakai, 
 T. Vreven, K. Throssell, J. A. Montgomery, Jr., J. E. Peralta, 
 F. Ogliaro, M. J. Bearpark, J. J. Heyd, E. N. Brothers, K. N. Kudin, 
 V. N. Staroverov, T. A. Keith, R. Kobayashi, J. Normand, 
 K. Raghavachari, A. P. Rendell, J. C. Burant, S. S. Iyengar, 
 J. Tomasi, M. Cossi, J. M. Millam, M. Klene, C. Adamo, R. Cammi, 
 J. W. Ochterski, R. L. Martin, K. Morokuma, O. Farkas, 
 J. B. Foresman, and D. J. Fox, Gaussian, Inc., Wallingford CT, 2016.
 
 ******************************************
 Gaussian 16:  ES64L-G16RevA.03 25-Dec-2016
                10-Jun-2022 
 ******************************************
 %nprocshared=12
 Will use up to   12 processors via shared memory.
 %chk=checkpoint.chk
 %mem=12GB
 ----------------------------------------------------------------------
 # Opt=(Z-matrix, MaxStep=10) B3LYP/Def2TZVP geom=allcheckpoint guess=r
 ead Field=read NoSymm freq=noraman pop=none
 ----------------------------------------------------------------------
 1/8=10,10=7,18=40,26=3,29=7,38=1/1,3;
 2/12=2,15=1,29=3,40=1/2;
 3/5=44,7=101,11=2,14=-6,25=1,30=1,71=1,74=-5,116=-2/1,2,3;
 4/5=1/1;
 5/5=2,38=6/2;
 7/29=1,30=1/1,2,3,16;
 1/8=10,10=7,18=40,26=3/3(2);
 2/15=1,29=3/2;
 99//99;
 2/15=1,29=3/2;
 3/5=44,7=101,11=2,14=-2,25=1,30=1,71=1,74=-5/1,2,3;
 4/5=5,16=3,69=1/1;
 5/5=2,38=5/2;
 7/30=1/1,2,3,16;
 1/8=10,18=40,26=3/3(-5);
 2/15=1,29=3/2;
 99/9=1/99;
 Structure from the checkpoint file:  "checkpoint.chk"
 ------------------
 int_zmat_initalOpt
 ------------------
 Charge =  0 Multiplicity = 1
 Z-Matrix found in chk file.
 C
 C,1,R2
 C,1,R3,2,A3
 H,1,R4,2,A4,3,D4,0
 H,2,R5,1,A5,3,D5,0
 H,3,R6,1,A6,2,D6,0
 C,3,R7,1,A7,6,D7,0
 C,2,R8,1,A8,5,D8,0
 H,7,R9,3,A9,1,D9,0
 O,7,R10,3,A10,9,D10,0
 H,8,R11,2,A11,1,D11,0
 H,8,R12,2,A12,11,D12,0
      Variables:
 R2=1.33570795
 R3=1.45497697
 R4=1.08301218
 R5=1.08190209
 R6=1.08036845
 R7=1.3416747
 R8=1.50132388
 R9=1.0831124
 R10=1.34863212
 R11=1.08808459
 R12=1.10070728
 A3=119.31791663
 A4=121.09515283
 A5=122.65307249
 A6=121.657272
 A7=118.08700657
 A8=118.60747351
 A9=124.26962066
 A10=123.50260402
 A11=112.36446829
 A12=111.14827008
 D4=-175.66787705
 D5=175.41942278
 D6=173.31617806
 D7=172.52727364
 D8=179.06613043
 D9=-169.49610349
 D10=174.72858571
 D11=150.15218824
 D12=121.27542077
 Recover connectivity data from disk.

 GradGradGradGradGradGradGradGradGradGradGradGradGradGradGradGradGradGrad
 Berny optimization.
 Initialization pass.
                       ----------------------------
                       !    Initial Parameters    !
                       ! (Angstroms and Degrees)  !
 ----------------------                            ----------------------
 !      Name          Value   Derivative information (Atomic Units)     !
 ------------------------------------------------------------------------
 !       R2          1.3357   estimate D2E/DX2                          !
 !       R3          1.455    estimate D2E/DX2                          !
 !       R4          1.083    estimate D2E/DX2                          !
 !       R5          1.0819   estimate D2E/DX2                          !
 !       R6          1.0804   estimate D2E/DX2                          !
 !       R7          1.3417   estimate D2E/DX2                          !
 !       R8          1.5013   estimate D2E/DX2                          !
 !       R9          1.0831   estimate D2E/DX2                          !
 !       R10         1.3486   estimate D2E/DX2                          !
 !       R11         1.0881   estimate D2E/DX2                          !
 !       R12         1.1007   estimate D2E/DX2                          !
 !       A3        119.3179   estimate D2E/DX2                          !
 !       A4        121.0952   estimate D2E/DX2                          !
 !       A5        122.6531   estimate D2E/DX2                          !
 !       A6        121.6573   estimate D2E/DX2                          !
 !       A7        118.087    estimate D2E/DX2                          !
 !       A8        118.6075   estimate D2E/DX2                          !
 !       A9        124.2696   estimate D2E/DX2                          !
 !       A10       123.5026   estimate D2E/DX2                          !
 !       A11       112.3645   estimate D2E/DX2                          !
 !       A12       111.1483   estimate D2E/DX2                          !
 !       D4       -175.6679   estimate D2E/DX2                          !
 !       D5        175.4194   estimate D2E/DX2                          !
 !       D6        173.3162   estimate D2E/DX2                          !
 !       D7        172.5273   estimate D2E/DX2                          !
 !       D8        179.0661   estimate D2E/DX2                          !
 !       D9       -169.4961   estimate D2E/DX2                          !
 !       D10       174.7286   estimate D2E/DX2                          !
 !       D11       150.1522   estimate D2E/DX2                          !
 !       D12       121.2754   estimate D2E/DX2                          !
 ------------------------------------------------------------------------
 Trust Radius=1.00D-01 FncErr=1.00D-07 GrdErr=1.00D-06 EigMax=2.50D+02 EigMin=1.00D-04
 Number of steps in this run=     40 maximum allowed number of steps=    100.
 GradGradGradGradGradGradGradGradGradGradGradGradGradGradGradGradGradGrad

 ---------------------------------------------------------------------------------------------------
                            Z-MATRIX (ANGSTROMS AND DEGREES)
   CD    Cent   Atom    N1       Length/X        N2       Alpha/Y        N3        Beta/Z          J
 ---------------------------------------------------------------------------------------------------
      1      1  C 
      2      2  C        1   1.335708(     1)
      3      3  C        1   1.454977(     2)      2  119.318(    12)
      4      4  H        1   1.083012(     3)      2  121.095(    13)      3 -175.668(    22)      0
      5      5  H        2   1.081902(     4)      1  122.653(    14)      3  175.419(    23)      0
      6      6  H        3   1.080368(     5)      1  121.657(    15)      2  173.316(    24)      0
      7      7  C        3   1.341675(     6)      1  118.087(    16)      6  172.527(    25)      0
      8      8  C        2   1.501324(     7)      1  118.607(    17)      5  179.066(    26)      0
      9      9  H        7   1.083112(     8)      3  124.270(    18)      1 -169.496(    27)      0
     10     10  O        7   1.348632(     9)      3  123.503(    19)      9  174.729(    28)      0
     11     11  H        8   1.088085(    10)      2  112.364(    20)      1  150.152(    29)      0
     12     12  H        8   1.100707(    11)      2  111.148(    21)     11  121.275(    30)      0
 ---------------------------------------------------------------------------------------------------
                         Z-Matrix orientation:                         
 ---------------------------------------------------------------------
 Center     Atomic      Atomic             Coordinates (Angstroms)
 Number     Number       Type             X           Y           Z
 ---------------------------------------------------------------------
      1          6           0        0.000000    0.000000    0.000000
      2          6           0        0.000000    0.000000    1.335708
      3          6           0        1.268618    0.000000   -0.712437
      4          1           0       -0.924745    0.070053   -0.559333
      5          1           0       -0.908001    0.072746    1.919449
      6          1           0        1.315777   -0.107034   -1.786455
      7          6           0        2.381376    0.289493   -0.021021
      8          6           0        1.311943   -0.126660    2.054551
      9          1           0        3.347923    0.477969   -0.472016
     10          8           0        2.399936    0.479623    1.314012
     11          1           0        1.305906    0.377056    3.019001
     12          1           0        1.572535   -1.182846    2.222239
 ---------------------------------------------------------------------
                    Distance matrix (angstroms):
                    1          2          3          4          5
     1  C    0.000000
     2  C    1.335708   0.000000
     3  C    1.454977   2.409209   0.000000
     4  H    1.083012   2.109797   2.199816   0.000000
     5  H    2.124628   1.081902   3.416107   2.478841   0.000000
     6  H    2.221294   3.389783   1.080368   2.560689   4.325649
     7  C    2.398999   2.755988   1.341675   3.356839   3.825233
     8  C    2.440987   1.501324   2.770225   3.445848   2.232973
     9  H    3.414651   3.834698   2.147036   4.292984   4.898592
    10  O    2.777834   2.447489   2.369898   3.838057   3.387411
    11  H    3.310880   2.163570   3.750625   4.227828   2.490583
    12  H    2.968222   2.158224   3.178650   3.942501   2.796651
                    6          7          8          9         10
     6  H    0.000000
     7  C    2.099879   0.000000
     8  C    3.841059   2.371681   0.000000
     9  H    2.489899   1.083112   3.300656   0.000000
    10  O    3.336535   1.348632   1.449036   2.022023   0.000000
    11  H    4.829788   3.225839   1.088085   4.045641   2.028400
    12  H    4.158477   2.802539   1.100707   3.628955   2.067189
                   11         12
    11  H    0.000000
    12  H    1.771782   0.000000
 Symmetry turned off by external request.
 Stoichiometry    C5H6O
 Framework group  C1[X(C5H6O)]
 Deg. of freedom    30
 Full point group                 C1      NOp   1
 Rotational constants (GHZ):           5.5723964           5.3735556           2.8479463
 Standard basis: def2TZVP (5D, 7F)
 The following finite field(s) will be applied:
 An electric field of              0.0031 -0.0022 -0.0065
   222 basis functions,   354 primitive gaussians,   252 cartesian basis functions
    22 alpha electrons       22 beta electrons
       nuclear repulsion energy       223.4950476929 Hartrees.
 NAtoms=   12 NActive=   12 NUniq=   12 SFac= 1.00D+00 NAtFMM=   60 NAOKFM=F Big=F
 Integral buffers will be    131072 words long.
 Raffenetti 2 integral format.
 Two-electron integral symmetry is turned off.
 One-electron integrals computed using PRISM.
   1 Symmetry operations used in ECPInt.
 ECPInt:  NShTT=    4095 NPrTT=   12396 LenC2=    4075 LenP2D=   10419.
 LDataN:  DoStor=T MaxTD1= 6 Len=  172
 NBasis=   222 RedAO= T EigKep=  9.55D-05  NBF=   222
 NBsUse=   222 1.00D-06 EigRej= -1.00D+00 NBFU=   222
 The nuclear repulsion energy is now       223.4199692529 hartrees.
 Initial guess from the checkpoint file:  "checkpoint.chk"
 B after Tr=     0.000000    0.000000    0.000000
         Rot=    1.000000    0.000000    0.000000    0.000000 Ang=   0.00 deg.
 Keep R1 ints in memory in canonical form, NReq=319363885.
 Requested convergence on RMS density matrix=1.00D-08 within 128 cycles.
 Requested convergence on MAX density matrix=1.00D-06.
 Requested convergence on             energy=1.00D-06.
 No special actions if energy rises.
 SCF Done:  E(RB3LYP) =  -269.424839378     A.U. after   10 cycles
            NFock= 10  Conv=0.81D-08     -V/T= 2.0050
   1 Symmetry operations used in ECPInt.
 ECPInt:  NShTT=    4095 NPrTT=   12396 LenC2=    4075 LenP2D=   10419.
 LDataN:  DoStor=T MaxTD1= 7 Len=  274
 Calling FoFJK, ICntrl=      2127 FMM=F ISym2X=0 I1Cent= 0 IOpClX= 0 NMat=1 NMatS=1 NMatT=0.
 -------------------------------------------------------------------
 Center     Atomic                   Forces (Hartrees/Bohr)
 Number     Number              X              Y              Z
 -------------------------------------------------------------------
      1        6          -0.001000309    0.000037218    0.000139668
      2        6           0.000523839    0.000064672   -0.000330214
      3        6           0.000228148   -0.000401344    0.000144065
      4        1          -0.000076466    0.000071370    0.000104886
      5        1           0.000101988   -0.000009974    0.000059421
      6        1           0.000023002    0.000061462   -0.000331201
      7        6           0.000090877    0.000128494    0.001285660
      8        6          -0.000515758    0.000053429    0.001006220
      9        1           0.000246959    0.000080753   -0.000075500
     10        8           0.000618630   -0.000057916   -0.001939300
     11        1          -0.000089748   -0.000131959   -0.000103214
     12        1          -0.000151161    0.000103794    0.000039508
 -------------------------------------------------------------------
 Cartesian Forces:  Max     0.001939300 RMS     0.000501207
 -----------------------------------------------------------------------------------------------
                       Internal Coordinate Forces (Hartree/Bohr or radian)
  Cent   Atom   N1       Length/X         N2         Alpha/Y        N3         Beta/Z          J
 -----------------------------------------------------------------------------------------------
      1  C 
      2  C        1   0.000672(     1)
      3  C        1   0.001502(     2)      2   0.004893(    12)
      4  H        1   0.000016(     3)      2  -0.000270(    13)      3   0.000115(    22)     0
      5  H        2  -0.000054(     4)      1   0.000215(    14)      3  -0.000279(    23)     0
      6  H        3   0.000324(     5)      1   0.000029(    15)      2  -0.000620(    24)     0
      7  C        3   0.000450(     6)      1   0.004419(    16)      6  -0.000783(    25)     0
      8  C        2  -0.000212(     7)      1   0.003602(    17)      5  -0.000282(    26)     0
      9  H        7   0.000266(     8)      3   0.000083(    18)      1  -0.000171(    27)     0
     10  O        7  -0.001919(     9)      3   0.001714(    19)      9  -0.000221(    28)     0
     11  H        8  -0.000152(    10)      2  -0.000131(    20)      1  -0.000032(    29)     0
     12  H        8  -0.000129(    11)      2  -0.000168(    21)     11  -0.000212(    30)     0
 -----------------------------------------------------------------------------------------------
 Internal  Forces:  Max     0.004892732 RMS     0.001502161

 GradGradGradGradGradGradGradGradGradGradGradGradGradGradGradGradGradGrad
 Berny optimization.
 Search for a local minimum.
 Step number   1 out of a maximum of   40
 All quantities printed in internal units (Hartrees-Bohrs-Radians)
 Second derivative matrix not updated -- first step.
 ITU=  0
     Eigenvalues ---    0.03270   0.04395   0.05190   0.06585   0.08289
     Eigenvalues ---    0.12682   0.16827   0.18250   0.19805   0.21588
     Eigenvalues ---    0.27056   0.30850   0.32969   0.33604   0.34617
     Eigenvalues ---    0.35035   0.35621   0.35634   0.35766   0.35950
     Eigenvalues ---    0.38913   0.42938   0.51762   0.54318   0.56033
     Eigenvalues ---    0.57017   0.59049   1.97011   4.33479  22.55316
 RFO step:  Lambda=-1.46707979D-05 EMin= 3.27026137D-02
 Linear search not attempted -- first point.
 Variable       Old X    -DE/DX   Delta X   Delta X   Delta X     New X
                                 (Linear)    (Quad)   (Total)
    R2        2.52412   0.00067   0.00000  -0.00014  -0.00014   2.52398
    R3        2.74951   0.00150   0.00000   0.00128   0.00128   2.75078
    R4        2.04660   0.00002   0.00000   0.00005   0.00005   2.04664
    R5        2.04450  -0.00005   0.00000  -0.00015  -0.00015   2.04435
    R6        2.04160   0.00032   0.00000   0.00090   0.00090   2.04251
    R7        2.53540   0.00045   0.00000   0.00033   0.00033   2.53573
    R8        2.83709  -0.00021   0.00000   0.00021   0.00021   2.83730
    R9        2.04679   0.00027   0.00000   0.00075   0.00075   2.04753
   R10        2.54855  -0.00192   0.00000  -0.00218  -0.00218   2.54636
   R11        2.05618  -0.00015   0.00000  -0.00044  -0.00044   2.05575
   R12        2.08004  -0.00013   0.00000  -0.00037  -0.00037   2.07966
    A3        2.08249   0.00489   0.00000   0.00018   0.00018   2.08267
    A4        2.11351  -0.00027   0.00000  -0.00102  -0.00102   2.11249
    A5        2.14070   0.00022   0.00000   0.00004   0.00004   2.14074
    A6        2.12332   0.00003   0.00000  -0.00020  -0.00020   2.12312
    A7        2.06101   0.00442   0.00000   0.00073   0.00073   2.06173
    A8        2.07009   0.00360   0.00000   0.00128   0.00128   2.07137
    A9        2.16891   0.00008   0.00000   0.00016   0.00016   2.16908
   A10        2.15553   0.00171   0.00000   0.00013   0.00013   2.15566
   A11        1.96113  -0.00013   0.00000   0.00018   0.00018   1.96131
   A12        1.93990  -0.00017   0.00000  -0.00162  -0.00162   1.93828
    D4       -3.06598   0.00011   0.00000   0.00231   0.00231  -3.06367
    D5        3.06165  -0.00028   0.00000  -0.00137  -0.00137   3.06027
    D6        3.02494  -0.00062   0.00000   0.00426   0.00426   3.02920
    D7        3.01117  -0.00078   0.00000   0.00049   0.00049   3.01166
    D8        3.12529  -0.00028   0.00000   0.00159   0.00159   3.12689
    D9       -2.95827  -0.00017   0.00000  -0.00195  -0.00195  -2.96021
   D10        3.04959  -0.00022   0.00000  -0.00217  -0.00217   3.04742
   D11        2.62065  -0.00003   0.00000  -0.00379  -0.00379   2.61686
   D12        2.11666  -0.00021   0.00000  -0.00186  -0.00186   2.11479
         Item               Value     Threshold  Converged?
 Maximum Force            0.004893     0.000450     NO 
 RMS     Force            0.001502     0.000300     NO 
 Maximum Displacement     0.004259     0.001800     NO 
 RMS     Displacement     0.001514     0.001200     NO 
 Predicted change in Energy=-7.335399D-06
 GradGradGradGradGradGradGradGradGradGradGradGradGradGradGradGradGradGrad

 ---------------------------------------------------------------------------------------------------
                            Z-MATRIX (ANGSTROMS AND DEGREES)
   CD    Cent   Atom    N1       Length/X        N2       Alpha/Y        N3        Beta/Z          J
 ---------------------------------------------------------------------------------------------------
      1      1  C 
      2      2  C        1   1.335633(     1)
      3      3  C        1   1.455652(     2)      2  119.328(    12)
      4      4  H        1   1.083037(     3)      2  121.037(    13)      3 -175.536(    22)      0
      5      5  H        2   1.081822(     4)      1  122.656(    14)      3  175.341(    23)      0
      6      6  H        3   1.080847(     5)      1  121.646(    15)      2  173.560(    24)      0
      7      7  C        3   1.341849(     6)      1  118.129(    16)      6  172.555(    25)      0
      8      8  C        2   1.501435(     7)      1  118.681(    17)      5  179.157(    26)      0
      9      9  H        7   1.083508(     8)      3  124.279(    18)      1 -169.608(    27)      0
     10     10  O        7   1.347477(     9)      3  123.510(    19)      9  174.604(    28)      0
     11     11  H        8   1.087854(    10)      2  112.375(    20)      1  149.935(    29)      0
     12     12  H        8   1.100510(    11)      2  111.055(    21)     11  121.169(    30)      0
 ---------------------------------------------------------------------------------------------------
                         Z-Matrix orientation:                         
 ---------------------------------------------------------------------
 Center     Atomic      Atomic             Coordinates (Angstroms)
 Number     Number       Type             X           Y           Z
 ---------------------------------------------------------------------
      1          6           0        0.000000    0.000000    0.000000
      2          6           0        0.000000    0.000000    1.335633
      3          6           0        1.269081    0.000000   -0.712991
      4          1           0       -0.925169    0.072235   -0.558403
      5          1           0       -0.907808    0.073986    1.919371
      6          1           0        1.315637   -0.103201   -1.787892
      7          6           0        2.383302    0.283968   -0.021303
      8          6           0        1.311153   -0.126292    2.056214
      9          1           0        3.350715    0.470270   -0.472295
     10          8           0        2.402895    0.473024    1.312701
     11          1           0        1.305192    0.380579    3.018749
     12          1           0        1.567422   -1.182571    2.228613
 ---------------------------------------------------------------------
                    Distance matrix (angstroms):
                    1          2          3          4          5
     1  C    0.000000
     2  C    1.335633   0.000000
     3  C    1.455652   2.409860   0.000000
     4  H    1.083037   2.109153   2.200874   0.000000
     5  H    2.124518   1.081822   3.416672   2.477836   0.000000
     6  H    2.222186   3.390864   1.080847   2.561958   4.326535
     7  C    2.400254   2.757180   1.341849   3.358465   3.826449
     8  C    2.441943   1.501435   2.772403   3.446269   2.232179
     9  H    3.416359   3.836281   2.147624   4.295234   4.900217
    10  O    2.778640   2.449119   2.369117   3.838968   3.389400
    11  H    3.310772   2.163618   3.751270   4.226772   2.489979
    12  H    2.970185   2.157012   3.184418   3.943984   2.793086
                    6          7          8          9         10
     6  H    0.000000
     7  C    2.100154   0.000000
     8  C    3.844178   2.373583   0.000000
     9  H    2.490223   1.083508   3.302886   0.000000
    10  O    3.335843   1.347477   1.450480   2.021035   0.000000
    11  H    4.830937   3.227007   1.087854   4.047172   2.030788
    12  H    4.166624   2.806871   1.100510   3.634133   2.068310
                   11         12
    11  H    0.000000
    12  H    1.771022   0.000000
 Symmetry turned off by external request.
 Stoichiometry    C5H6O
 Framework group  C1[X(C5H6O)]
 Deg. of freedom    30
 Full point group                 C1      NOp   1
 Rotational constants (GHZ):           5.5686937           5.3720365           2.8450331
 Standard basis: def2TZVP (5D, 7F)
 The following finite field(s) will be applied:
 An electric field of              0.0031 -0.0022 -0.0065
   222 basis functions,   354 primitive gaussians,   252 cartesian basis functions
    22 alpha electrons       22 beta electrons
       nuclear repulsion energy       223.4426402539 Hartrees.
 NAtoms=   12 NActive=   12 NUniq=   12 SFac= 1.00D+00 NAtFMM=   60 NAOKFM=F Big=F
 Integral buffers will be    131072 words long.
 Raffenetti 2 integral format.
 Two-electron integral symmetry is turned off.
 One-electron integrals computed using PRISM.
   1 Symmetry operations used in ECPInt.
 ECPInt:  NShTT=    4095 NPrTT=   12396 LenC2=    4075 LenP2D=   10417.
 LDataN:  DoStor=T MaxTD1= 6 Len=  172
 NBasis=   222 RedAO= T EigKep=  9.55D-05  NBF=   222
 NBsUse=   222 1.00D-06 EigRej= -1.00D+00 NBFU=   222
 The nuclear repulsion energy is now       223.3680755513 hartrees.
 Initial guess from the checkpoint file:  "checkpoint.chk"
 B after Tr=     0.000804    0.002252   -0.000007
         Rot=    0.999999    0.000131    0.000006    0.001288 Ang=   0.15 deg.
 Keep R1 ints in memory in canonical form, NReq=319363885.
 Requested convergence on RMS density matrix=1.00D-08 within 128 cycles.
 Requested convergence on MAX density matrix=1.00D-06.
 Requested convergence on             energy=1.00D-06.
 No special actions if energy rises.
 SCF Done:  E(RB3LYP) =  -269.424848818     A.U. after    8 cycles
            NFock=  8  Conv=0.79D-08     -V/T= 2.0050
   1 Symmetry operations used in ECPInt.
 ECPInt:  NShTT=    4095 NPrTT=   12396 LenC2=    4075 LenP2D=   10417.
 LDataN:  DoStor=T MaxTD1= 7 Len=  274
 Calling FoFJK, ICntrl=      2127 FMM=F ISym2X=0 I1Cent= 0 IOpClX= 0 NMat=1 NMatS=1 NMatT=0.
 -------------------------------------------------------------------
 Center     Atomic                   Forces (Hartrees/Bohr)
 Number     Number              X              Y              Z
 -------------------------------------------------------------------
      1        6          -0.000637563    0.000312615    0.000019232
      2        6           0.000715341    0.000284854   -0.000253172
      3        6           0.000098005   -0.000572159   -0.000110505
      4        1          -0.000003972   -0.000014229    0.000027985
      5        1           0.000012567   -0.000051915    0.000058500
      6        1          -0.000010032   -0.000014497    0.000004684
      7        6          -0.000211048    0.000256164    0.000559621
      8        6          -0.000369542   -0.000162096    0.000270781
      9        1          -0.000004037    0.000020294   -0.000048464
     10        8           0.000305163   -0.000237194   -0.000495616
     11        1           0.000056302    0.000116431   -0.000092763
     12        1           0.000048817    0.000061732    0.000059717
 -------------------------------------------------------------------
 Cartesian Forces:  Max     0.000715341 RMS     0.000269295
 -----------------------------------------------------------------------------------------------
                       Internal Coordinate Forces (Hartree/Bohr or radian)
  Cent   Atom   N1       Length/X         N2         Alpha/Y        N3         Beta/Z          J
 -----------------------------------------------------------------------------------------------
      1  C 
      2  C        1   0.000043(     1)
      3  C        1   0.000199(     2)      2   0.000961(    12)
      4  H        1  -0.000012(     3)      2  -0.000052(    13)      3  -0.000025(    22)     0
      5  H        2   0.000017(     4)      1   0.000119(    14)      3   0.000136(    23)     0
      6  H        3  -0.000004(     5)      1  -0.000022(    15)      2   0.000327(    24)     0
      7  C        3   0.000091(     6)      1   0.000901(    16)      6   0.000352(    25)     0
      8  C        2  -0.000118(     7)      1   0.000907(    17)      5   0.000049(    26)     0
      9  H        7   0.000020(     8)      3  -0.000088(    18)      1   0.000495(    27)     0
     10  O        7  -0.000520(     9)      3   0.000716(    19)      9   0.000455(    28)     0
     11  H        8  -0.000028(    10)      2   0.000012(    20)      1  -0.000357(    29)     0
     12  H        8  -0.000039(    11)      2   0.000178(    21)     11  -0.000059(    30)     0
 -----------------------------------------------------------------------------------------------
 Internal  Forces:  Max     0.000961275 RMS     0.000378629

 GradGradGradGradGradGradGradGradGradGradGradGradGradGradGradGradGradGrad
 Berny optimization.
 Search for a local minimum.
 Step number   2 out of a maximum of   40
 All quantities printed in internal units (Hartrees-Bohrs-Radians)
 Update second derivatives using D2CorN and points    1    2
 DE= -9.44D-06 DEPred=-7.34D-06 R= 1.29D+00
 TightC=F SS=  1.41D+00  RLast= 8.29D-03 DXNew= 1.6818D-01 2.4874D-02
 Trust test= 1.29D+00 RLast= 8.29D-03 DXMaxT set to 1.00D-01
 ITU=  1  0
     Eigenvalues ---    0.02821   0.03793   0.04759   0.06647   0.07174
     Eigenvalues ---    0.12700   0.16483   0.18176   0.19864   0.21763
     Eigenvalues ---    0.27127   0.30889   0.32960   0.33580   0.34623
     Eigenvalues ---    0.35005   0.35568   0.35635   0.35769   0.35921
     Eigenvalues ---    0.38977   0.42296   0.51699   0.53522   0.56002
     Eigenvalues ---    0.56853   0.59084   1.96948   4.32358  22.54757
 RFO step:  Lambda=-6.76499410D-06 EMin= 2.82142382D-02
 Quartic linear search produced a step of  0.39082.
 Variable       Old X    -DE/DX   Delta X   Delta X   Delta X     New X
                                 (Linear)    (Quad)   (Total)
    R2        2.52398   0.00004  -0.00006  -0.00015  -0.00021   2.52377
    R3        2.75078   0.00020   0.00050  -0.00056  -0.00006   2.75072
    R4        2.04664  -0.00001   0.00002  -0.00007  -0.00005   2.04659
    R5        2.04435   0.00002  -0.00006   0.00012   0.00006   2.04441
    R6        2.04251  -0.00000   0.00035  -0.00026   0.00009   2.04260
    R7        2.53573   0.00009   0.00013  -0.00018  -0.00005   2.53568
    R8        2.83730  -0.00012   0.00008   0.00008   0.00016   2.83746
    R9        2.04753   0.00002   0.00029  -0.00011   0.00019   2.04772
   R10        2.54636  -0.00052  -0.00085  -0.00057  -0.00142   2.54494
   R11        2.05575  -0.00003  -0.00017  -0.00002  -0.00019   2.05555
   R12        2.07966  -0.00004  -0.00015  -0.00008  -0.00023   2.07944
    A3        2.08267   0.00096   0.00007  -0.00004   0.00003   2.08270
    A4        2.11249  -0.00005  -0.00040  -0.00011  -0.00051   2.11199
    A5        2.14074   0.00012   0.00002  -0.00036  -0.00034   2.14040
    A6        2.12312  -0.00002  -0.00008   0.00003  -0.00005   2.12307
    A7        2.06173   0.00090   0.00028  -0.00046  -0.00018   2.06155
    A8        2.07137   0.00091   0.00050   0.00152   0.00202   2.07339
    A9        2.16908  -0.00009   0.00006  -0.00139  -0.00132   2.16775
   A10        2.15566   0.00072   0.00005   0.00176   0.00181   2.15747
   A11        1.96131   0.00001   0.00007  -0.00003   0.00004   1.96135
   A12        1.93828   0.00018  -0.00063   0.00150   0.00086   1.93914
    D4       -3.06367  -0.00003   0.00090   0.00118   0.00208  -3.06159
    D5        3.06027   0.00014  -0.00054  -0.00134  -0.00188   3.05840
    D6        3.02920   0.00033   0.00166   0.00308   0.00475   3.03394
    D7        3.01166   0.00035   0.00019  -0.00056  -0.00037   3.01129
    D8        3.12689   0.00005   0.00062   0.00091   0.00154   3.12842
    D9       -2.96021   0.00049  -0.00076  -0.00005  -0.00081  -2.96103
   D10        3.04742   0.00046  -0.00085   0.00065  -0.00020   3.04723
   D11        2.61686  -0.00036  -0.00148  -0.00729  -0.00877   2.60809
   D12        2.11479  -0.00006  -0.00073   0.00167   0.00095   2.11574
         Item               Value     Threshold  Converged?
 Maximum Force            0.000961     0.000450     NO 
 RMS     Force            0.000379     0.000300     NO 
 Maximum Displacement     0.008770     0.001800     NO 
 RMS     Displacement     0.002032     0.001200     NO 
 Predicted change in Energy=-3.550403D-06
 GradGradGradGradGradGradGradGradGradGradGradGradGradGradGradGradGradGrad

 ---------------------------------------------------------------------------------------------------
                            Z-MATRIX (ANGSTROMS AND DEGREES)
   CD    Cent   Atom    N1       Length/X        N2       Alpha/Y        N3        Beta/Z          J
 ---------------------------------------------------------------------------------------------------
      1      1  C 
      2      2  C        1   1.335523(     1)
      3      3  C        1   1.455619(     2)      2  119.330(    12)
      4      4  H        1   1.083011(     3)      2  121.008(    13)      3 -175.416(    22)      0
      5      5  H        2   1.081857(     4)      1  122.636(    14)      3  175.233(    23)      0
      6      6  H        3   1.080897(     5)      1  121.643(    15)      2  173.832(    24)      0
      7      7  C        3   1.341822(     6)      1  118.118(    16)      6  172.534(    25)      0
      8      8  C        2   1.501519(     7)      1  118.797(    17)      5  179.246(    26)      0
      9      9  H        7   1.083607(     8)      3  124.203(    18)      1 -169.654(    27)      0
     10     10  O        7   1.346726(     9)      3  123.614(    19)      9  174.593(    28)      0
     11     11  H        8   1.087751(    10)      2  112.377(    20)      1  149.433(    29)      0
     12     12  H        8   1.100390(    11)      2  111.105(    21)     11  121.223(    30)      0
 ---------------------------------------------------------------------------------------------------
                         Z-Matrix orientation:                         
 ---------------------------------------------------------------------
 Center     Atomic      Atomic             Coordinates (Angstroms)
 Number     Number       Type             X           Y           Z
 ---------------------------------------------------------------------
      1          6           0        0.000000    0.000000    0.000000
      2          6           0        0.000000    0.000000    1.335523
      3          6           0        1.269031    0.000000   -0.713014
      4          1           0       -0.925276    0.074184   -0.557919
      5          1           0       -0.907894    0.075708    1.918969
      6          1           0        1.315271   -0.098868   -1.788386
      7          6           0        2.383723    0.278959   -0.020099
      8          6           0        1.309729   -0.126603    2.058808
      9          1           0        3.351266    0.464062   -0.471541
     10          8           0        2.405722    0.464246    1.313639
     11          1           0        1.304915    0.387769    3.017244
     12          1           0        1.562203   -1.182306    2.239380
 ---------------------------------------------------------------------
                    Distance matrix (angstroms):
                    1          2          3          4          5
     1  C    0.000000
     2  C    1.335523   0.000000
     3  C    1.455619   2.409759   0.000000
     4  H    1.083011   2.108734   2.201032   0.000000
     5  H    2.124252   1.081857   3.416441   2.476950   0.000000
     6  H    2.222170   3.390947   1.080897   2.562040   4.326364
     7  C    2.400074   2.756386   1.341822   3.358669   3.825708
     8  C    2.443380   1.501519   2.775010   3.447147   2.231219
     9  H    3.415946   3.835599   2.146944   4.295146   4.899572
    10  O    2.780049   2.450205   2.369581   3.840629   3.390788
    11  H    3.310126   2.163644   3.750530   4.225385   2.490003
    12  H    2.975424   2.157611   3.193811   3.948569   2.790456
                    6          7          8          9         10
     6  H    0.000000
     7  C    2.100281   0.000000
     8  C    3.847298   2.374825   0.000000
     9  H    2.489226   1.083607   3.304455   0.000000
    10  O    3.335977   1.346726   1.451062   2.020129   0.000000
    11  H    4.830218   3.225076   1.087751   4.045367   2.029753
    12  H    4.178243   2.813438   1.100390   3.641479   2.068733
                   11         12
    11  H    0.000000
    12  H    1.770990   0.000000
 Symmetry turned off by external request.
 Stoichiometry    C5H6O
 Framework group  C1[X(C5H6O)]
 Deg. of freedom    30
 Full point group                 C1      NOp   1
 Rotational constants (GHZ):           5.5671025           5.3711794           2.8426092
 Standard basis: def2TZVP (5D, 7F)
 The following finite field(s) will be applied:
 An electric field of              0.0031 -0.0022 -0.0065
   222 basis functions,   354 primitive gaussians,   252 cartesian basis functions
    22 alpha electrons       22 beta electrons
       nuclear repulsion energy       223.4173833182 Hartrees.
 NAtoms=   12 NActive=   12 NUniq=   12 SFac= 1.00D+00 NAtFMM=   60 NAOKFM=F Big=F
 Integral buffers will be    131072 words long.
 Raffenetti 2 integral format.
 Two-electron integral symmetry is turned off.
 One-electron integrals computed using PRISM.
   1 Symmetry operations used in ECPInt.
 ECPInt:  NShTT=    4095 NPrTT=   12396 LenC2=    4075 LenP2D=   10419.
 LDataN:  DoStor=T MaxTD1= 6 Len=  172
 NBasis=   222 RedAO= T EigKep=  9.54D-05  NBF=   222
 NBsUse=   222 1.00D-06 EigRej= -1.00D+00 NBFU=   222
 The nuclear repulsion energy is now       223.3427848474 hartrees.
 Initial guess from the checkpoint file:  "checkpoint.chk"
 B after Tr=     0.000296    0.002518    0.001054
         Rot=    0.999999    0.000030    0.000135    0.001402 Ang=   0.16 deg.
 Keep R1 ints in memory in canonical form, NReq=319363885.
 Requested convergence on RMS density matrix=1.00D-08 within 128 cycles.
 Requested convergence on MAX density matrix=1.00D-06.
 Requested convergence on             energy=1.00D-06.
 No special actions if energy rises.
 SCF Done:  E(RB3LYP) =  -269.424853897     A.U. after    9 cycles
            NFock=  9  Conv=0.34D-08     -V/T= 2.0050
   1 Symmetry operations used in ECPInt.
 ECPInt:  NShTT=    4095 NPrTT=   12396 LenC2=    4075 LenP2D=   10419.
 LDataN:  DoStor=T MaxTD1= 7 Len=  274
 Calling FoFJK, ICntrl=      2127 FMM=F ISym2X=0 I1Cent= 0 IOpClX= 0 NMat=1 NMatS=1 NMatT=0.
 -------------------------------------------------------------------
 Center     Atomic                   Forces (Hartrees/Bohr)
 Number     Number              X              Y              Z
 -------------------------------------------------------------------
      1        6          -0.000577049    0.000460677    0.000052121
      2        6           0.000662140    0.000324595   -0.000009292
      3        6           0.000035855   -0.000626116   -0.000071799
      4        1          -0.000010284   -0.000062837    0.000006410
      5        1          -0.000007415   -0.000104154    0.000033727
      6        1           0.000026315   -0.000050385    0.000064529
      7        6           0.000025031    0.000259887   -0.000024118
      8        6          -0.000188651   -0.000000841    0.000065215
      9        1          -0.000014362   -0.000009007   -0.000013419
     10        8           0.000111897   -0.000262363   -0.000209954
     11        1          -0.000104869    0.000020166    0.000068140
     12        1           0.000041392    0.000050378    0.000038439
 -------------------------------------------------------------------
 Cartesian Forces:  Max     0.000662140 RMS     0.000221740
 -----------------------------------------------------------------------------------------------
                       Internal Coordinate Forces (Hartree/Bohr or radian)
  Cent   Atom   N1       Length/X         N2         Alpha/Y        N3         Beta/Z          J
 -----------------------------------------------------------------------------------------------
      1  C 
      2  C        1   0.000196(     1)
      3  C        1   0.000286(     2)      2   0.001312(    12)
      4  H        1   0.000001(     3)      2  -0.000017(    13)      3  -0.000111(    22)     0
      5  H        2   0.000017(     4)      1   0.000059(    14)      3   0.000500(    23)     0
      6  H        3  -0.000058(     5)      1   0.000053(    15)      2   0.000375(    24)     0
      7  C        3  -0.000028(     6)      1   0.000959(    16)      6   0.000475(    25)     0
      8  C        2  -0.000143(     7)      1   0.000978(    17)      5   0.000321(    26)     0
      9  H        7  -0.000009(     8)      3  -0.000039(    18)      1   0.000514(    27)     0
     10  O        7  -0.000242(     9)      3   0.000196(    19)      9   0.000523(    28)     0
     11  H        8   0.000070(    10)      2  -0.000193(    20)      1   0.000061(    29)     0
     12  H        8  -0.000033(    11)      2   0.000138(    21)     11  -0.000030(    30)     0
 -----------------------------------------------------------------------------------------------
 Internal  Forces:  Max     0.001312279 RMS     0.000415710

 GradGradGradGradGradGradGradGradGradGradGradGradGradGradGradGradGradGrad
 Berny optimization.
 Search for a local minimum.
 Step number   3 out of a maximum of   40
 All quantities printed in internal units (Hartrees-Bohrs-Radians)
 Update second derivatives using D2CorN and points    1    2    3
 DE= -5.08D-06 DEPred=-3.55D-06 R= 1.43D+00
 TightC=F SS=  1.41D+00  RLast= 1.11D-02 DXNew= 1.6818D-01 3.3392D-02
 Trust test= 1.43D+00 RLast= 1.11D-02 DXMaxT set to 1.00D-01
 ITU=  1  1  0
     Eigenvalues ---    0.03251   0.03510   0.04673   0.06403   0.07024
     Eigenvalues ---    0.12729   0.16316   0.18235   0.19872   0.21740
     Eigenvalues ---    0.27137   0.30886   0.32951   0.33568   0.34625
     Eigenvalues ---    0.35019   0.35554   0.35635   0.35770   0.35930
     Eigenvalues ---    0.38952   0.41577   0.51686   0.53523   0.56005
     Eigenvalues ---    0.56827   0.59085   1.96887   4.31666  22.54532
 RFO step:  Lambda=-2.80846375D-06 EMin= 3.25087632D-02
 Quartic linear search produced a step of  0.46835.
 Variable       Old X    -DE/DX   Delta X   Delta X   Delta X     New X
                                 (Linear)    (Quad)   (Total)
    R2        2.52377   0.00020  -0.00010   0.00003  -0.00007   2.52370
    R3        2.75072   0.00029  -0.00003   0.00022   0.00020   2.75092
    R4        2.04659   0.00000  -0.00002   0.00002  -0.00000   2.04659
    R5        2.04441   0.00002   0.00003   0.00004   0.00007   2.04448
    R6        2.04260  -0.00006   0.00004  -0.00019  -0.00015   2.04245
    R7        2.53568  -0.00003  -0.00002  -0.00012  -0.00014   2.53553
    R8        2.83746  -0.00014   0.00007  -0.00036  -0.00029   2.83718
    R9        2.04772  -0.00001   0.00009  -0.00002   0.00006   2.04778
   R10        2.54494  -0.00024  -0.00066   0.00018  -0.00048   2.54446
   R11        2.05555   0.00007  -0.00009   0.00031   0.00022   2.05577
   R12        2.07944  -0.00003  -0.00011  -0.00011  -0.00022   2.07922
    A3        2.08270   0.00131   0.00001   0.00051   0.00052   2.08322
    A4        2.11199  -0.00002  -0.00024  -0.00028  -0.00051   2.11147
    A5        2.14040   0.00006  -0.00016  -0.00002  -0.00017   2.14023
    A6        2.12307   0.00005  -0.00002   0.00021   0.00019   2.12326
    A7        2.06155   0.00096  -0.00008   0.00007  -0.00002   2.06154
    A8        2.07339   0.00098   0.00095   0.00020   0.00115   2.07454
    A9        2.16775  -0.00004  -0.00062   0.00018  -0.00044   2.16731
   A10        2.15747   0.00020   0.00085  -0.00050   0.00035   2.15782
   A11        1.96135  -0.00019   0.00002  -0.00085  -0.00083   1.96053
   A12        1.93914   0.00014   0.00040  -0.00001   0.00039   1.93953
    D4       -3.06159  -0.00011   0.00098  -0.00194  -0.00097  -3.06256
    D5        3.05840   0.00050  -0.00088   0.00192   0.00104   3.05944
    D6        3.03394   0.00037   0.00222  -0.00097   0.00126   3.03520
    D7        3.01129   0.00047  -0.00017   0.00006  -0.00011   3.01118
    D8        3.12842   0.00032   0.00072   0.00012   0.00084   3.12927
    D9       -2.96103   0.00051  -0.00038  -0.00038  -0.00076  -2.96179
   D10        3.04723   0.00052  -0.00009   0.00133   0.00124   3.04847
   D11        2.60809   0.00006  -0.00411  -0.00205  -0.00616   2.60193
   D12        2.11574  -0.00003   0.00044  -0.00091  -0.00047   2.11526
         Item               Value     Threshold  Converged?
 Maximum Force            0.001312     0.000450     NO 
 RMS     Force            0.000416     0.000300     NO 
 Maximum Displacement     0.006160     0.001800     NO 
 RMS     Displacement     0.001267     0.001200     NO 
 Predicted change in Energy=-1.571276D-06
 GradGradGradGradGradGradGradGradGradGradGradGradGradGradGradGradGradGrad

 ---------------------------------------------------------------------------------------------------
                            Z-MATRIX (ANGSTROMS AND DEGREES)
   CD    Cent   Atom    N1       Length/X        N2       Alpha/Y        N3        Beta/Z          J
 ---------------------------------------------------------------------------------------------------
      1      1  C 
      2      2  C        1   1.335486(     1)
      3      3  C        1   1.455723(     2)      2  119.360(    12)
      4      4  H        1   1.083011(     3)      2  120.978(    13)      3 -175.472(    22)      0
      5      5  H        2   1.081894(     4)      1  122.626(    14)      3  175.293(    23)      0
      6      6  H        3   1.080820(     5)      1  121.654(    15)      2  173.904(    24)      0
      7      7  C        3   1.341747(     6)      1  118.117(    16)      6  172.528(    25)      0
      8      8  C        2   1.501368(     7)      1  118.863(    17)      5  179.294(    26)      0
      9      9  H        7   1.083641(     8)      3  124.178(    18)      1 -169.698(    27)      0
     10     10  O        7   1.346471(     9)      3  123.634(    19)      9  174.664(    28)      0
     11     11  H        8   1.087866(    10)      2  112.330(    20)      1  149.080(    29)      0
     12     12  H        8   1.100276(    11)      2  111.127(    21)     11  121.196(    30)      0
 ---------------------------------------------------------------------------------------------------
                         Z-Matrix orientation:                         
 ---------------------------------------------------------------------
 Center     Atomic      Atomic             Coordinates (Angstroms)
 Number     Number       Type             X           Y           Z
 ---------------------------------------------------------------------
      1          6           0        0.000000    0.000000    0.000000
      2          6           0        0.000000    0.000000    1.335486
      3          6           0        1.268749    0.000000   -0.713726
      4          1           0       -0.925633    0.073311   -0.557442
      5          1           0       -0.908106    0.074775    1.918794
      6          1           0        1.314571   -0.097700   -1.789145
      7          6           0        2.383885    0.277624   -0.021135
      8          6           0        1.309005   -0.124044    2.060211
      9          1           0        3.351287    0.461916   -0.473292
     10          8           0        2.407213    0.461070    1.312577
     11          1           0        1.303297    0.395891    3.015767
     12          1           0        1.560322   -1.178764    2.247326
 ---------------------------------------------------------------------
                    Distance matrix (angstroms):
                    1          2          3          4          5
     1  C    0.000000
     2  C    1.335486   0.000000
     3  C    1.455723   2.410186   0.000000
     4  H    1.083011   2.108399   2.201162   0.000000
     5  H    2.124151   1.081894   3.416789   2.476298   0.000000
     6  H    2.222315   3.391307   1.080820   2.562197   4.326529
     7  C    2.400089   2.756883   1.341747   3.358910   3.826444
     8  C    2.444044   1.501368   2.777001   3.447414   2.230495
     9  H    3.415918   3.836166   2.146658   4.295363   4.900447
    10  O    2.780309   2.451078   2.369512   3.841248   3.392353
    11  H    3.309103   2.163020   3.750605   4.223743   2.489331
    12  H    2.979021   2.157671   3.200364   3.951504   2.787908
                    6          7          8          9         10
     6  H    0.000000
     7  C    2.100038   0.000000
     8  C    3.849451   2.376701   0.000000
     9  H    2.488544   1.083641   3.306494   0.000000
    10  O    3.335681   1.346471   1.451681   2.020051   0.000000
    11  H    4.830211   3.225590   1.087866   4.046252   2.030698
    12  H    4.185952   2.818729   1.100276   3.647074   2.068825
                   11         12
    11  H    0.000000
    12  H    1.770905   0.000000
 Symmetry turned off by external request.
 Stoichiometry    C5H6O
 Framework group  C1[X(C5H6O)]
 Deg. of freedom    30
 Full point group                 C1      NOp   1
 Rotational constants (GHZ):           5.5634157           5.3719787           2.8405479
 Standard basis: def2TZVP (5D, 7F)
 The following finite field(s) will be applied:
 An electric field of              0.0031 -0.0022 -0.0065
   222 basis functions,   354 primitive gaussians,   252 cartesian basis functions
    22 alpha electrons       22 beta electrons
       nuclear repulsion energy       223.3872802240 Hartrees.
 NAtoms=   12 NActive=   12 NUniq=   12 SFac= 1.00D+00 NAtFMM=   60 NAOKFM=F Big=F
 Integral buffers will be    131072 words long.
 Raffenetti 2 integral format.
 Two-electron integral symmetry is turned off.
 One-electron integrals computed using PRISM.
   1 Symmetry operations used in ECPInt.
 ECPInt:  NShTT=    4095 NPrTT=   12396 LenC2=    4075 LenP2D=   10419.
 LDataN:  DoStor=T MaxTD1= 6 Len=  172
 NBasis=   222 RedAO= T EigKep=  9.53D-05  NBF=   222
 NBsUse=   222 1.00D-06 EigRej= -1.00D+00 NBFU=   222
 The nuclear repulsion energy is now       223.3128115946 hartrees.
 Initial guess from the checkpoint file:  "checkpoint.chk"
 B after Tr=    -0.000209    0.000317    0.000152
         Rot=    1.000000    0.000448   -0.000056    0.000404 Ang=   0.07 deg.
 Keep R1 ints in memory in canonical form, NReq=319363885.
 Requested convergence on RMS density matrix=1.00D-08 within 128 cycles.
 Requested convergence on MAX density matrix=1.00D-06.
 Requested convergence on             energy=1.00D-06.
 No special actions if energy rises.
 SCF Done:  E(RB3LYP) =  -269.424856304     A.U. after    8 cycles
            NFock=  8  Conv=0.53D-08     -V/T= 2.0050
   1 Symmetry operations used in ECPInt.
 ECPInt:  NShTT=    4095 NPrTT=   12396 LenC2=    4075 LenP2D=   10419.
 LDataN:  DoStor=T MaxTD1= 7 Len=  274
 Calling FoFJK, ICntrl=      2127 FMM=F ISym2X=0 I1Cent= 0 IOpClX= 0 NMat=1 NMatS=1 NMatT=0.
 -------------------------------------------------------------------
 Center     Atomic                   Forces (Hartrees/Bohr)
 Number     Number              X              Y              Z
 -------------------------------------------------------------------
      1        6          -0.000588879    0.000368274    0.000043939
      2        6           0.000651806    0.000410689   -0.000061879
      3        6          -0.000015758   -0.000538239   -0.000023848
      4        1          -0.000002053   -0.000075763   -0.000010475
      5        1          -0.000005162   -0.000093353    0.000010382
      6        1          -0.000003627   -0.000051953    0.000018022
      7        6          -0.000065698    0.000108509   -0.000067946
      8        6          -0.000028036   -0.000014369   -0.000110275
      9        1          -0.000007680   -0.000014629    0.000052646
     10        8           0.000046189   -0.000124485    0.000078249
     11        1          -0.000013791    0.000008585    0.000016233
     12        1           0.000032690    0.000016734    0.000054952
 -------------------------------------------------------------------
 Cartesian Forces:  Max     0.000651806 RMS     0.000201073
 -----------------------------------------------------------------------------------------------
                       Internal Coordinate Forces (Hartree/Bohr or radian)
  Cent   Atom   N1       Length/X         N2         Alpha/Y        N3         Beta/Z          J
 -----------------------------------------------------------------------------------------------
      1  C 
      2  C        1  -0.000091(     1)
      3  C        1  -0.000069(     2)      2  -0.000213(    12)
      4  H        1   0.000002(     3)      2   0.000023(    13)      3  -0.000133(    22)     0
      5  H        2   0.000003(     4)      1   0.000021(    14)      3   0.000272(    23)     0
      6  H        3  -0.000013(     5)      1  -0.000012(    15)      2   0.000320(    24)     0
      7  C        3   0.000004(     6)      1  -0.000170(    16)      6   0.000413(    25)     0
      8  C        2  -0.000028(     7)      1  -0.000033(    17)      5   0.000112(    26)     0
      9  H        7  -0.000031(     8)      3   0.000088(    18)      1   0.000269(    27)     0
     10  O        7   0.000061(     9)      3   0.000058(    19)      9   0.000296(    28)     0
     11  H        8   0.000018(    10)      2  -0.000026(    20)      1  -0.000055(    29)     0
     12  H        8   0.000001(    11)      2   0.000119(    21)     11  -0.000064(    30)     0
 -----------------------------------------------------------------------------------------------
 Internal  Forces:  Max     0.000412840 RMS     0.000148982

 GradGradGradGradGradGradGradGradGradGradGradGradGradGradGradGradGradGrad
 Berny optimization.
 Search for a local minimum.
 Step number   4 out of a maximum of   40
 All quantities printed in internal units (Hartrees-Bohrs-Radians)
 Update second derivatives using D2CorN and points    1    2    3    4
 DE= -2.41D-06 DEPred=-1.57D-06 R= 1.53D+00
 TightC=F SS=  1.41D+00  RLast= 6.94D-03 DXNew= 1.6818D-01 2.0826D-02
 Trust test= 1.53D+00 RLast= 6.94D-03 DXMaxT set to 1.00D-01
 ITU=  1  1  1  0
     Eigenvalues ---    0.02261   0.03680   0.04694   0.06298   0.07017
     Eigenvalues ---    0.12671   0.16212   0.18266   0.19882   0.21743
     Eigenvalues ---    0.27141   0.30878   0.32936   0.33563   0.34624
     Eigenvalues ---    0.35018   0.35552   0.35635   0.35770   0.35930
     Eigenvalues ---    0.38938   0.41089   0.51715   0.53510   0.56033
     Eigenvalues ---    0.56823   0.59099   1.96923   4.31048  22.54578
 RFO step:  Lambda=-1.14843340D-06 EMin= 2.26139317D-02
 Quartic linear search produced a step of  0.55001.
 Variable       Old X    -DE/DX   Delta X   Delta X   Delta X     New X
                                 (Linear)    (Quad)   (Total)
    R2        2.52370  -0.00009  -0.00004  -0.00015  -0.00019   2.52351
    R3        2.75092  -0.00007   0.00011  -0.00018  -0.00007   2.75085
    R4        2.04659   0.00000  -0.00000   0.00001   0.00001   2.04660
    R5        2.04448   0.00000   0.00004  -0.00001   0.00003   2.04452
    R6        2.04245  -0.00001  -0.00008   0.00004  -0.00004   2.04241
    R7        2.53553   0.00000  -0.00008   0.00006  -0.00002   2.53551
    R8        2.83718  -0.00003  -0.00016   0.00006  -0.00010   2.83707
    R9        2.04778  -0.00003   0.00004  -0.00011  -0.00007   2.04771
   R10        2.54446   0.00006  -0.00027   0.00004  -0.00023   2.54423
   R11        2.05577   0.00002   0.00012  -0.00001   0.00010   2.05587
   R12        2.07922   0.00000  -0.00012   0.00003  -0.00009   2.07913
    A3        2.08322  -0.00021   0.00029  -0.00021   0.00007   2.08329
    A4        2.11147   0.00002  -0.00028   0.00022  -0.00006   2.11141
    A5        2.14023   0.00002  -0.00010  -0.00022  -0.00032   2.13991
    A6        2.12326  -0.00001   0.00011  -0.00005   0.00005   2.12332
    A7        2.06154  -0.00017  -0.00001  -0.00008  -0.00009   2.06144
    A8        2.07454  -0.00003   0.00063   0.00052   0.00115   2.07569
    A9        2.16731   0.00009  -0.00024   0.00028   0.00003   2.16735
   A10        2.15782   0.00006   0.00019   0.00057   0.00076   2.15858
   A11        1.96053  -0.00003  -0.00046  -0.00015  -0.00060   1.95992
   A12        1.93953   0.00012   0.00022   0.00060   0.00081   1.94035
    D4       -3.06256  -0.00013  -0.00053  -0.00162  -0.00215  -3.06471
    D5        3.05944   0.00027   0.00057   0.00135   0.00192   3.06136
    D6        3.03520   0.00032   0.00069  -0.00032   0.00037   3.03557
    D7        3.01118   0.00041  -0.00006   0.00094   0.00088   3.01206
    D8        3.12927   0.00011   0.00046  -0.00103  -0.00057   3.12870
    D9       -2.96179   0.00027  -0.00042  -0.00126  -0.00168  -2.96347
   D10        3.04847   0.00030   0.00068   0.00098   0.00166   3.05013
   D11        2.60193  -0.00006  -0.00339  -0.00220  -0.00559   2.59634
   D12        2.11526  -0.00006  -0.00026   0.00001  -0.00025   2.11501
         Item               Value     Threshold  Converged?
 Maximum Force            0.000413     0.000450     YES
 RMS     Force            0.000149     0.000300     YES
 Maximum Displacement     0.005590     0.001800     NO 
 RMS     Displacement     0.001286     0.001200     NO 
 Predicted change in Energy=-7.957001D-07
 GradGradGradGradGradGradGradGradGradGradGradGradGradGradGradGradGradGrad

 ---------------------------------------------------------------------------------------------------
                            Z-MATRIX (ANGSTROMS AND DEGREES)
   CD    Cent   Atom    N1       Length/X        N2       Alpha/Y        N3        Beta/Z          J
 ---------------------------------------------------------------------------------------------------
      1      1  C 
      2      2  C        1   1.335385(     1)
      3      3  C        1   1.455685(     2)      2  119.364(    12)
      4      4  H        1   1.083015(     3)      2  120.975(    13)      3 -175.595(    22)      0
      5      5  H        2   1.081911(     4)      1  122.608(    14)      3  175.403(    23)      0
      6      6  H        3   1.080799(     5)      1  121.657(    15)      2  173.925(    24)      0
      7      7  C        3   1.341736(     6)      1  118.112(    16)      6  172.578(    25)      0
      8      8  C        2   1.501315(     7)      1  118.928(    17)      5  179.261(    26)      0
      9      9  H        7   1.083603(     8)      3  124.180(    18)      1 -169.794(    27)      0
     10     10  O        7   1.346351(     9)      3  123.677(    19)      9  174.759(    28)      0
     11     11  H        8   1.087921(    10)      2  112.295(    20)      1  148.759(    29)      0
     12     12  H        8   1.100227(    11)      2  111.174(    21)     11  121.181(    30)      0
 ---------------------------------------------------------------------------------------------------
                         Z-Matrix orientation:                         
 ---------------------------------------------------------------------
 Center     Atomic      Atomic             Coordinates (Angstroms)
 Number     Number       Type             X           Y           Z
 ---------------------------------------------------------------------
      1          6           0        0.000000    0.000000    0.000000
      2          6           0        0.000000    0.000000    1.335385
      3          6           0        1.268664    0.000000   -0.713800
      4          1           0       -0.925828    0.071321   -0.557384
      5          1           0       -0.908447    0.073047    1.918411
      6          1           0        1.314443   -0.097355   -1.789231
      7          6           0        2.383943    0.276199   -0.020892
      8          6           0        1.308295   -0.122196    2.061593
      9          1           0        3.351759    0.458941   -0.472703
     10          8           0        2.408361    0.458336    1.312858
     11          1           0        1.302021    0.402713    3.014485
     12          1           0        1.558681   -1.175996    2.254753
 ---------------------------------------------------------------------
                    Distance matrix (angstroms):
                    1          2          3          4          5
     1  C    0.000000
     2  C    1.335385   0.000000
     3  C    1.455685   2.410117   0.000000
     4  H    1.083015   2.108274   2.201215   0.000000
     5  H    2.123891   1.081911   3.416677   2.475856   0.000000
     6  H    2.222293   3.391234   1.080799   2.562170   4.326302
     7  C    2.399981   2.756621   1.341736   3.359224   3.826487
     8  C    2.444736   1.501315   2.778365   3.447869   2.229926
     9  H    3.415899   3.835896   2.146635   4.295948   4.900581
    10  O    2.780984   2.451690   2.369879   3.842448   3.393576
    11  H    3.308256   2.162595   3.750120   4.222722   2.489222
    12  H    2.982677   2.158168   3.206148   3.954327   2.785670
                    6          7          8          9         10
     6  H    0.000000
     7  C    2.100094   0.000000
     8  C    3.850910   2.377495   0.000000
     9  H    2.488648   1.083603   3.306981   0.000000
    10  O    3.335927   1.346351   1.451815   2.019462   0.000000
    11  H    4.829691   3.224915   1.087921   4.045376   2.030423
    12  H    4.192485   2.822852   1.100227   3.650639   2.068856
                   11         12
    11  H    0.000000
    12  H    1.770704   0.000000
 Symmetry turned off by external request.
 Stoichiometry    C5H6O
 Framework group  C1[X(C5H6O)]
 Deg. of freedom    30
 Full point group                 C1      NOp   1
 Rotational constants (GHZ):           5.5624828           5.3715142           2.8391061
 Standard basis: def2TZVP (5D, 7F)
 The following finite field(s) will be applied:
 An electric field of              0.0031 -0.0022 -0.0065
   222 basis functions,   354 primitive gaussians,   252 cartesian basis functions
    22 alpha electrons       22 beta electrons
       nuclear repulsion energy       223.3715612469 Hartrees.
 NAtoms=   12 NActive=   12 NUniq=   12 SFac= 1.00D+00 NAtFMM=   60 NAOKFM=F Big=F
 Integral buffers will be    131072 words long.
 Raffenetti 2 integral format.
 Two-electron integral symmetry is turned off.
 One-electron integrals computed using PRISM.
   1 Symmetry operations used in ECPInt.
 ECPInt:  NShTT=    4095 NPrTT=   12396 LenC2=    4075 LenP2D=   10417.
 LDataN:  DoStor=T MaxTD1= 6 Len=  172
 NBasis=   222 RedAO= T EigKep=  9.51D-05  NBF=   222
 NBsUse=   222 1.00D-06 EigRej= -1.00D+00 NBFU=   222
 The nuclear repulsion energy is now       223.2969570520 hartrees.
 Initial guess from the checkpoint file:  "checkpoint.chk"
 B after Tr=     0.000191   -0.000079    0.000443
         Rot=    1.000000    0.000373    0.000093    0.000340 Ang=   0.06 deg.
 Keep R1 ints in memory in canonical form, NReq=319363885.
 Requested convergence on RMS density matrix=1.00D-08 within 128 cycles.
 Requested convergence on MAX density matrix=1.00D-06.
 Requested convergence on             energy=1.00D-06.
 No special actions if energy rises.
 SCF Done:  E(RB3LYP) =  -269.424857307     A.U. after    8 cycles
            NFock=  8  Conv=0.75D-08     -V/T= 2.0050
   1 Symmetry operations used in ECPInt.
 ECPInt:  NShTT=    4095 NPrTT=   12396 LenC2=    4075 LenP2D=   10417.
 LDataN:  DoStor=T MaxTD1= 7 Len=  274
 Calling FoFJK, ICntrl=      2127 FMM=F ISym2X=0 I1Cent= 0 IOpClX= 0 NMat=1 NMatS=1 NMatT=0.
 -------------------------------------------------------------------
 Center     Atomic                   Forces (Hartrees/Bohr)
 Number     Number              X              Y              Z
 -------------------------------------------------------------------
      1        6          -0.000595120    0.000241233    0.000009504
      2        6           0.000593612    0.000382844    0.000003879
      3        6           0.000043558   -0.000462164    0.000029001
      4        1           0.000003857   -0.000034870    0.000001160
      5        1          -0.000002916   -0.000066277    0.000015922
      6        1           0.000005916   -0.000031504    0.000012494
      7        6           0.000011356   -0.000007546   -0.000152510
      8        6           0.000052748    0.000084951   -0.000049281
      9        1           0.000003832   -0.000005031   -0.000000581
     10        8          -0.000061753   -0.000054146    0.000065004
     11        1          -0.000038497   -0.000040115    0.000046855
     12        1          -0.000016593   -0.000007374    0.000018554
 -------------------------------------------------------------------
 Cartesian Forces:  Max     0.000595120 RMS     0.000181633
 -----------------------------------------------------------------------------------------------
                       Internal Coordinate Forces (Hartree/Bohr or radian)
  Cent   Atom   N1       Length/X         N2         Alpha/Y        N3         Beta/Z          J
 -----------------------------------------------------------------------------------------------
      1  C 
      2  C        1   0.000036(     1)
      3  C        1   0.000025(     2)      2   0.000059(    12)
      4  H        1  -0.000006(     3)      2   0.000005(    13)      3  -0.000060(    22)     0
      5  H        2   0.000007(     4)      1   0.000030(    14)      3   0.000208(    23)     0
      6  H        3  -0.000009(     5)      1   0.000009(    15)      2   0.000167(    24)     0
      7  C        3  -0.000098(     6)      1  -0.000036(    16)      6   0.000224(    25)     0
      8  C        2   0.000003(     7)      1   0.000123(    17)      5   0.000094(    26)     0
      9  H        7   0.000003(     8)      3   0.000001(    18)      1   0.000099(    27)     0
     10  O        7   0.000056(     9)      3  -0.000183(    19)      9   0.000109(    28)     0
     11  H        8   0.000022(    10)      2  -0.000035(    20)      1   0.000081(    29)     0
     12  H        8   0.000007(    11)      2  -0.000016(    21)     11  -0.000046(    30)     0
 -----------------------------------------------------------------------------------------------
 Internal  Forces:  Max     0.000223591 RMS     0.000088629

 GradGradGradGradGradGradGradGradGradGradGradGradGradGradGradGradGradGrad
 Berny optimization.
 Search for a local minimum.
 Step number   5 out of a maximum of   40
 All quantities printed in internal units (Hartrees-Bohrs-Radians)
 Update second derivatives using D2CorN and points    1    2    3    4    5

 DE= -1.00D-06 DEPred=-7.96D-07 R= 1.26D+00
 TightC=F SS=  1.41D+00  RLast= 7.04D-03 DXNew= 1.6818D-01 2.1131D-02
 Trust test= 1.26D+00 RLast= 7.04D-03 DXMaxT set to 1.00D-01
 ITU=  1  1  1  1  0
     Eigenvalues ---    0.02019   0.03863   0.04713   0.06250   0.07005
     Eigenvalues ---    0.12653   0.16194   0.18230   0.19885   0.21746
     Eigenvalues ---    0.27141   0.30875   0.32931   0.33564   0.34625
     Eigenvalues ---    0.35018   0.35550   0.35635   0.35770   0.35932
     Eigenvalues ---    0.38930   0.40903   0.51710   0.53552   0.56019
     Eigenvalues ---    0.56828   0.59084   1.96937   4.30860  22.54572
 RFO step:  Lambda=-3.61462750D-07 EMin= 2.01867445D-02
 Quartic linear search produced a step of  0.21086.
 Variable       Old X    -DE/DX   Delta X   Delta X   Delta X     New X
                                 (Linear)    (Quad)   (Total)
    R2        2.52351   0.00004  -0.00004   0.00003  -0.00001   2.52350
    R3        2.75085   0.00003  -0.00002   0.00011   0.00009   2.75094
    R4        2.04660  -0.00001   0.00000  -0.00002  -0.00002   2.04658
    R5        2.04452   0.00001   0.00001   0.00002   0.00002   2.04454
    R6        2.04241  -0.00001  -0.00001  -0.00002  -0.00003   2.04239
    R7        2.53551  -0.00010  -0.00000  -0.00013  -0.00013   2.53538
    R8        2.83707   0.00000  -0.00002  -0.00007  -0.00009   2.83698
    R9        2.04771   0.00000  -0.00002   0.00003   0.00001   2.04773
   R10        2.54423   0.00006  -0.00005   0.00021   0.00017   2.54440
   R11        2.05587   0.00002   0.00002   0.00006   0.00009   2.05596
   R12        2.07913   0.00001  -0.00002   0.00003   0.00001   2.07913
    A3        2.08329   0.00006   0.00002   0.00010   0.00012   2.08341
    A4        2.11141   0.00000  -0.00001  -0.00003  -0.00005   2.11136
    A5        2.13991   0.00003  -0.00007   0.00007  -0.00000   2.13991
    A6        2.12332   0.00001   0.00001   0.00001   0.00002   2.12334
    A7        2.06144  -0.00004  -0.00002   0.00013   0.00011   2.06155
    A8        2.07569   0.00012   0.00024  -0.00000   0.00024   2.07593
    A9        2.16735   0.00000   0.00001   0.00009   0.00009   2.16744
   A10        2.15858  -0.00018   0.00016  -0.00029  -0.00013   2.15845
   A11        1.95992  -0.00004  -0.00013  -0.00004  -0.00016   1.95976
   A12        1.94035  -0.00002   0.00017  -0.00037  -0.00020   1.94015
    D4       -3.06471  -0.00006  -0.00045  -0.00083  -0.00128  -3.06599
    D5        3.06136   0.00021   0.00040   0.00109   0.00150   3.06286
    D6        3.03557   0.00017   0.00008  -0.00056  -0.00049   3.03509
    D7        3.01206   0.00022   0.00018   0.00071   0.00090   3.01295
    D8        3.12870   0.00009  -0.00012  -0.00062  -0.00074   3.12795
    D9       -2.96347   0.00010  -0.00035  -0.00073  -0.00109  -2.96455
   D10        3.05013   0.00011   0.00035   0.00010   0.00045   3.05058
   D11        2.59634   0.00008  -0.00118  -0.00004  -0.00122   2.59513
   D12        2.11501  -0.00005  -0.00005  -0.00051  -0.00057   2.11444
         Item               Value     Threshold  Converged?
 Maximum Force            0.000224     0.000450     YES
 RMS     Force            0.000089     0.000300     YES
 Maximum Displacement     0.001499     0.001800     YES
 RMS     Displacement     0.000545     0.001200     YES
 Predicted change in Energy=-1.880551D-07
 Optimization completed.
    -- Stationary point found.
                       ----------------------------
                       !   Optimized Parameters   !
                       ! (Angstroms and Degrees)  !
 ----------------------                            ----------------------
 !      Name          Value   Derivative information (Atomic Units)     !
 ------------------------------------------------------------------------
 !       R2          1.3354   -DE/DX =    0.0                           !
 !       R3          1.4557   -DE/DX =    0.0                           !
 !       R4          1.083    -DE/DX =    0.0                           !
 !       R5          1.0819   -DE/DX =    0.0                           !
 !       R6          1.0808   -DE/DX =    0.0                           !
 !       R7          1.3417   -DE/DX =   -0.0001                        !
 !       R8          1.5013   -DE/DX =    0.0                           !
 !       R9          1.0836   -DE/DX =    0.0                           !
 !       R10         1.3464   -DE/DX =    0.0001                        !
 !       R11         1.0879   -DE/DX =    0.0                           !
 !       R12         1.1002   -DE/DX =    0.0                           !
 !       A3        119.3638   -DE/DX =    0.0001                        !
 !       A4        120.9747   -DE/DX =    0.0                           !
 !       A5        122.6078   -DE/DX =    0.0                           !
 !       A6        121.657    -DE/DX =    0.0                           !
 !       A7        118.1121   -DE/DX =    0.0                           !
 !       A8        118.9283   -DE/DX =    0.0001                        !
 !       A9        124.1799   -DE/DX =    0.0                           !
 !       A10       123.6774   -DE/DX =   -0.0002                        !
 !       A11       112.2954   -DE/DX =    0.0                           !
 !       A12       111.1738   -DE/DX =    0.0                           !
 !       D4       -175.5949   -DE/DX =   -0.0001                        !
 !       D5        175.4028   -DE/DX =    0.0002                        !
 !       D6        173.9255   -DE/DX =    0.0002                        !
 !       D7        172.5781   -DE/DX =    0.0002                        !
 !       D8        179.2612   -DE/DX =    0.0001                        !
 !       D9       -169.7942   -DE/DX =    0.0001                        !
 !       D10       174.7595   -DE/DX =    0.0001                        !
 !       D11       148.7593   -DE/DX =    0.0001                        !
 !       D12       121.1812   -DE/DX =    0.0                           !
 ------------------------------------------------------------------------
 GradGradGradGradGradGradGradGradGradGradGradGradGradGradGradGradGradGrad

 ---------------------------------------------------------------------------------------------------
                            Z-MATRIX (ANGSTROMS AND DEGREES)
   CD    Cent   Atom    N1       Length/X        N2       Alpha/Y        N3        Beta/Z          J
 ---------------------------------------------------------------------------------------------------
      1      1  C 
      2      2  C        1   1.335385(     1)
      3      3  C        1   1.455685(     2)      2  119.364(    12)
      4      4  H        1   1.083015(     3)      2  120.975(    13)      3 -175.595(    22)      0
      5      5  H        2   1.081911(     4)      1  122.608(    14)      3  175.403(    23)      0
      6      6  H        3   1.080799(     5)      1  121.657(    15)      2  173.925(    24)      0
      7      7  C        3   1.341736(     6)      1  118.112(    16)      6  172.578(    25)      0
      8      8  C        2   1.501315(     7)      1  118.928(    17)      5  179.261(    26)      0
      9      9  H        7   1.083603(     8)      3  124.180(    18)      1 -169.794(    27)      0
     10     10  O        7   1.346351(     9)      3  123.677(    19)      9  174.759(    28)      0
     11     11  H        8   1.087921(    10)      2  112.295(    20)      1  148.759(    29)      0
     12     12  H        8   1.100227(    11)      2  111.174(    21)     11  121.181(    30)      0
 ---------------------------------------------------------------------------------------------------
                         Z-Matrix orientation:                         
 ---------------------------------------------------------------------
 Center     Atomic      Atomic             Coordinates (Angstroms)
 Number     Number       Type             X           Y           Z
 ---------------------------------------------------------------------
      1          6           0        0.000000    0.000000    0.000000
      2          6           0        0.000000    0.000000    1.335385
      3          6           0        1.268664    0.000000   -0.713800
      4          1           0       -0.925828    0.071321   -0.557384
      5          1           0       -0.908447    0.073047    1.918411
      6          1           0        1.314443   -0.097355   -1.789231
      7          6           0        2.383943    0.276199   -0.020892
      8          6           0        1.308295   -0.122196    2.061593
      9          1           0        3.351759    0.458941   -0.472703
     10          8           0        2.408361    0.458336    1.312858
     11          1           0        1.302021    0.402713    3.014485
     12          1           0        1.558681   -1.175996    2.254753
 ---------------------------------------------------------------------
                    Distance matrix (angstroms):
                    1          2          3          4          5
     1  C    0.000000
     2  C    1.335385   0.000000
     3  C    1.455685   2.410117   0.000000
     4  H    1.083015   2.108274   2.201215   0.000000
     5  H    2.123891   1.081911   3.416677   2.475856   0.000000
     6  H    2.222293   3.391234   1.080799   2.562170   4.326302
     7  C    2.399981   2.756621   1.341736   3.359224   3.826487
     8  C    2.444736   1.501315   2.778365   3.447869   2.229926
     9  H    3.415899   3.835896   2.146635   4.295948   4.900581
    10  O    2.780984   2.451690   2.369879   3.842448   3.393576
    11  H    3.308256   2.162595   3.750120   4.222722   2.489222
    12  H    2.982677   2.158168   3.206148   3.954327   2.785670
                    6          7          8          9         10
     6  H    0.000000
     7  C    2.100094   0.000000
     8  C    3.850910   2.377495   0.000000
     9  H    2.488648   1.083603   3.306981   0.000000
    10  O    3.335927   1.346351   1.451815   2.019462   0.000000
    11  H    4.829691   3.224915   1.087921   4.045376   2.030423
    12  H    4.192485   2.822852   1.100227   3.650639   2.068856
                   11         12
    11  H    0.000000
    12  H    1.770704   0.000000
 Symmetry turned off by external request.
 Stoichiometry    C5H6O
 Framework group  C1[X(C5H6O)]
 Deg. of freedom    30
 Full point group                 C1      NOp   1
 Rotational constants (GHZ):           5.5624828           5.3715142           2.8391061
 1\1\GINC-BHC0069\FOpt\RB3LYP\def2TZVP\C5H6O1\DHANAWAY\10-Jun-2022\1\\#
  Opt=(Z-matrix, MaxStep=10) B3LYP/Def2TZVP geom=allcheckpoint guess=re
 ad Field=read NoSymm freq=noraman pop=none\\int_zmat_initalOpt\\0,1\C\
 C,1,R2\C,1,R3,2,A3\H,1,R4,2,A4,3,D4,0\H,2,R5,1,A5,3,D5,0\H,3,R6,1,A6,2
 ,D6,0\C,3,R7,1,A7,6,D7,0\C,2,R8,1,A8,5,D8,0\H,7,R9,3,A9,1,D9,0\O,7,R10
 ,3,A10,9,D10,0\H,8,R11,2,A11,1,D11,0\H,8,R12,2,A12,11,D12,0\\R2=1.3353
 8504\R3=1.45568456\R4=1.08301487\R5=1.08191077\R6=1.08079896\R7=1.3417
 3598\R8=1.50131526\R9=1.08360271\R10=1.34635075\R11=1.08792095\R12=1.1
 0022676\A3=119.36381108\A4=120.97468021\A5=122.60779217\A6=121.6570219
 \A7=118.11207055\A8=118.92830566\A9=124.17986978\A10=123.67742665\A11=
 112.29535337\A12=111.17377638\D4=-175.59491969\D5=175.40278472\D6=173.
 92545826\D7=172.57809138\D8=179.261226\D9=-169.79416938\D10=174.759454
 37\D11=148.75934304\D12=121.18120999\\Version=ES64L-G16RevA.03\HF=-269
 .4248573\RMSD=7.495e-09\RMSF=1.816e-04\Dipole=-0.4545169,-0.0600397,0.
 4847044\PG=C01 [X(C5H6O1)]\\@


 THE MOST INCOMPREHENSIBLE THING ABOUT THE WORLD
 IS THAT IT IS COMPREHENSIBLE. -- A. EINSTEIN
 Job cpu time:       0 days  0 hours 21 minutes 38.4 seconds.
 Elapsed time:       0 days  0 hours  2 minutes 18.6 seconds.
 File lengths (MBytes):  RWF=     24 Int=      0 D2E=      0 Chk=     32 Scr=      1
 Normal termination of Gaussian 16 at Fri Jun 10 11:42:25 2022.
 Link1:  Proceeding to internal job step number  2.
 --------------------------------------------------------------------
 #N Geom=AllCheck Guess=TCheck SCRF=Check GenChk RB3LYP/def2TZVP Freq
 --------------------------------------------------------------------
 1/8=10,10=4,29=7,30=1,38=1,40=1/1,3;
 2/12=2,15=1,40=1/2;
 3/5=44,7=101,11=2,14=-4,25=1,30=1,70=2,71=2,74=-5,116=1,140=1/1,2,3;
 4/5=101/1;
[...]
     Eigenvalues ---    0.09224   0.12472   0.14989   0.16335   0.17397
     Eigenvalues ---    0.18836   0.22995   0.25240   0.27390   0.30681
     Eigenvalues ---    0.31286   0.32791   0.34519   0.34860   0.35327
     Eigenvalues ---    0.35858   0.36139   0.39528   0.43209   0.54154
     Eigenvalues ---    0.55654   0.58887   1.96418   4.17092  16.29069
 Angle between quadratic step and forces=  73.17 degrees.
 Linear search not attempted -- first point.
 Variable       Old X    -DE/DX   Delta X   Delta X   Delta X     New X
                                 (Linear)    (Quad)   (Total)
    R2        2.52351   0.00004   0.00000  -0.00005  -0.00005   2.52346
    R3        2.75085   0.00003   0.00000   0.00012   0.00012   2.75096
    R4        2.04660  -0.00001   0.00000  -0.00003  -0.00003   2.04657
    R5        2.04452   0.00001   0.00000   0.00004   0.00004   2.04455
    R6        2.04241  -0.00001   0.00000  -0.00002  -0.00002   2.04239
    R7        2.53551  -0.00010   0.00000  -0.00020  -0.00020   2.53531
    R8        2.83707   0.00000   0.00000  -0.00007  -0.00007   2.83700
    R9        2.04771   0.00000   0.00000  -0.00002  -0.00002   2.04769
   R10        2.54423   0.00006   0.00000   0.00038   0.00038   2.54461
   R11        2.05587   0.00002   0.00000   0.00011   0.00011   2.05599
   R12        2.07913   0.00001   0.00000   0.00009   0.00009   2.07922
    A3        2.08329   0.00006   0.00000   0.00001   0.00001   2.08330
    A4        2.11141   0.00000   0.00000   0.00005   0.00005   2.11145
    A5        2.13991   0.00003   0.00000   0.00007   0.00007   2.13998
    A6        2.12332   0.00001   0.00000  -0.00006  -0.00006   2.12326
    A7        2.06144  -0.00004   0.00000   0.00024   0.00024   2.06168
    A8        2.07569   0.00012   0.00000   0.00031   0.00031   2.07600
    A9        2.16735   0.00000   0.00000   0.00025   0.00025   2.16759
   A10        2.15858  -0.00018   0.00000  -0.00018  -0.00018   2.15840
   A11        1.95992  -0.00004   0.00000  -0.00018  -0.00018   1.95975
   A12        1.94035  -0.00002   0.00000  -0.00039  -0.00039   1.93996
    D4       -3.06471  -0.00006   0.00000  -0.00200  -0.00200  -3.06671
    D5        3.06136   0.00021   0.00000   0.00291   0.00291   3.06427
    D6        3.03557   0.00017   0.00000  -0.00122  -0.00122   3.03435
    D7        3.01206   0.00022   0.00000   0.00212   0.00212   3.01418
    D8        3.12870   0.00009   0.00000  -0.00230  -0.00230   3.12640
    D9       -2.96347   0.00010   0.00000  -0.00159  -0.00159  -2.96506
   D10        3.05013   0.00011   0.00000   0.00044   0.00044   3.05056
   D11        2.59634   0.00008   0.00000  -0.00103  -0.00103   2.59531
   D12        2.11501  -0.00005   0.00000  -0.00113  -0.00113   2.11388
         Item               Value     Threshold  Converged?
 Maximum Force            0.000224     0.000450     YES
 RMS     Force            0.000089     0.000300     YES
 Maximum Displacement     0.002909     0.001800     NO 
 RMS     Displacement     0.000991     0.001200     YES
 Predicted change in Energy=-3.814765D-07
                       ----------------------------
                       ! Non-Optimized Parameters !
                       ! (Angstroms and Degrees)  !
 ----------------------                            ----------------------
 !      Name          Value   Derivative information (Atomic Units)     !
 ------------------------------------------------------------------------
 !       R2          1.3354   -DE/DX =    0.0                           !
 !       R3          1.4557   -DE/DX =    0.0                           !
 !       R4          1.083    -DE/DX =    0.0                           !
 !       R5          1.0819   -DE/DX =    0.0                           !
 !       R6          1.0808   -DE/DX =    0.0                           !
 !       R7          1.3416   -DE/DX =   -0.0001                        !
 !       R8          1.5013   -DE/DX =    0.0                           !
 !       R9          1.0836   -DE/DX =    0.0                           !
 !       R10         1.3466   -DE/DX =    0.0001                        !
 !       R11         1.088    -DE/DX =    0.0                           !
 !       R12         1.1003   -DE/DX =    0.0                           !
 !       A3        119.3644   -DE/DX =    0.0001                        !
 !       A4        120.9773   -DE/DX =    0.0                           !
 !       A5        122.6119   -DE/DX =    0.0                           !
 !       A6        121.6538   -DE/DX =    0.0                           !
 !       A7        118.1257   -DE/DX =    0.0                           !
 !       A8        118.9462   -DE/DX =    0.0001                        !
 !       A9        124.194    -DE/DX =    0.0                           !
 !       A10       123.6674   -DE/DX =   -0.0002                        !
 !       A11       112.2853   -DE/DX =    0.0                           !
 !       A12       111.1517   -DE/DX =    0.0                           !
 !       D4       -175.7095   -DE/DX =   -0.0001                        !
 !       D5        175.5695   -DE/DX =    0.0002                        !
 !       D6        173.8556   -DE/DX =    0.0002                        !
 !       D7        172.6998   -DE/DX =    0.0002                        !
 !       D8        179.1295   -DE/DX =    0.0001                        !
 !       D9       -169.8852   -DE/DX =    0.0001                        !
 !       D10       174.7845   -DE/DX =    0.0001                        !
 !       D11       148.7003   -DE/DX =    0.0001                        !
 !       D12       121.1164   -DE/DX =    0.0                           !
 ------------------------------------------------------------------------
 GradGradGradGradGradGradGradGradGradGradGradGradGradGradGradGradGradGrad


 ----------------------------------------------------------------------

 Electric dipole moment (input orientation):
 (Debye = 10**-18 statcoulomb cm , SI units = C m)
                  (au)            (Debye)         (10**-30 SI)
   Tot        0.667175D+00      0.169579D+01      0.565654D+01
   x         -0.454512D+00     -0.115525D+01     -0.385352D+01
   y         -0.600375D-01     -0.152600D+00     -0.509019D+00
   z          0.484702D+00      0.123199D+01      0.410948D+01

 Dipole polarizability, Alpha (input orientation).
 (esu units = cm**3 , SI units = C**2 m**2 J**-1)
 Alpha(0;0):
               (au)            (10**-24 esu)      (10**-40 SI)
   iso        0.595336D+02      0.882197D+01      0.981576D+01
   aniso      0.285420D+02      0.422948D+01      0.470593D+01
   xx         0.666159D+02      0.987146D+01      0.109835D+02
   yx         0.225845D+01      0.334668D+00      0.372368D+00
   yy         0.409864D+02      0.607356D+01      0.675775D+01
   zx        -0.170746D+01     -0.253019D+00     -0.281521D+00
   zy        -0.855632D+00     -0.126792D+00     -0.141075D+00
   zz         0.709984D+02      0.105209D+02      0.117061D+02

 ----------------------------------------------------------------------

 Dipole orientation:
     6          0.00000000          0.00000000          0.00000000
     6          1.71914076          0.22708515          1.83333036
     6          0.83404633         -0.20651042         -2.61321051
     1         -2.00160905          0.10148403          0.41453579
     1          1.20956671          0.52457892          3.79084755
     1         -0.48064861         -0.57557215         -4.13203431
     6          3.24858100          0.35597770         -3.14467863
     6          4.46997776          0.03295847          1.16684455
     1          3.99194793          0.55791809         -5.04197976
     8          4.98713558          0.92372166         -1.37600050
     1          5.65281580          1.18270274          2.39387129
     1          5.13532585         -1.93304926          1.28889223

 Electric dipole moment (dipole orientation):
 (Debye = 10**-18 statcoulomb cm , SI units = C m)
                  (au)            (Debye)         (10**-30 SI)
   Tot        0.667175D+00      0.169579D+01      0.565654D+01
   x          0.000000D+00      0.000000D+00      0.000000D+00
   y          0.000000D+00      0.000000D+00      0.000000D+00
   z          0.667175D+00      0.169579D+01      0.565654D+01

 Dipole polarizability, Alpha (dipole orientation).
 (esu units = cm**3 , SI units = C**2 m**2 J**-1)
 Alpha(0;0):
               (au)            (10**-24 esu)      (10**-40 SI)
   iso        0.595336D+02      0.882197D+01      0.981576D+01
   aniso      0.285420D+02      0.422948D+01      0.470593D+01
   xx         0.668406D+02      0.990475D+01      0.110205D+02
   yx         0.217243D+01      0.321920D+00      0.358185D+00
   yy         0.409598D+02      0.606961D+01      0.675335D+01
   zx         0.195312D+01      0.289422D+00      0.322026D+00
   zy         0.594849D+00      0.881475D-01      0.980773D-01
   zz         0.708004D+02      0.104915D+02      0.116734D+02

 ----------------------------------------------------------------------
 1\1\GINC-BHC0069\Freq\RB3LYP\def2TZVP\C5H6O1\DHANAWAY\10-Jun-2022\1\\#
 N Geom=AllCheck Guess=TCheck SCRF=Check GenChk RB3LYP/def2TZVP Freq\\i
 nt_zmat_initalOpt\\0,1\C\C,1,R2\C,1,R3,2,A3\H,1,R4,2,A4,3,D4,0\H,2,R5,
 1,A5,3,D5,0\H,3,R6,1,A6,2,D6,0\C,3,R7,1,A7,6,D7,0\C,2,R8,1,A8,5,D8,0\H
 ,7,R9,3,A9,1,D9,0\O,7,R10,3,A10,9,D10,0\H,8,R11,2,A11,1,D11,0\H,8,R12,
 2,A12,11,D12,0\\R2=1.33538504\R3=1.45568456\R4=1.08301487\R5=1.0819107
 7\R6=1.08079896\R7=1.34173598\R8=1.50131526\R9=1.08360271\R10=1.346350
 75\R11=1.08792095\R12=1.10022676\A3=119.36381108\A4=120.97468021\A5=12
 2.60779217\A6=121.6570219\A7=118.11207055\A8=118.92830566\A9=124.17986
 978\A10=123.67742665\A11=112.29535337\A12=111.17377638\D4=-175.5949196
 9\D5=175.40278472\D6=173.92545826\D7=172.57809138\D8=179.261226\D9=-16
 9.79416938\D10=174.75945437\D11=148.75934304\D12=121.18120999\\Version
 =ES64L-G16RevA.03\HF=-269.4248573\RMSD=5.267e-09\RMSF=1.816e-04\ZeroPo
 int=0.0981562\Thermal=0.1031578\Dipole=-0.4545123,-0.0600375,0.4847021
 \DipoleDeriv=0.2750332,0.0079533,-0.1455935,-0.034462,-0.1392581,-0.03
 21658,-0.0291881,-0.0439968,0.0463034,-0.0843165,-0.0339395,0.0342919,
 -0.0012786,-0.2176262,-0.0048128,0.0665251,0.0462639,-0.1222188,-0.350
 6374,-0.0760026,-0.0608082,-0.1133603,-0.2900497,-0.0213919,-0.1826992
 ,0.0228836,-0.0366639,-0.0666877,0.0063538,-0.0712282,0.0261809,0.1440
 117,0.0109692,-0.069639,0.0059719,0.0106995,-0.0024085,0.0042636,0.037
 1514,0.0314335,0.1516274,-0.0165771,0.0289951,-0.001295,0.0424113,0.04
 70242,-0.0053042,0.0343985,0.0098592,0.1566687,-0.0062682,0.0328826,-0
 .0257722,-0.1465259,0.3317735,0.1290744,0.1563943,0.2261775,-0.0170748
 ,0.1749542,0.4663796,0.1815482,0.8255917,0.2641764,0.0574488,-0.162732
 2,0.0162973,0.5205297,-0.1814994,-0.0380267,-0.1443652,0.5115562,-0.08
 40674,-0.0425188,0.0948524,-0.0126445,0.1398622,-0.0123371,0.0812029,0
 .0064737,-0.0043987,-0.4076958,-0.1187532,0.162534,-0.2030046,-0.31848
 61,0.0028188,-0.365451,-0.0233654,-1.0954498,0.0565871,-0.0033927,-0.0
 004864,-0.0127016,0.0390577,-0.0596969,0.0080267,-0.0219249,-0.0440545
 ,0.0212188,0.0748171,-0.078774,0.0675034,-0.1692624,0.1460071,0.000991
 9,-0.0024218,0.0127494\Polar=66.6158805,2.2584488,40.9864084,-1.707456
 ,-0.8556319,70.9984247\PG=C01 [X(C5H6O1)]\NImag=0\\0.62796755,-0.01921
 144,0.12789113,0.06842282,-0.01183285,0.79837131,-0.11314838,0.0039195
 8,0.00076964,0.58973514,0.00051996,-0.05740134,0.00504072,-0.03873893,
 0.14174711,-0.01093059,0.00331414,-0.50586325,-0.07917828,-0.00458156,
 0.81950600,-0.20966489,0.00466991,0.04066834,-0.00083636,0.00432943,0.
 03598634,0.66441303,0.00139852,-0.05536390,0.00060971,-0.00122634,0.00
 987125,0.00158591,0.08292592,0.12466063,0.06912763,-0.00424800,-0.1384
 5405,0.03537059,-0.00164737,-0.02716287,0.07854603,0.08494092,0.732829
 28,-0.26080043,0.01688844,-0.12242203,0.00375317,0.00012865,0.00068932
 ,-0.01811107,0.00131696,-0.01485497,0.27471755,0.01908829,-0.03708151,
 0.00834677,0.00052271,0.00522954,-0.00034737,-0.00195527,0.00135065,0.
 00161549,-0.01815670,0.02564496,-0.12001531,0.00814563,-0.12892662,-0.
 03061272,0.00313193,-0.01369639,0.01493849,-0.00099067,0.01129875,0.13
 166569,-0.01050867,0.13616111,0.00464026,0.00056515,-0.00248185,-0.259
 62227,0.01697734,0.12944417,0.00226833,0.00154507,-0.00016786,0.000863
 70,-0.00070607,0.00035975,0.26982551,-0.00107734,0.00608479,0.00115262
 ,0.02062766,-0.03436331,-0.01253188,0.00193568,0.01099343,0.00060553,-
 0.00049732,-0.00722649,0.00001414,-0.01914741,0.02292846,0.02866389,-0
 .00203392,-0.01254991,0.12567718,-0.01086306,-0.13746917,-0.00184615,-
 0.00008252,-0.00442875,-0.00017331,0.00011960,0.00125889,-0.13740359,0
 .01219398,0.14368414,0.00510716,0.00225884,0.02701666,-0.00553835,0.00
 034571,0.00148250,-0.05647374,-0.00101677,0.01311198,0.00098445,-0.000
 07744,-0.00094860,0.00018393,-0.00033051,0.00137100,0.05408288,0.00027
 448,-0.00121762,0.00213556,-0.00032303,0.00130247,0.00023305,-0.002182
 97,-0.02613769,-0.02601217,-0.00015430,-0.00040888,-0.00014729,-0.0002
 3844,0.00065717,0.00013278,0.00230699,0.02330300,-0.00288719,-0.000704
 71,-0.00939374,0.00291943,-0.00034624,0.00043769,0.01017991,-0.0289222
 7,-0.33572786,0.00040802,0.00012909,0.00062303,-0.00025881,0.00012728,
 -0.00058134,-0.01186430,0.03129145,0.35670050,-0.05421134,-0.00973734,
 0.00917920,-0.00321784,-0.00234943,-0.01048756,-0.36675133,-0.07216121
 ,-0.15424480,-0.00266253,0.00093246,0.00285544,0.00019101,-0.00005454,
 -0.00060618,0.00612731,0.00222806,0.00499029,0.80978756,-0.00505202,0.
 00855054,-0.00393691,0.00372330,0.00172071,0.00091884,-0.08163417,-0.0
 7307775,-0.04069954,0.00073492,0.00137952,-0.00005225,-0.00055668,-0.0
 0122886,-0.00041981,-0.00127973,-0.00326599,-0.00030520,0.15486057,0.1
 7115147,-0.00758866,0.00161944,0.02636745,0.00574193,-0.00473129,-0.00
 813472,-0.13510721,-0.03148589,-0.19546591,0.00485930,-0.00115243,-0.0
 0277577,-0.00330272,-0.00220305,-0.00219261,-0.02819420,-0.00611892,-0
 .01461627,0.03550696,0.05133003,0.61433044,0.00720828,0.00019466,-0.01
 782537,-0.17195449,0.01938672,-0.05079330,-0.01154486,-0.00641939,-0.0
 1052845,0.00117015,0.00058043,0.00296288,-0.01328004,0.00045762,-0.011
 19339,-0.00134358,-0.00035272,-0.00005539,0.00069947,0.00867787,0.0396
 1638,0.40945823,0.00808208,0.00483094,-0.00431731,0.00953278,-0.075434
 69,0.00746993,-0.00742928,-0.00872188,-0.00344113,0.00017555,0.0118842
 5,-0.00028017,0.00115445,0.00279306,0.00083112,-0.00041398,-0.00019176
 ,-0.00037893,0.00813991,0.00167011,0.00568018,-0.03629340,0.52900349,-
 0.04032312,0.00687952,-0.02141388,-0.04199219,0.00417248,-0.12536538,0
 .00330423,0.00117778,0.00715080,0.00114588,0.00122261,-0.00515040,0.01
 394841,-0.00218595,0.01027886,0.00074241,-0.00058676,0.00097786,0.0347
 3727,0.00913405,-0.04299591,0.03950054,0.06438876,0.58117883,-0.000818
 19,-0.00323726,-0.00457169,0.00066602,0.00025375,0.00062078,-0.0176786
 1,-0.00369188,0.01305508,-0.00075668,0.00002635,0.00062887,0.00003759,
 0.00056879,0.00007714,0.00045471,0.00140453,-0.00069026,-0.28143737,-0
 .04914755,0.09853576,0.00148530,0.00065412,-0.00160129,0.29375748,-0.0
 0363851,0.00833172,-0.00200656,-0.00036992,-0.00097838,-0.00185785,-0.
 00168950,0.00724841,0.00569409,-0.00079261,0.00021867,0.00071032,-0.00
 025272,-0.00184758,-0.00000869,0.00077513,-0.00459101,0.00027695,-0.05
 327235,-0.04861931,0.01274179,0.00219872,0.00409339,-0.00143780,0.0529
 8770,0.03267012,-0.00201058,-0.00149703,-0.00173047,0.00004171,0.00011
 916,-0.00034380,-0.01484071,-0.00162956,0.01166395,-0.00075554,0.00007
 588,0.00044810,0.00022319,0.00018170,0.00029640,0.00048495,0.00052827,
 0.00057326,0.09493549,0.01419691,-0.09171193,-0.00271163,-0.00495728,-
 0.00252021,-0.10970263,-0.01729114,0.11396278,0.00362734,0.00347014,0.
 00040989,-0.03499494,-0.01235704,0.02048011,0.01020007,-0.00573959,-0.
 03205775,0.00080434,0.00036860,-0.00029426,-0.00492487,-0.00186232,-0.
 00503276,-0.00395904,-0.00298165,-0.00268594,-0.10231340,-0.02551300,0
 .00182635,-0.11254202,-0.04618762,0.00990924,0.00426729,0.00436117,0.0
 3284400,0.25026875,-0.00193825,-0.00618471,0.00869447,-0.00733700,0.00
 220877,-0.00405723,0.00362796,0.00917522,-0.01975572,0.00019856,-0.000
 34918,-0.00017929,0.00071839,0.00208853,-0.00028006,-0.00264520,0.0106
 1830,-0.00119265,-0.02654611,-0.05663252,-0.02573138,-0.04485224,-0.08
 875623,0.01544881,0.00037106,0.00333554,0.00919443,0.10251572,0.129195
 05,0.02150539,0.00067220,-0.00895530,-0.00586172,0.00001495,0.01366744
 ,-0.03165547,-0.02322574,-0.06125566,-0.00064201,0.00077681,0.00138419
 ,0.00043634,0.00109536,0.00143813,-0.00313716,-0.00122362,0.00105781,-
 0.02067385,-0.03252867,-0.28896233,0.02141999,0.02393623,-0.09676867,0
 .00367045,0.00312058,-0.02970849,-0.03970649,-0.00462062,0.49811939,-0
 .00555387,0.00023138,-0.00149596,0.00234384,-0.01430114,-0.02687874,0.
 00049696,-0.00031496,0.00079328,0.00003336,0.00144424,-0.00130188,0.00
 091708,0.00024787,0.00055844,0.00018240,-0.00005936,0.00000481,-0.0050
 2561,-0.00118197,-0.00118790,-0.04829104,-0.00229070,-0.00855176,-0.00
 021758,0.00025962,0.00132404,-0.00569853,0.00711799,0.03379367,0.05880
 693,0.00077418,0.00023661,-0.00040998,0.00122915,0.00383729,0.00668988
 ,-0.00048179,-0.00003809,0.00053017,0.00006566,-0.00019541,0.00019620,
 -0.00056241,0.00035571,-0.00055926,0.00006818,-0.00003211,-0.00000271,
 -0.00318898,-0.00011394,0.00215287,0.00166394,-0.11990683,-0.12569788,
 -0.00017019,0.00039602,0.00082677,-0.00308170,0.00729381,0.02009376,0.
 00333898,0.12395558,-0.00246935,-0.00053840,0.00114055,-0.00246493,-0.
 00634695,-0.01281165,0.00006757,-0.00025222,0.00008048,0.00009619,0.00
 058715,-0.00049442,-0.00003633,0.00060972,0.00083862,-0.00005050,-0.00
 002370,-0.00002414,0.00347638,0.00011043,0.00140948,-0.00093609,-0.115
 89254,-0.24860773,0.00010220,-0.00035812,-0.00082738,0.00620113,-0.001
 79389,-0.02085370,-0.00340506,0.12267123,0.27407413,-0.00435350,-0.000
 01206,0.00233037,-0.00718554,0.02580497,-0.01043475,0.00368246,0.00338
 366,0.00184923,0.00000400,-0.00206759,-0.00023835,-0.00110022,-0.00086
 818,-0.00009228,0.00019188,0.00007841,-0.00006058,-0.00118594,-0.00363
 153,-0.01070599,-0.06106540,0.06487609,-0.01081963,0.00024003,-0.00056
 672,0.00016773,-0.00473500,-0.03123087,0.02085085,0.00200606,0.0003449
 9,-0.00058122,0.07350117,0.00078005,0.00132336,-0.00347623,0.00844003,
 0.00226057,0.00316415,-0.00211591,0.00003971,0.00241772,0.00009218,-0.
 00044613,-0.00003989,0.00050335,-0.00123491,0.00096982,0.00000879,-0.0
 0003587,0.00002794,0.00114897,-0.00153397,-0.00210135,0.05475778,-0.26
 126385,0.02748437,-0.00001943,-0.00025759,0.00025189,-0.01299270,-0.01
 199257,0.01188876,0.00550807,-0.01578866,0.00122729,-0.05611118,0.2889
 2991,-0.00149492,0.00022398,0.00140790,-0.01041066,0.01603721,-0.00276
 391,-0.00024137,-0.00172545,-0.00052815,-0.00001655,-0.00086492,-0.000
 13049,-0.00076070,0.00094054,-0.00057326,-0.00001474,-0.00020865,-0.00
 002679,0.00033136,0.00225212,0.00474808,-0.00945618,0.02696112,-0.0567
 6416,-0.00012441,0.00041645,-0.00010220,0.00810647,0.02427314,-0.00916
 280,0.00634706,-0.02649106,0.00607577,0.00773463,-0.04181448,0.0578200
 0\\0.00059514,-0.00024122,-0.00000934,-0.00059366,-0.00038284,-0.00000
 389,-0.00004364,0.00046214,-0.00002905,-0.00000386,0.00003487,-0.00000
 118,0.00000303,0.00006627,-0.00001599,-0.00000590,0.00003150,-0.000012
 48,-0.00001138,0.00000752,0.00015229,-0.00005293,-0.00008501,0.0000493
 4,-0.00000372,0.00000505,0.00000053,0.00006178,0.00005419,-0.00006475,
 0.00003852,0.00004011,-0.00004691,0.00001661,0.00000742,-0.00001856\\\
 @


 THE WORLD IS NOT A HAMBURGER - YOU CAN'T HAVE IT YOUR WAY.
 Job cpu time:       0 days  0 hours 32 minutes 20.6 seconds.
 Elapsed time:       0 days  0 hours  2 minutes 50.1 seconds.
 File lengths (MBytes):  RWF=     54 Int=      0 D2E=      0 Chk=     32 Scr=      1
 Normal termination of Gaussian 16 at Fri Jun 10 11:45:15 2022.
