 Entering Gaussian System, Link 0=g16
 Input=int_zmat_field_N100.gjf
 Output=int_zmat_field_N100.out
 Initial command:
 /software/gaussian/g16-a03/l1.exe "/local_scratch/11172140/Gau-25969.inp" -scrdir="/local_scratch/11172140/"
 Entering Link 1 = /software/gaussian/g16-a03/l1.exe PID=     25970.
  
 Copyright (c) 1988,1990,1992,1993,1995,1998,2003,2009,2016,
            Gaussian, Inc.  All Rights Reserved.
  
 This is part of the Gaussian(R) 16 program.  It is based on
 the Gaussian(R) 09 system (copyright 2009, Gaussian, Inc.),
 the Gaussian(R) 03 system (copyright 2003, Gaussian, Inc.),
 the Gaussian(R) 98 system (copyright 1998, Gaussian, Inc.),
 the Gaussian(R) 94 system (copyright 1995, Gaussian, Inc.),
 the Gaussian 92(TM) system (copyright 1992, Gaussian, Inc.),
 the Gaussian 90(TM) system (copyright 1990, Gaussian, Inc.),
 the Gaussian 88(TM) system (copyright 1988, Gaussian, Inc.),
 the Gaussian 86(TM) system (copyright 1986, Carnegie Mellon
 University), and the Gaussian 82(TM) system (copyright 1983,
 Carnegie Mellon University). Gaussian is a federally registered
 trademark of Gaussian, Inc.
  
 This software contains proprietary and confidential information,
 including trade secrets, belonging to Gaussian, Inc.
  
 This software is provided under written license and may be
 used, copied, transmitted, or stored only in accord with that
 written license.
  
 The following legend is applicable only to US Government
 contracts under FAR:
  
                    RESTRICTED RIGHTS LEGEND
  
 Use, reproduction and disclosure by the US Government is
 subject to restrictions as set forth in subparagraphs (a)
 and (c) of the Commercial Computer Software - Restricted
 Rights clause in FAR 52.227-19.
  
 Gaussian, Inc.
 340 Quinnipiac St., Bldg. 40, Wallingford CT 06492
  
  
 ---------------------------------------------------------------
 Warning -- This program may not be used in any manner that
 competes with the business of Gaussian, Inc. or will provide
 assistance to any competitor of Gaussian, Inc.  The licensee
 of this program is prohibited from giving any competitor of
 Gaussian, Inc. access to this program.  By using this program,
 the user acknowledges that Gaussian, Inc. is engaged in the
 business of creating and licensing software in the field of
 computational chemistry and represents and warrants to the
 licensee that it is not a competitor of Gaussian, Inc. and that
 it will not use this program in any manner prohibited above.
 ---------------------------------------------------------------
  

 Cite this work as:
 Gaussian 16, Revision A.03,
 M. J. Frisch, G. W. Trucks, H. B. Schlegel, G. E. Scuseria, 
 M. A. Robb, J. R. Cheeseman, G. Scalmani, V. Barone, 
 G. A. Petersson, H. Nakatsuji, X. Li, M. Caricato, A. V. Marenich, 
 J. Bloino, B. G. Janesko, R. Gomperts, B. Mennucci, H. P. Hratchian, 
 J. V. Ortiz, A. F. Izmaylov, J. L. Sonnenberg, D. Williams-Young, 
 F. Ding, F. Lipparini, F. Egidi, J. Goings, B. Peng, A. Petrone, 
 T. Henderson, D. Ranasinghe, V. G. Zakrzewski, J. Gao, N. Rega, 
 G. Zheng, W. Liang, M. Hada, M. Ehara, K. Toyota, R. Fukuda, 
 J. Hasegawa, M. Ishida, T. Nakajima, Y. Honda, O. Kitao, H. Nakai, 
 T. Vreven, K. Throssell, J. A. Montgomery, Jr., J. E. Peralta, 
 F. Ogliaro, M. J. Bearpark, J. J. Heyd, E. N. Brothers, K. N. Kudin, 
 V. N. Staroverov, T. A. Keith, R. Kobayashi, J. Normand, 
 K. Raghavachari, A. P. Rendell, J. C. Burant, S. S. Iyengar, 
 J. Tomasi, M. Cossi, J. M. Millam, M. Klene, C. Adamo, R. Cammi, 
 J. W. Ochterski, R. L. Martin, K. Morokuma, O. Farkas, 
 J. B. Foresman, and D. J. Fox, Gaussian, Inc., Wallingford CT, 2016.
 
 ******************************************
 Gaussian 16:  ES64L-G16RevA.03 25-Dec-2016
                10-Jun-2022 
 ******************************************
 %nprocshared=12
 Will use up to   12 processors via shared memory.
 %chk=checkpoint.chk
 %mem=12GB
 ----------------------------------------------------------------------
 # Opt=(Z-matrix, MaxStep=10) B3LYP/Def2TZVP geom=allcheckpoint guess=r
 ead Field=read NoSymm freq=noraman pop=none
 ----------------------------------------------------------------------
 1/8=10,10=7,18=40,26=3,29=7,38=1/1,3;
 2/12=2,15=1,29=3,40=1/2;
 3/5=44,7=101,11=2,14=-6,25=1,30=1,71=1,74=-5,116=-2/1,2,3;
 4/5=1/1;
 5/5=2,38=6/2;
 7/29=1,30=1/1,2,3,16;
 1/8=10,10=7,18=40,26=3/3(2);
 2/15=1,29=3/2;
 99//99;
 2/15=1,29=3/2;
 3/5=44,7=101,11=2,14=-2,25=1,30=1,71=1,74=-5/1,2,3;
 4/5=5,16=3,69=1/1;
 5/5=2,38=5/2;
 7/30=1/1,2,3,16;
 1/8=10,18=40,26=3/3(-5);
 2/15=1,29=3/2;
 99/9=1/99;
 Structure from the checkpoint file:  "checkpoint.chk"
 ------------------
 int_zmat_initalOpt
 ------------------
 Charge =  0 Multiplicity = 1
 Z-Matrix found in chk file.
 C
 C,1,R2
 C,1,R3,2,A3
 H,1,R4,2,A4,3,D4,0
 H,2,R5,1,A5,3,D5,0
 H,3,R6,1,A6,2,D6,0
 C,3,R7,1,A7,6,D7,0
 C,2,R8,1,A8,5,D8,0
 H,7,R9,3,A9,1,D9,0
 O,7,R10,3,A10,9,D10,0
 H,8,R11,2,A11,1,D11,0
 H,8,R12,2,A12,11,D12,0
      Variables:
 R2=1.33538504
 R3=1.45568456
 R4=1.08301487
 R5=1.08191077
 R6=1.08079896
 R7=1.34173598
 R8=1.50131526
 R9=1.08360271
 R10=1.34635075
 R11=1.08792095
 R12=1.10022676
 A3=119.36381108
 A4=120.97468021
 A5=122.60779217
 A6=121.6570219
 A7=118.11207055
 A8=118.92830566
 A9=124.17986978
 A10=123.67742665
 A11=112.29535337
 A12=111.17377638
 D4=-175.59491969
 D5=175.40278472
 D6=173.92545826
 D7=172.57809138
 D8=179.261226
 D9=-169.79416938
 D10=174.75945437
 D11=148.75934304
 D12=121.18120999
 Recover connectivity data from disk.

 GradGradGradGradGradGradGradGradGradGradGradGradGradGradGradGradGradGrad
 Berny optimization.
 Initialization pass.
                       ----------------------------
                       !    Initial Parameters    !
                       ! (Angstroms and Degrees)  !
 ----------------------                            ----------------------
 !      Name          Value   Derivative information (Atomic Units)     !
 ------------------------------------------------------------------------
 !       R2          1.3354   estimate D2E/DX2                          !
 !       R3          1.4557   estimate D2E/DX2                          !
 !       R4          1.083    estimate D2E/DX2                          !
 !       R5          1.0819   estimate D2E/DX2                          !
 !       R6          1.0808   estimate D2E/DX2                          !
 !       R7          1.3417   estimate D2E/DX2                          !
 !       R8          1.5013   estimate D2E/DX2                          !
 !       R9          1.0836   estimate D2E/DX2                          !
 !       R10         1.3464   estimate D2E/DX2                          !
 !       R11         1.0879   estimate D2E/DX2                          !
 !       R12         1.1002   estimate D2E/DX2                          !
 !       A3        119.3638   estimate D2E/DX2                          !
 !       A4        120.9747   estimate D2E/DX2                          !
 !       A5        122.6078   estimate D2E/DX2                          !
 !       A6        121.657    estimate D2E/DX2                          !
 !       A7        118.1121   estimate D2E/DX2                          !
 !       A8        118.9283   estimate D2E/DX2                          !
 !       A9        124.1799   estimate D2E/DX2                          !
 !       A10       123.6774   estimate D2E/DX2                          !
 !       A11       112.2954   estimate D2E/DX2                          !
 !       A12       111.1738   estimate D2E/DX2                          !
 !       D4       -175.5949   estimate D2E/DX2                          !
 !       D5        175.4028   estimate D2E/DX2                          !
 !       D6        173.9255   estimate D2E/DX2                          !
 !       D7        172.5781   estimate D2E/DX2                          !
 !       D8        179.2612   estimate D2E/DX2                          !
 !       D9       -169.7942   estimate D2E/DX2                          !
 !       D10       174.7595   estimate D2E/DX2                          !
 !       D11       148.7593   estimate D2E/DX2                          !
 !       D12       121.1812   estimate D2E/DX2                          !
 ------------------------------------------------------------------------
 Trust Radius=1.00D-01 FncErr=1.00D-07 GrdErr=1.00D-06 EigMax=2.50D+02 EigMin=1.00D-04
 Number of steps in this run=     40 maximum allowed number of steps=    100.
 GradGradGradGradGradGradGradGradGradGradGradGradGradGradGradGradGradGrad

 ---------------------------------------------------------------------------------------------------
                            Z-MATRIX (ANGSTROMS AND DEGREES)
   CD    Cent   Atom    N1       Length/X        N2       Alpha/Y        N3        Beta/Z          J
 ---------------------------------------------------------------------------------------------------
      1      1  C 
      2      2  C        1   1.335385(     1)
      3      3  C        1   1.455685(     2)      2  119.364(    12)
      4      4  H        1   1.083015(     3)      2  120.975(    13)      3 -175.595(    22)      0
      5      5  H        2   1.081911(     4)      1  122.608(    14)      3  175.403(    23)      0
      6      6  H        3   1.080799(     5)      1  121.657(    15)      2  173.925(    24)      0
      7      7  C        3   1.341736(     6)      1  118.112(    16)      6  172.578(    25)      0
      8      8  C        2   1.501315(     7)      1  118.928(    17)      5  179.261(    26)      0
      9      9  H        7   1.083603(     8)      3  124.180(    18)      1 -169.794(    27)      0
     10     10  O        7   1.346351(     9)      3  123.677(    19)      9  174.759(    28)      0
     11     11  H        8   1.087921(    10)      2  112.295(    20)      1  148.759(    29)      0
     12     12  H        8   1.100227(    11)      2  111.174(    21)     11  121.181(    30)      0
 ---------------------------------------------------------------------------------------------------
                         Z-Matrix orientation:                         
 ---------------------------------------------------------------------
 Center     Atomic      Atomic             Coordinates (Angstroms)
 Number     Number       Type             X           Y           Z
 ---------------------------------------------------------------------
      1          6           0        0.000000    0.000000    0.000000
      2          6           0        0.000000    0.000000    1.335385
      3          6           0        1.268664    0.000000   -0.713800
      4          1           0       -0.925828    0.071321   -0.557384
      5          1           0       -0.908447    0.073047    1.918411
      6          1           0        1.314443   -0.097355   -1.789231
      7          6           0        2.383943    0.276199   -0.020892
      8          6           0        1.308295   -0.122196    2.061593
      9          1           0        3.351759    0.458941   -0.472703
     10          8           0        2.408361    0.458336    1.312858
     11          1           0        1.302021    0.402713    3.014485
     12          1           0        1.558681   -1.175996    2.254753
 ---------------------------------------------------------------------
                    Distance matrix (angstroms):
                    1          2          3          4          5
     1  C    0.000000
     2  C    1.335385   0.000000
     3  C    1.455685   2.410117   0.000000
     4  H    1.083015   2.108274   2.201215   0.000000
     5  H    2.123891   1.081911   3.416677   2.475856   0.000000
     6  H    2.222293   3.391234   1.080799   2.562170   4.326302
     7  C    2.399981   2.756621   1.341736   3.359224   3.826487
     8  C    2.444736   1.501315   2.778365   3.447869   2.229926
     9  H    3.415899   3.835896   2.146635   4.295948   4.900581
    10  O    2.780984   2.451690   2.369879   3.842448   3.393576
    11  H    3.308256   2.162595   3.750120   4.222722   2.489222
    12  H    2.982677   2.158168   3.206148   3.954327   2.785670
                    6          7          8          9         10
     6  H    0.000000
     7  C    2.100094   0.000000
     8  C    3.850910   2.377495   0.000000
     9  H    2.488648   1.083603   3.306981   0.000000
    10  O    3.335927   1.346351   1.451815   2.019462   0.000000
    11  H    4.829691   3.224915   1.087921   4.045376   2.030423
    12  H    4.192485   2.822852   1.100227   3.650639   2.068856
                   11         12
    11  H    0.000000
    12  H    1.770704   0.000000
 Symmetry turned off by external request.
 Stoichiometry    C5H6O
 Framework group  C1[X(C5H6O)]
 Deg. of freedom    30
 Full point group                 C1      NOp   1
 Rotational constants (GHZ):           5.5624828           5.3715142           2.8391061
 Standard basis: def2TZVP (5D, 7F)
 The following finite field(s) will be applied:
 An electric field of              0.0041 -0.0029 -0.0086
   222 basis functions,   354 primitive gaussians,   252 cartesian basis functions
    22 alpha electrons       22 beta electrons
       nuclear repulsion energy       223.3715612469 Hartrees.
 NAtoms=   12 NActive=   12 NUniq=   12 SFac= 1.00D+00 NAtFMM=   60 NAOKFM=F Big=F
 Integral buffers will be    131072 words long.
 Raffenetti 2 integral format.
 Two-electron integral symmetry is turned off.
 One-electron integrals computed using PRISM.
   1 Symmetry operations used in ECPInt.
 ECPInt:  NShTT=    4095 NPrTT=   12396 LenC2=    4075 LenP2D=   10417.
 LDataN:  DoStor=T MaxTD1= 6 Len=  172
 NBasis=   222 RedAO= T EigKep=  9.51D-05  NBF=   222
 NBsUse=   222 1.00D-06 EigRej= -1.00D+00 NBFU=   222
 The nuclear repulsion energy is now       223.2720889870 hartrees.
 Initial guess from the checkpoint file:  "checkpoint.chk"
 B after Tr=    -0.000000    0.000000   -0.000000
         Rot=    1.000000   -0.000000    0.000000    0.000000 Ang=   0.00 deg.
 Keep R1 ints in memory in canonical form, NReq=319363885.
 Requested convergence on RMS density matrix=1.00D-08 within 128 cycles.
 Requested convergence on MAX density matrix=1.00D-06.
 Requested convergence on             energy=1.00D-06.
 No special actions if energy rises.
 SCF Done:  E(RB3LYP) =  -269.426542027     A.U. after   10 cycles
            NFock= 10  Conv=0.83D-08     -V/T= 2.0050
   1 Symmetry operations used in ECPInt.
 ECPInt:  NShTT=    4095 NPrTT=   12396 LenC2=    4075 LenP2D=   10417.
 LDataN:  DoStor=T MaxTD1= 7 Len=  274
 Calling FoFJK, ICntrl=      2127 FMM=F ISym2X=0 I1Cent= 0 IOpClX= 0 NMat=1 NMatS=1 NMatT=0.
 -------------------------------------------------------------------
 Center     Atomic                   Forces (Hartrees/Bohr)
 Number     Number              X              Y              Z
 -------------------------------------------------------------------
      1        6          -0.001172398    0.000101388    0.000064182
      2        6           0.000738519    0.000227410   -0.000261460
      3        6           0.000192776   -0.000609314    0.000167963
      4        1          -0.000077489    0.000066225    0.000096774
      5        1           0.000063848   -0.000022837    0.000093661
      6        1           0.000031685    0.000055893   -0.000385643
      7        6           0.000109119    0.000124494    0.001291227
      8        6          -0.000538196    0.000041692    0.000981459
      9        1           0.000281012    0.000083872   -0.000101686
     10        8           0.000627260   -0.000065224   -0.001944529
     11        1          -0.000103622   -0.000116651   -0.000048049
     12        1          -0.000152515    0.000113052    0.000046101
 -------------------------------------------------------------------
 Cartesian Forces:  Max     0.001944529 RMS     0.000526160
 -----------------------------------------------------------------------------------------------
                       Internal Coordinate Forces (Hartree/Bohr or radian)
  Cent   Atom   N1       Length/X         N2         Alpha/Y        N3         Beta/Z          J
 -----------------------------------------------------------------------------------------------
      1  C 
      2  C        1   0.000812(     1)
      3  C        1   0.001559(     2)      2   0.005166(    12)
      4  H        1   0.000021(     3)      2  -0.000257(    13)      3   0.000105(    22)     0
      5  H        2  -0.000005(     4)      1   0.000233(    14)      3  -0.000205(    23)     0
      6  H        3   0.000380(     5)      1   0.000041(    15)      2  -0.000567(    24)     0
      7  C        3   0.000485(     6)      1   0.004615(    16)      6  -0.000723(    25)     0
      8  C        2  -0.000222(     7)      1   0.003783(    17)      5  -0.000235(    26)     0
      9  H        7   0.000308(     8)      3   0.000063(    18)      1  -0.000140(    27)     0
     10  O        7  -0.001924(     9)      3   0.001744(    19)      9  -0.000189(    28)     0
     11  H        8  -0.000098(    10)      2  -0.000149(    20)      1  -0.000024(    29)     0
     12  H        8  -0.000135(    11)      2  -0.000158(    21)     11  -0.000231(    30)     0
 -----------------------------------------------------------------------------------------------
 Internal  Forces:  Max     0.005165854 RMS     0.001569646

 GradGradGradGradGradGradGradGradGradGradGradGradGradGradGradGradGradGrad
 Berny optimization.
 Search for a local minimum.
 Step number   1 out of a maximum of   40
 All quantities printed in internal units (Hartrees-Bohrs-Radians)
 Second derivative matrix not updated -- first step.
 ITU=  0
     Eigenvalues ---    0.03115   0.04266   0.05341   0.06515   0.08388
     Eigenvalues ---    0.12556   0.17087   0.18376   0.19730   0.21729
     Eigenvalues ---    0.26826   0.30962   0.33183   0.33656   0.34688
     Eigenvalues ---    0.35054   0.35563   0.35634   0.35765   0.35898
     Eigenvalues ---    0.38813   0.43075   0.51418   0.54356   0.56350
     Eigenvalues ---    0.57052   0.59243   1.97339   4.32732  22.28929
 RFO step:  Lambda=-1.52951924D-05 EMin= 3.11477827D-02
 Linear search not attempted -- first point.
 Variable       Old X    -DE/DX   Delta X   Delta X   Delta X     New X
                                 (Linear)    (Quad)   (Total)
    R2        2.52351   0.00081   0.00000   0.00003   0.00003   2.52354
    R3        2.75085   0.00156   0.00000   0.00131   0.00131   2.75215
    R4        2.04660   0.00002   0.00000   0.00006   0.00006   2.04666
    R5        2.04452  -0.00000   0.00000  -0.00001  -0.00001   2.04450
    R6        2.04241   0.00038   0.00000   0.00106   0.00106   2.04348
    R7        2.53551   0.00049   0.00000   0.00040   0.00040   2.53592
    R8        2.83707  -0.00022   0.00000   0.00019   0.00019   2.83727
    R9        2.04771   0.00031   0.00000   0.00087   0.00087   2.04858
   R10        2.54423  -0.00192   0.00000  -0.00210  -0.00210   2.54214
   R11        2.05587  -0.00010   0.00000  -0.00028  -0.00028   2.05559
   R12        2.07913  -0.00013   0.00000  -0.00038  -0.00038   2.07874
    A3        2.08329   0.00517   0.00000   0.00023   0.00023   2.08352
    A4        2.11141  -0.00026   0.00000  -0.00100  -0.00100   2.11040
    A5        2.13991   0.00023   0.00000   0.00011   0.00011   2.14002
    A6        2.12332   0.00004   0.00000  -0.00015  -0.00015   2.12316
    A7        2.06144   0.00461   0.00000   0.00071   0.00071   2.06215
    A8        2.07569   0.00378   0.00000   0.00124   0.00124   2.07693
    A9        2.16735   0.00006   0.00000   0.00012   0.00012   2.16747
   A10        2.15858   0.00174   0.00000   0.00009   0.00009   2.15867
   A11        1.95992  -0.00015   0.00000   0.00018   0.00018   1.96010
   A12        1.94035  -0.00016   0.00000  -0.00164  -0.00164   1.93871
    D4       -3.06471   0.00011   0.00000   0.00223   0.00223  -3.06248
    D5        3.06136  -0.00020   0.00000  -0.00113  -0.00113   3.06023
    D6        3.03557  -0.00057   0.00000   0.00448   0.00448   3.04005
    D7        3.01206  -0.00072   0.00000   0.00058   0.00058   3.01264
    D8        3.12870  -0.00024   0.00000   0.00129   0.00129   3.12999
    D9       -2.96347  -0.00014   0.00000  -0.00220  -0.00220  -2.96566
   D10        3.05013  -0.00019   0.00000  -0.00217  -0.00217   3.04796
   D11        2.59634  -0.00002   0.00000  -0.00370  -0.00370   2.59264
   D12        2.11501  -0.00023   0.00000  -0.00202  -0.00202   2.11299
         Item               Value     Threshold  Converged?
 Maximum Force            0.005166     0.000450     NO 
 RMS     Force            0.001570     0.000300     NO 
 Maximum Displacement     0.004475     0.001800     NO 
 RMS     Displacement     0.001526     0.001200     NO 
 Predicted change in Energy=-7.647596D-06
 GradGradGradGradGradGradGradGradGradGradGradGradGradGradGradGradGradGrad

 ---------------------------------------------------------------------------------------------------
                            Z-MATRIX (ANGSTROMS AND DEGREES)
   CD    Cent   Atom    N1       Length/X        N2       Alpha/Y        N3        Beta/Z          J
 ---------------------------------------------------------------------------------------------------
      1      1  C 
      2      2  C        1   1.335399(     1)
      3      3  C        1   1.456376(     2)      2  119.377(    12)
      4      4  H        1   1.083048(     3)      2  120.917(    13)      3 -175.467(    22)      0
      5      5  H        2   1.081904(     4)      1  122.614(    14)      3  175.338(    23)      0
      6      6  H        3   1.081361(     5)      1  121.648(    15)      2  174.182(    24)      0
      7      7  C        3   1.341949(     6)      1  118.153(    16)      6  172.612(    25)      0
      8      8  C        2   1.501418(     7)      1  118.999(    17)      5  179.335(    26)      0
      9      9  H        7   1.084062(     8)      3  124.187(    18)      1 -169.920(    27)      0
     10     10  O        7   1.345242(     9)      3  123.683(    19)      9  174.635(    28)      0
     11     11  H        8   1.087772(    10)      2  112.306(    20)      1  148.547(    29)      0
     12     12  H        8   1.100024(    11)      2  111.080(    21)     11  121.066(    30)      0
 ---------------------------------------------------------------------------------------------------
                         Z-Matrix orientation:                         
 ---------------------------------------------------------------------
 Center     Atomic      Atomic             Coordinates (Angstroms)
 Number     Number       Type             X           Y           Z
 ---------------------------------------------------------------------
      1          6           0        0.000000    0.000000    0.000000
      2          6           0        0.000000    0.000000    1.335399
      3          6           0        1.269102    0.000000   -0.714431
      4          1           0       -0.926252    0.073434   -0.556468
      5          1           0       -0.908294    0.074066    1.918523
      6          1           0        1.314283   -0.093317   -1.790811
      7          6           0        2.385913    0.270315   -0.021258
      8          6           0        1.307508   -0.121910    2.063284
      9          1           0        3.354661    0.450643   -0.473143
     10          8           0        2.411360    0.451269    1.311514
     11          1           0        1.301389    0.406062    3.014313
     12          1           0        1.553418   -1.175678    2.261156
 ---------------------------------------------------------------------
                    Distance matrix (angstroms):
                    1          2          3          4          5
     1  C    0.000000
     2  C    1.335399   0.000000
     3  C    1.456376   2.410897   0.000000
     4  H    1.083048   2.107724   2.202255   0.000000
     5  H    2.123962   1.081904   3.417454   2.475057   0.000000
     6  H    2.223298   3.392527   1.081361   2.563475   4.327473
     7  C    2.401271   2.757929   1.341949   3.360901   3.827933
     8  C    2.445727   1.501418   2.780654   3.448325   2.229157
     9  H    3.417703   3.837662   2.147290   4.298307   4.902516
    10  O    2.781793   2.453339   2.369146   3.843406   3.395710
    11  H    3.308260   2.162695   3.750928   4.221789   2.488709
    12  H    2.984652   2.156930   3.212035   3.955761   2.781956
                    6          7          8          9         10
     6  H    0.000000
     7  C    2.100461   0.000000
     8  C    3.854207   2.379520   0.000000
     9  H    2.489032   1.084062   3.309397   0.000000
    10  O    3.335352   1.345242   1.453334   2.018618   0.000000
    11  H    4.831021   3.226347   1.087772   4.047254   2.033126
    12  H    4.200848   2.827253   1.100024   3.655925   2.069985
                   11         12
    11  H    0.000000
    12  H    1.769933   0.000000
 Symmetry turned off by external request.
 Stoichiometry    C5H6O
 Framework group  C1[X(C5H6O)]
 Deg. of freedom    30
 Full point group                 C1      NOp   1
 Rotational constants (GHZ):           5.5581406           5.3699933           2.8360297
 Standard basis: def2TZVP (5D, 7F)
 The following finite field(s) will be applied:
 An electric field of              0.0041 -0.0029 -0.0086
   222 basis functions,   354 primitive gaussians,   252 cartesian basis functions
    22 alpha electrons       22 beta electrons
       nuclear repulsion energy       223.3121341168 Hartrees.
 NAtoms=   12 NActive=   12 NUniq=   12 SFac= 1.00D+00 NAtFMM=   60 NAOKFM=F Big=F
 Integral buffers will be    131072 words long.
 Raffenetti 2 integral format.
 Two-electron integral symmetry is turned off.
 One-electron integrals computed using PRISM.
   1 Symmetry operations used in ECPInt.
 ECPInt:  NShTT=    4095 NPrTT=   12396 LenC2=    4075 LenP2D=   10413.
 LDataN:  DoStor=T MaxTD1= 6 Len=  172
 NBasis=   222 RedAO= T EigKep=  9.51D-05  NBF=   222
 NBsUse=   222 1.00D-06 EigRej= -1.00D+00 NBFU=   222
 The nuclear repulsion energy is now       223.2133986226 hartrees.
 Initial guess from the checkpoint file:  "checkpoint.chk"
 B after Tr=     0.000785    0.002325    0.000023
         Rot=    0.999999    0.000114   -0.000008    0.001359 Ang=   0.16 deg.
 Keep R1 ints in memory in canonical form, NReq=319363885.
 Requested convergence on RMS density matrix=1.00D-08 within 128 cycles.
 Requested convergence on MAX density matrix=1.00D-06.
 Requested convergence on             energy=1.00D-06.
 No special actions if energy rises.
 SCF Done:  E(RB3LYP) =  -269.426551826     A.U. after    9 cycles
            NFock=  9  Conv=0.30D-08     -V/T= 2.0050
   1 Symmetry operations used in ECPInt.
 ECPInt:  NShTT=    4095 NPrTT=   12396 LenC2=    4075 LenP2D=   10413.
 LDataN:  DoStor=T MaxTD1= 7 Len=  274
 Calling FoFJK, ICntrl=      2127 FMM=F ISym2X=0 I1Cent= 0 IOpClX= 0 NMat=1 NMatS=1 NMatT=0.
 -------------------------------------------------------------------
 Center     Atomic                   Forces (Hartrees/Bohr)
 Number     Number              X              Y              Z
 -------------------------------------------------------------------
      1        6          -0.000821257    0.000384130    0.000013513
      2        6           0.000910972    0.000430372   -0.000258806
      3        6           0.000094163   -0.000779430   -0.000097957
      4        1          -0.000003328   -0.000016942    0.000028211
      5        1           0.000013667   -0.000062434    0.000058365
      6        1          -0.000007805   -0.000021948    0.000005725
      7        6          -0.000214827    0.000270304    0.000553893
      8        6          -0.000394708   -0.000179086    0.000272202
      9        1          -0.000004841    0.000024244   -0.000048070
     10        8           0.000318534   -0.000247910   -0.000495356
     11        1           0.000064829    0.000130206   -0.000098678
     12        1           0.000044602    0.000068496    0.000066958
 -------------------------------------------------------------------
 Cartesian Forces:  Max     0.000910972 RMS     0.000319751
 -----------------------------------------------------------------------------------------------
                       Internal Coordinate Forces (Hartree/Bohr or radian)
  Cent   Atom   N1       Length/X         N2         Alpha/Y        N3         Beta/Z          J
 -----------------------------------------------------------------------------------------------
      1  C 
      2  C        1   0.000040(     1)
      3  C        1   0.000202(     2)      2   0.000987(    12)
      4  H        1  -0.000013(     3)      2  -0.000052(    13)      3  -0.000030(    22)     0
      5  H        2   0.000016(     4)      1   0.000121(    14)      3   0.000142(    23)     0
      6  H        3  -0.000004(     5)      1  -0.000018(    15)      2   0.000327(    24)     0
      7  C        3   0.000097(     6)      1   0.000959(    16)      6   0.000365(    25)     0
      8  C        2  -0.000133(     7)      1   0.000935(    17)      5   0.000037(    26)     0
      9  H        7   0.000020(     8)      3  -0.000087(    18)      1   0.000529(    27)     0
     10  O        7  -0.000518(     9)      3   0.000753(    19)      9   0.000483(    28)     0
     11  H        8  -0.000023(    10)      2   0.000015(    20)      1  -0.000410(    29)     0
     12  H        8  -0.000044(    11)      2   0.000181(    21)     11  -0.000079(    30)     0
 -----------------------------------------------------------------------------------------------
 Internal  Forces:  Max     0.000987036 RMS     0.000395116

 GradGradGradGradGradGradGradGradGradGradGradGradGradGradGradGradGradGrad
 Berny optimization.
 Search for a local minimum.
 Step number   2 out of a maximum of   40
 All quantities printed in internal units (Hartrees-Bohrs-Radians)
 Update second derivatives using D2CorN and points    1    2
 DE= -9.80D-06 DEPred=-7.65D-06 R= 1.28D+00
 TightC=F SS=  1.41D+00  RLast= 8.36D-03 DXNew= 1.6818D-01 2.5078D-02
 Trust test= 1.28D+00 RLast= 8.36D-03 DXMaxT set to 1.00D-01
 ITU=  1  0
     Eigenvalues ---    0.02722   0.03721   0.04853   0.06636   0.07138
     Eigenvalues ---    0.12674   0.16595   0.18337   0.19794   0.21885
     Eigenvalues ---    0.26904   0.31011   0.33177   0.33630   0.34680
     Eigenvalues ---    0.35036   0.35493   0.35635   0.35765   0.35858
     Eigenvalues ---    0.38876   0.42476   0.51354   0.53702   0.56305
     Eigenvalues ---    0.56823   0.59308   1.97292   4.31564  22.28306
 RFO step:  Lambda=-7.72627097D-06 EMin= 2.72184730D-02
 Quartic linear search produced a step of  0.37923.
 Variable       Old X    -DE/DX   Delta X   Delta X   Delta X     New X
                                 (Linear)    (Quad)   (Total)
    R2        2.52354   0.00004   0.00001  -0.00022  -0.00021   2.52333
    R3        2.75215   0.00020   0.00050  -0.00057  -0.00008   2.75208
    R4        2.04666  -0.00001   0.00002  -0.00007  -0.00005   2.04661
    R5        2.04450   0.00002  -0.00000   0.00008   0.00007   2.04458
    R6        2.04348  -0.00000   0.00040  -0.00027   0.00013   2.04361
    R7        2.53592   0.00010   0.00015  -0.00019  -0.00004   2.53588
    R8        2.83727  -0.00013   0.00007   0.00005   0.00012   2.83739
    R9        2.04858   0.00002   0.00033  -0.00011   0.00021   2.04879
   R10        2.54214  -0.00052  -0.00079  -0.00062  -0.00141   2.54072
   R11        2.05559  -0.00002  -0.00011  -0.00005  -0.00016   2.05543
   R12        2.07874  -0.00004  -0.00015  -0.00011  -0.00025   2.07849
    A3        2.08352   0.00099   0.00009  -0.00010  -0.00001   2.08351
    A4        2.11040  -0.00005  -0.00038  -0.00013  -0.00051   2.10989
    A5        2.14002   0.00012   0.00004  -0.00039  -0.00035   2.13967
    A6        2.12316  -0.00002  -0.00006   0.00002  -0.00004   2.12312
    A7        2.06215   0.00096   0.00027  -0.00041  -0.00014   2.06202
    A8        2.07693   0.00094   0.00047   0.00163   0.00210   2.07902
    A9        2.16747  -0.00009   0.00005  -0.00140  -0.00135   2.16612
   A10        2.15867   0.00075   0.00003   0.00184   0.00187   2.16054
   A11        1.96010   0.00002   0.00007   0.00002   0.00009   1.96019
   A12        1.93871   0.00018  -0.00062   0.00143   0.00081   1.93951
    D4       -3.06248  -0.00003   0.00085   0.00135   0.00219  -3.06028
    D5        3.06023   0.00014  -0.00043  -0.00122  -0.00165   3.05858
    D6        3.04005   0.00033   0.00170   0.00362   0.00532   3.04536
    D7        3.01264   0.00036   0.00022  -0.00064  -0.00042   3.01222
    D8        3.12999   0.00004   0.00049   0.00065   0.00113   3.13112
    D9       -2.96566   0.00053  -0.00083  -0.00021  -0.00104  -2.96671
   D10        3.04796   0.00048  -0.00082   0.00069  -0.00013   3.04783
   D11        2.59264  -0.00041  -0.00140  -0.00776  -0.00916   2.58348
   D12        2.11299  -0.00008  -0.00077   0.00159   0.00083   2.11382
         Item               Value     Threshold  Converged?
 Maximum Force            0.000987     0.000450     NO 
 RMS     Force            0.000395     0.000300     NO 
 Maximum Displacement     0.009159     0.001800     NO 
 RMS     Displacement     0.002129     0.001200     NO 
 Predicted change in Energy=-3.930264D-06
 GradGradGradGradGradGradGradGradGradGradGradGradGradGradGradGradGradGrad

 ---------------------------------------------------------------------------------------------------
                            Z-MATRIX (ANGSTROMS AND DEGREES)
   CD    Cent   Atom    N1       Length/X        N2       Alpha/Y        N3        Beta/Z          J
 ---------------------------------------------------------------------------------------------------
      1      1  C 
      2      2  C        1   1.335288(     1)
      3      3  C        1   1.456336(     2)      2  119.376(    12)
      4      4  H        1   1.083021(     3)      2  120.888(    13)      3 -175.341(    22)      0
      5      5  H        2   1.081943(     4)      1  122.594(    14)      3  175.244(    23)      0
      6      6  H        3   1.081430(     5)      1  121.646(    15)      2  174.486(    24)      0
      7      7  C        3   1.341930(     6)      1  118.145(    16)      6  172.588(    25)      0
      8      8  C        2   1.501481(     7)      1  119.119(    17)      5  179.400(    26)      0
      9      9  H        7   1.084175(     8)      3  124.109(    18)      1 -169.980(    27)      0
     10     10  O        7   1.344494(     9)      3  123.790(    19)      9  174.628(    28)      0
     11     11  H        8   1.087687(    10)      2  112.311(    20)      1  148.022(    29)      0
     12     12  H        8   1.099891(    11)      2  111.126(    21)     11  121.113(    30)      0
 ---------------------------------------------------------------------------------------------------
                         Z-Matrix orientation:                         
 ---------------------------------------------------------------------
 Center     Atomic      Atomic             Coordinates (Angstroms)
 Number     Number       Type             X           Y           Z
 ---------------------------------------------------------------------
      1          6           0        0.000000    0.000000    0.000000
      2          6           0        0.000000    0.000000    1.335288
      3          6           0        1.269075    0.000000   -0.714397
      4          1           0       -0.926348    0.075487   -0.555982
      5          1           0       -0.908407    0.075585    1.918113
      6          1           0        1.313992   -0.088455   -1.791267
      7          6           0        2.386405    0.264684   -0.019925
      8          6           0        1.305978   -0.122448    2.065954
      9          1           0        3.355351    0.443562   -0.472232
     10          8           0        2.414354    0.441434    1.312607
     11          1           0        1.301321    0.413228    3.012576
     12          1           0        1.547517   -1.175445    2.272391
 ---------------------------------------------------------------------
                    Distance matrix (angstroms):
                    1          2          3          4          5
     1  C    0.000000
     2  C    1.335288   0.000000
     3  C    1.456336   2.410759   0.000000
     4  H    1.083021   2.107302   2.202425   0.000000
     5  H    2.123694   1.081943   3.417199   2.474161   0.000000
     6  H    2.223294   3.392601   1.081430   2.563578   4.327293
     7  C    2.401121   2.757098   1.341930   3.361174   3.827210
     8  C    2.447190   1.501481   2.783291   3.449204   2.228132
     9  H    3.417328   3.836959   2.146610   4.298307   4.901917
    10  O    2.783326   2.454482   2.369657   3.845235   3.397237
    11  H    3.307538   2.162751   3.749950   4.220330   2.488925
    12  H    2.990024   2.157462   3.221817   3.960371   2.778876
                    6          7          8          9         10
     6  H    0.000000
     7  C    2.100579   0.000000
     8  C    3.857379   2.380774   0.000000
     9  H    2.487979   1.084175   3.310995   0.000000
    10  O    3.335508   1.344494   1.453957   2.017705   0.000000
    11  H    4.829985   3.224210   1.087687   4.045225   2.032124
    12  H    4.213003   2.834151   1.099891   3.663660   2.070480
                   11         12
    11  H    0.000000
    12  H    1.769850   0.000000
 Symmetry turned off by external request.
 Stoichiometry    C5H6O
 Framework group  C1[X(C5H6O)]
 Deg. of freedom    30
 Full point group                 C1      NOp   1
 Rotational constants (GHZ):           5.5566380           5.3689416           2.8335123
 Standard basis: def2TZVP (5D, 7F)
 The following finite field(s) will be applied:
 An electric field of              0.0041 -0.0029 -0.0086
   222 basis functions,   354 primitive gaussians,   252 cartesian basis functions
    22 alpha electrons       22 beta electrons
       nuclear repulsion energy       223.2854069101 Hartrees.
 NAtoms=   12 NActive=   12 NUniq=   12 SFac= 1.00D+00 NAtFMM=   60 NAOKFM=F Big=F
 Integral buffers will be    131072 words long.
 Raffenetti 2 integral format.
 Two-electron integral symmetry is turned off.
 One-electron integrals computed using PRISM.
   1 Symmetry operations used in ECPInt.
 ECPInt:  NShTT=    4095 NPrTT=   12396 LenC2=    4075 LenP2D=   10415.
 LDataN:  DoStor=T MaxTD1= 6 Len=  172
 NBasis=   222 RedAO= T EigKep=  9.50D-05  NBF=   222
 NBsUse=   222 1.00D-06 EigRej= -1.00D+00 NBFU=   222
 The nuclear repulsion energy is now       223.1866583777 hartrees.
 Initial guess from the checkpoint file:  "checkpoint.chk"
 B after Tr=     0.000352    0.002785    0.001099
         Rot=    0.999999   -0.000013    0.000152    0.001561 Ang=  -0.18 deg.
 Keep R1 ints in memory in canonical form, NReq=319363885.
 Requested convergence on RMS density matrix=1.00D-08 within 128 cycles.
 Requested convergence on MAX density matrix=1.00D-06.
 Requested convergence on             energy=1.00D-06.
 No special actions if energy rises.
 SCF Done:  E(RB3LYP) =  -269.426557696     A.U. after    9 cycles
            NFock=  9  Conv=0.39D-08     -V/T= 2.0050
   1 Symmetry operations used in ECPInt.
 ECPInt:  NShTT=    4095 NPrTT=   12396 LenC2=    4075 LenP2D=   10415.
 LDataN:  DoStor=T MaxTD1= 7 Len=  274
 Calling FoFJK, ICntrl=      2127 FMM=F ISym2X=0 I1Cent= 0 IOpClX= 0 NMat=1 NMatS=1 NMatT=0.
 -------------------------------------------------------------------
 Center     Atomic                   Forces (Hartrees/Bohr)
 Number     Number              X              Y              Z
 -------------------------------------------------------------------
      1        6          -0.000764063    0.000555173    0.000054442
      2        6           0.000847325    0.000442435   -0.000015476
      3        6           0.000051996   -0.000832318   -0.000075537
      4        1          -0.000008860   -0.000067905    0.000006464
      5        1          -0.000003779   -0.000107709    0.000032713
      6        1           0.000026979   -0.000063775    0.000078260
      7        6           0.000024453    0.000285982   -0.000050612
      8        6          -0.000208821   -0.000002335    0.000092684
      9        1          -0.000023197   -0.000004807   -0.000011817
     10        8           0.000118040   -0.000299687   -0.000206924
     11        1          -0.000106285    0.000037330    0.000056363
     12        1           0.000046214    0.000057615    0.000039441
 -------------------------------------------------------------------
 Cartesian Forces:  Max     0.000847325 RMS     0.000281154
 -----------------------------------------------------------------------------------------------
                       Internal Coordinate Forces (Hartree/Bohr or radian)
  Cent   Atom   N1       Length/X         N2         Alpha/Y        N3         Beta/Z          J
 -----------------------------------------------------------------------------------------------
      1  C 
      2  C        1   0.000206(     1)
      3  C        1   0.000304(     2)      2   0.001385(    12)
      4  H        1  -0.000000(     3)      2  -0.000015(    13)      3  -0.000120(    22)     0
      5  H        2   0.000013(     4)      1   0.000062(    14)      3   0.000577(    23)     0
      6  H        3  -0.000072(     5)      1   0.000054(    15)      2   0.000446(    24)     0
      7  C        3  -0.000044(     6)      1   0.001016(    16)      6   0.000570(    25)     0
      8  C        2  -0.000150(     7)      1   0.001048(    17)      5   0.000392(    26)     0
      9  H        7  -0.000017(     8)      3  -0.000042(    18)      1   0.000604(    27)     0
     10  O        7  -0.000242(     9)      3   0.000204(    19)      9   0.000603(    28)     0
     11  H        8   0.000068(    10)      2  -0.000208(    20)      1   0.000029(    29)     0
     12  H        8  -0.000038(    11)      2   0.000152(    21)     11  -0.000030(    30)     0
 -----------------------------------------------------------------------------------------------
 Internal  Forces:  Max     0.001385139 RMS     0.000452754

 GradGradGradGradGradGradGradGradGradGradGradGradGradGradGradGradGradGrad
 Berny optimization.
 Search for a local minimum.
 Step number   3 out of a maximum of   40
 All quantities printed in internal units (Hartrees-Bohrs-Radians)
 Update second derivatives using D2CorN and points    1    2    3
 DE= -5.87D-06 DEPred=-3.93D-06 R= 1.49D+00
 TightC=F SS=  1.41D+00  RLast= 1.17D-02 DXNew= 1.6818D-01 3.4982D-02
 Trust test= 1.49D+00 RLast= 1.17D-02 DXMaxT set to 1.00D-01
 ITU=  1  1  0
     Eigenvalues ---    0.03014   0.03397   0.04679   0.06486   0.06861
     Eigenvalues ---    0.12720   0.16373   0.18396   0.19801   0.21852
     Eigenvalues ---    0.26916   0.31010   0.33164   0.33617   0.34675
     Eigenvalues ---    0.35048   0.35477   0.35636   0.35764   0.35869
     Eigenvalues ---    0.38847   0.41742   0.51341   0.53735   0.56306
     Eigenvalues ---    0.56795   0.59315   1.97233   4.30876  22.28070
 RFO step:  Lambda=-3.91437082D-06 EMin= 3.01372599D-02
 Quartic linear search produced a step of  0.59747.
 Variable       Old X    -DE/DX   Delta X   Delta X   Delta X     New X
                                 (Linear)    (Quad)   (Total)
    R2        2.52333   0.00021  -0.00013   0.00004  -0.00008   2.52324
    R3        2.75208   0.00030  -0.00005   0.00028   0.00023   2.75231
    R4        2.04661  -0.00000  -0.00003   0.00002  -0.00001   2.04661
    R5        2.04458   0.00001   0.00004   0.00003   0.00008   2.04466
    R6        2.04361  -0.00007   0.00008  -0.00025  -0.00017   2.04343
    R7        2.53588  -0.00004  -0.00002  -0.00018  -0.00020   2.53568
    R8        2.83739  -0.00015   0.00007  -0.00038  -0.00031   2.83708
    R9        2.04879  -0.00002   0.00013  -0.00005   0.00008   2.04887
   R10        2.54072  -0.00024  -0.00084   0.00026  -0.00058   2.54014
   R11        2.05543   0.00007  -0.00010   0.00033   0.00024   2.05567
   R12        2.07849  -0.00004  -0.00015  -0.00013  -0.00028   2.07821
    A3        2.08351   0.00139  -0.00001   0.00062   0.00061   2.08412
    A4        2.10989  -0.00001  -0.00030  -0.00032  -0.00063   2.10927
    A5        2.13967   0.00006  -0.00021  -0.00003  -0.00024   2.13943
    A6        2.12312   0.00005  -0.00002   0.00022   0.00020   2.12332
    A7        2.06202   0.00102  -0.00008   0.00009   0.00001   2.06203
    A8        2.07902   0.00105   0.00125   0.00024   0.00149   2.08052
    A9        2.16612  -0.00004  -0.00081   0.00021  -0.00060   2.16552
   A10        2.16054   0.00020   0.00112  -0.00060   0.00052   2.16106
   A11        1.96019  -0.00021   0.00005  -0.00092  -0.00087   1.95932
   A12        1.93951   0.00015   0.00048  -0.00005   0.00043   1.93994
    D4       -3.06028  -0.00012   0.00131  -0.00225  -0.00094  -3.06122
    D5        3.05858   0.00058  -0.00099   0.00213   0.00114   3.05972
    D6        3.04536   0.00045   0.00318  -0.00116   0.00201   3.04738
    D7        3.01222   0.00057  -0.00025   0.00009  -0.00016   3.01207
    D8        3.13112   0.00039   0.00068   0.00046   0.00114   3.13226
    D9       -2.96671   0.00060  -0.00062  -0.00047  -0.00109  -2.96780
   D10        3.04783   0.00060  -0.00008   0.00161   0.00153   3.04936
   D11        2.58348   0.00003  -0.00547  -0.00278  -0.00826   2.57522
   D12        2.11382  -0.00003   0.00049  -0.00095  -0.00046   2.11336
         Item               Value     Threshold  Converged?
 Maximum Force            0.001385     0.000450     NO 
 RMS     Force            0.000453     0.000300     NO 
 Maximum Displacement     0.008255     0.001800     NO 
 RMS     Displacement     0.001681     0.001200     NO 
 Predicted change in Energy=-2.234921D-06
 GradGradGradGradGradGradGradGradGradGradGradGradGradGradGradGradGradGrad

 ---------------------------------------------------------------------------------------------------
                            Z-MATRIX (ANGSTROMS AND DEGREES)
   CD    Cent   Atom    N1       Length/X        N2       Alpha/Y        N3        Beta/Z          J
 ---------------------------------------------------------------------------------------------------
      1      1  C 
      2      2  C        1   1.335244(     1)
      3      3  C        1   1.456460(     2)      2  119.411(    12)
      4      4  H        1   1.083017(     3)      2  120.852(    13)      3 -175.395(    22)      0
      5      5  H        2   1.081985(     4)      1  122.580(    14)      3  175.309(    23)      0
      6      6  H        3   1.081339(     5)      1  121.657(    15)      2  174.602(    24)      0
      7      7  C        3   1.341825(     6)      1  118.145(    16)      6  172.579(    25)      0
      8      8  C        2   1.501318(     7)      1  119.205(    17)      5  179.465(    26)      0
      9      9  H        7   1.084217(     8)      3  124.075(    18)      1 -170.042(    27)      0
     10     10  O        7   1.344187(     9)      3  123.820(    19)      9  174.715(    28)      0
     11     11  H        8   1.087813(    10)      2  112.261(    20)      1  147.549(    29)      0
     12     12  H        8   1.099740(    11)      2  111.150(    21)     11  121.087(    30)      0
 ---------------------------------------------------------------------------------------------------
                         Z-Matrix orientation:                         
 ---------------------------------------------------------------------
 Center     Atomic      Atomic             Coordinates (Angstroms)
 Number     Number       Type             X           Y           Z
 ---------------------------------------------------------------------
      1          6           0        0.000000    0.000000    0.000000
      2          6           0        0.000000    0.000000    1.335244
      3          6           0        1.268746    0.000000   -0.715234
      4          1           0       -0.926762    0.074646   -0.555397
      5          1           0       -0.908668    0.074562    1.917871
      6          1           0        1.313130   -0.086591   -1.792186
      7          6           0        2.386661    0.262518   -0.021084
      8          6           0        1.305024   -0.119355    2.067789
      9          1           0        3.355464    0.440209   -0.474265
     10          8           0        2.416352    0.436672    1.311443
     11          1           0        1.299639    0.423577    3.010408
     12          1           0        1.544698   -1.170922    2.282712
 ---------------------------------------------------------------------
                    Distance matrix (angstroms):
                    1          2          3          4          5
     1  C    0.000000
     2  C    1.335244   0.000000
     3  C    1.456460   2.411260   0.000000
     4  H    1.083017   2.106889   2.202584   0.000000
     5  H    2.123551   1.081985   3.417592   2.473334   0.000000
     6  H    2.223452   3.393026   1.081339   2.563740   4.327457
     7  C    2.401148   2.757661   1.341825   3.361482   3.828063
     8  C    2.448077   1.501318   2.785817   3.449581   2.227220
     9  H    3.417287   3.837609   2.146216   4.298568   4.902941
    10  O    2.783761   2.455607   2.369620   3.846111   3.399212
    11  H    3.306212   2.162095   3.749771   4.218244   2.488387
    12  H    2.994649   2.157509   3.230307   3.964141   2.775490
                    6          7          8          9         10
     6  H    0.000000
     7  C    2.100274   0.000000
     8  C    3.860122   2.383098   0.000000
     9  H    2.487079   1.084217   3.313526   0.000000
    10  O    3.335178   1.344187   1.454743   2.017596   0.000000
    11  H    4.829634   3.224516   1.087813   4.045941   2.033152
    12  H    4.223055   2.840973   1.099740   3.670904   2.070629
                   11         12
    11  H    0.000000
    12  H    1.769753   0.000000
 Symmetry turned off by external request.
 Stoichiometry    C5H6O
 Framework group  C1[X(C5H6O)]
 Deg. of freedom    30
 Full point group                 C1      NOp   1
 Rotational constants (GHZ):           5.5521437           5.3697641           2.8308893
 Standard basis: def2TZVP (5D, 7F)
 The following finite field(s) will be applied:
 An electric field of              0.0041 -0.0029 -0.0086
   222 basis functions,   354 primitive gaussians,   252 cartesian basis functions
    22 alpha electrons       22 beta electrons
       nuclear repulsion energy       223.2471030714 Hartrees.
 NAtoms=   12 NActive=   12 NUniq=   12 SFac= 1.00D+00 NAtFMM=   60 NAOKFM=F Big=F
 Integral buffers will be    131072 words long.
 Raffenetti 2 integral format.
 Two-electron integral symmetry is turned off.
 One-electron integrals computed using PRISM.
   1 Symmetry operations used in ECPInt.
 ECPInt:  NShTT=    4095 NPrTT=   12396 LenC2=    4075 LenP2D=   10415.
 LDataN:  DoStor=T MaxTD1= 6 Len=  172
 NBasis=   222 RedAO= T EigKep=  9.49D-05  NBF=   222
 NBsUse=   222 1.00D-06 EigRej= -1.00D+00 NBFU=   222
 The nuclear repulsion energy is now       223.1485815965 hartrees.
 Initial guess from the checkpoint file:  "checkpoint.chk"
 B after Tr=    -0.000215    0.000653    0.000256
         Rot=    1.000000    0.000539   -0.000060    0.000635 Ang=   0.10 deg.
 Keep R1 ints in memory in canonical form, NReq=319363885.
 Requested convergence on RMS density matrix=1.00D-08 within 128 cycles.
 Requested convergence on MAX density matrix=1.00D-06.
 Requested convergence on             energy=1.00D-06.
 No special actions if energy rises.
 SCF Done:  E(RB3LYP) =  -269.426561227     A.U. after    8 cycles
            NFock=  8  Conv=0.70D-08     -V/T= 2.0050
   1 Symmetry operations used in ECPInt.
 ECPInt:  NShTT=    4095 NPrTT=   12396 LenC2=    4075 LenP2D=   10415.
 LDataN:  DoStor=T MaxTD1= 7 Len=  274
 Calling FoFJK, ICntrl=      2127 FMM=F ISym2X=0 I1Cent= 0 IOpClX= 0 NMat=1 NMatS=1 NMatT=0.
 -------------------------------------------------------------------
 Center     Atomic                   Forces (Hartrees/Bohr)
 Number     Number              X              Y              Z
 -------------------------------------------------------------------
      1        6          -0.000773598    0.000466447    0.000057190
      2        6           0.000841203    0.000545797   -0.000068502
      3        6          -0.000016662   -0.000731562   -0.000026521
      4        1          -0.000001361   -0.000091779   -0.000014417
      5        1          -0.000004385   -0.000098275    0.000007742
      6        1          -0.000005643   -0.000070117    0.000024823
      7        6          -0.000070861    0.000122523   -0.000111198
      8        6          -0.000016512   -0.000015886   -0.000128780
      9        1          -0.000013204   -0.000012923    0.000069060
     10        8           0.000043399   -0.000153095    0.000116110
     11        1          -0.000023284    0.000015251    0.000012423
     12        1           0.000040909    0.000023619    0.000062070
 -------------------------------------------------------------------
 Cartesian Forces:  Max     0.000841203 RMS     0.000262998
 -----------------------------------------------------------------------------------------------
                       Internal Coordinate Forces (Hartree/Bohr or radian)
  Cent   Atom   N1       Length/X         N2         Alpha/Y        N3         Beta/Z          J
 -----------------------------------------------------------------------------------------------
      1  C 
      2  C        1  -0.000115(     1)
      3  C        1  -0.000090(     2)      2  -0.000301(    12)
      4  H        1   0.000002(     3)      2   0.000032(    13)      3  -0.000161(    22)     0
      5  H        2   0.000001(     4)      1   0.000017(    14)      3   0.000342(    23)     0
      6  H        3  -0.000019(     5)      1  -0.000017(    15)      2   0.000393(    24)     0
      7  C        3  -0.000004(     6)      1  -0.000252(    16)      6   0.000517(    25)     0
      8  C        2  -0.000027(     7)      1  -0.000067(    17)      5   0.000173(    26)     0
      9  H        7  -0.000043(     8)      3   0.000114(    18)      1   0.000339(    27)     0
     10  O        7   0.000096(     9)      3   0.000039(    19)      9   0.000361(    28)     0
     11  H        8   0.000018(    10)      2  -0.000050(    20)      1  -0.000067(    29)     0
     12  H        8  -0.000002(    11)      2   0.000144(    21)     11  -0.000070(    30)     0
 -----------------------------------------------------------------------------------------------
 Internal  Forces:  Max     0.000517228 RMS     0.000189827

 GradGradGradGradGradGradGradGradGradGradGradGradGradGradGradGradGradGrad
 Berny optimization.
 Search for a local minimum.
 Step number   4 out of a maximum of   40
 All quantities printed in internal units (Hartrees-Bohrs-Radians)
 Update second derivatives using D2CorN and points    1    2    3    4
 DE= -3.53D-06 DEPred=-2.23D-06 R= 1.58D+00
 TightC=F SS=  1.41D+00  RLast= 9.21D-03 DXNew= 1.6818D-01 2.7630D-02
 Trust test= 1.58D+00 RLast= 9.21D-03 DXMaxT set to 1.00D-01
 ITU=  1  1  1  0
     Eigenvalues ---    0.02105   0.03512   0.04669   0.06417   0.06862
     Eigenvalues ---    0.12694   0.16274   0.18429   0.19809   0.21854
     Eigenvalues ---    0.26921   0.31006   0.33145   0.33613   0.34670
     Eigenvalues ---    0.35048   0.35476   0.35636   0.35763   0.35867
     Eigenvalues ---    0.38835   0.41364   0.51371   0.53729   0.56326
     Eigenvalues ---    0.56796   0.59333   1.97256   4.30358  22.28113
 RFO step:  Lambda=-1.64415938D-06 EMin= 2.10545561D-02
 Quartic linear search produced a step of  0.59194.
 Variable       Old X    -DE/DX   Delta X   Delta X   Delta X     New X
                                 (Linear)    (Quad)   (Total)
    R2        2.52324  -0.00012  -0.00005  -0.00018  -0.00023   2.52301
    R3        2.75231  -0.00009   0.00014  -0.00020  -0.00006   2.75225
    R4        2.04661   0.00000  -0.00000   0.00001   0.00001   2.04661
    R5        2.04466   0.00000   0.00005  -0.00001   0.00004   2.04469
    R6        2.04343  -0.00002  -0.00010   0.00005  -0.00005   2.04338
    R7        2.53568  -0.00000  -0.00012   0.00008  -0.00004   2.53564
    R8        2.83708  -0.00003  -0.00018   0.00005  -0.00013   2.83695
    R9        2.04887  -0.00004   0.00005  -0.00014  -0.00009   2.04878
   R10        2.54014   0.00010  -0.00034   0.00009  -0.00025   2.53990
   R11        2.05567   0.00002   0.00014  -0.00001   0.00013   2.05579
   R12        2.07821  -0.00000  -0.00017   0.00002  -0.00015   2.07806
    A3        2.08412  -0.00030   0.00036  -0.00025   0.00011   2.08423
    A4        2.10927   0.00003  -0.00037   0.00029  -0.00009   2.10918
    A5        2.13943   0.00002  -0.00014  -0.00028  -0.00042   2.13901
    A6        2.12332  -0.00002   0.00012  -0.00007   0.00005   2.12338
    A7        2.06203  -0.00025   0.00001  -0.00010  -0.00009   2.06194
    A8        2.08052  -0.00007   0.00088   0.00059   0.00147   2.08199
    A9        2.16552   0.00011  -0.00035   0.00042   0.00007   2.16559
   A10        2.16106   0.00004   0.00031   0.00063   0.00094   2.16200
   A11        1.95932  -0.00005  -0.00051  -0.00026  -0.00077   1.95855
   A12        1.93994   0.00014   0.00025   0.00071   0.00097   1.94091
    D4       -3.06122  -0.00016  -0.00056  -0.00197  -0.00253  -3.06375
    D5        3.05972   0.00034   0.00068   0.00145   0.00212   3.06184
    D6        3.04738   0.00039   0.00119  -0.00057   0.00062   3.04800
    D7        3.01207   0.00052  -0.00009   0.00128   0.00119   3.01325
    D8        3.13226   0.00017   0.00067  -0.00101  -0.00034   3.13192
    D9       -2.96780   0.00034  -0.00065  -0.00155  -0.00220  -2.97000
   D10        3.04936   0.00036   0.00091   0.00117   0.00207   3.05143
   D11        2.57522  -0.00007  -0.00489  -0.00254  -0.00742   2.56780
   D12        2.11336  -0.00007  -0.00027  -0.00004  -0.00031   2.11305
         Item               Value     Threshold  Converged?
 Maximum Force            0.000517     0.000450     NO 
 RMS     Force            0.000190     0.000300     YES
 Maximum Displacement     0.007425     0.001800     NO 
 RMS     Displacement     0.001655     0.001200     NO 
 Predicted change in Energy=-1.188994D-06
 GradGradGradGradGradGradGradGradGradGradGradGradGradGradGradGradGradGrad

 ---------------------------------------------------------------------------------------------------
                            Z-MATRIX (ANGSTROMS AND DEGREES)
   CD    Cent   Atom    N1       Length/X        N2       Alpha/Y        N3        Beta/Z          J
 ---------------------------------------------------------------------------------------------------
      1      1  C 
      2      2  C        1   1.335120(     1)
      3      3  C        1   1.456428(     2)      2  119.418(    12)
      4      4  H        1   1.083021(     3)      2  120.847(    13)      3 -175.540(    22)      0
      5      5  H        2   1.082004(     4)      1  122.556(    14)      3  175.431(    23)      0
      6      6  H        3   1.081311(     5)      1  121.660(    15)      2  174.638(    24)      0
      7      7  C        3   1.341804(     6)      1  118.140(    16)      6  172.647(    25)      0
      8      8  C        2   1.501250(     7)      1  119.289(    17)      5  179.446(    26)      0
      9      9  H        7   1.084168(     8)      3  124.079(    18)      1 -170.168(    27)      0
     10     10  O        7   1.344055(     9)      3  123.873(    19)      9  174.834(    28)      0
     11     11  H        8   1.087879(    10)      2  112.217(    20)      1  147.124(    29)      0
     12     12  H        8   1.099662(    11)      2  111.206(    21)     11  121.069(    30)      0
 ---------------------------------------------------------------------------------------------------
                         Z-Matrix orientation:                         
 ---------------------------------------------------------------------
 Center     Atomic      Atomic             Coordinates (Angstroms)
 Number     Number       Type             X           Y           Z
 ---------------------------------------------------------------------
      1          6           0        0.000000    0.000000    0.000000
      2          6           0        0.000000    0.000000    1.335120
      3          6           0        1.268640    0.000000   -0.715358
      4          1           0       -0.926999    0.072306   -0.555319
      5          1           0       -0.909083    0.072654    1.917375
      6          1           0        1.312934   -0.086016   -1.792332
      7          6           0        2.386781    0.260439   -0.020829
      8          6           0        1.304098   -0.116922    2.069564
      9          1           0        3.356107    0.436074   -0.473574
     10          8           0        2.417873    0.432759    1.311771
     11          1           0        1.298094    0.432494    3.008492
     12          1           0        1.542371   -1.167087    2.292358
 ---------------------------------------------------------------------
                    Distance matrix (angstroms):
                    1          2          3          4          5
     1  C    0.000000
     2  C    1.335120   0.000000
     3  C    1.456428   2.411204   0.000000
     4  H    1.083021   2.106731   2.202650   0.000000
     5  H    2.123214   1.082004   3.417461   2.472759   0.000000
     6  H    2.223432   3.392956   1.081311   2.563701   4.327177
     7  C    2.401038   2.757381   1.341804   3.361876   3.828135
     8  C    2.448967   1.501250   2.787600   3.450161   2.226493
     9  H    3.417293   3.837316   2.146192   4.299303   4.903118
    10  O    2.784624   2.456407   2.370078   3.847612   3.400745
    11  H    3.305015   2.161545   3.748997   4.216815   2.488303
    12  H    2.999318   2.158079   3.237804   3.967763   2.772579
                    6          7          8          9         10
     6  H    0.000000
     7  C    2.100333   0.000000
     8  C    3.862029   2.384186   0.000000
     9  H    2.487218   1.084168   3.314226   0.000000
    10  O    3.335486   1.344055   1.454955   2.016867   0.000000
    11  H    4.828767   3.223605   1.087879   4.044777   2.032921
    12  H    4.231554   2.846348   1.099662   3.675615   2.070644
                   11         12
    11  H    0.000000
    12  H    1.769514   0.000000
 Symmetry turned off by external request.
 Stoichiometry    C5H6O
 Framework group  C1[X(C5H6O)]
 Deg. of freedom    30
 Full point group                 C1      NOp   1
 Rotational constants (GHZ):           5.5507856           5.3691820           2.8290062
 Standard basis: def2TZVP (5D, 7F)
 The following finite field(s) will be applied:
 An electric field of              0.0041 -0.0029 -0.0086
   222 basis functions,   354 primitive gaussians,   252 cartesian basis functions
    22 alpha electrons       22 beta electrons
       nuclear repulsion energy       223.2255414329 Hartrees.
 NAtoms=   12 NActive=   12 NUniq=   12 SFac= 1.00D+00 NAtFMM=   60 NAOKFM=F Big=F
 Integral buffers will be    131072 words long.
 Raffenetti 2 integral format.
 Two-electron integral symmetry is turned off.
 One-electron integrals computed using PRISM.
   1 Symmetry operations used in ECPInt.
 ECPInt:  NShTT=    4095 NPrTT=   12396 LenC2=    4075 LenP2D=   10415.
 LDataN:  DoStor=T MaxTD1= 6 Len=  172
 NBasis=   222 RedAO= T EigKep=  9.46D-05  NBF=   222
 NBsUse=   222 1.00D-06 EigRej= -1.00D+00 NBFU=   222
 The nuclear repulsion energy is now       223.1268275847 hartrees.
 Initial guess from the checkpoint file:  "checkpoint.chk"
 B after Tr=     0.000235    0.000054    0.000546
         Rot=    1.000000    0.000487    0.000114    0.000507 Ang=   0.08 deg.
 Keep R1 ints in memory in canonical form, NReq=319363885.
 Requested convergence on RMS density matrix=1.00D-08 within 128 cycles.
 Requested convergence on MAX density matrix=1.00D-06.
 Requested convergence on             energy=1.00D-06.
 No special actions if energy rises.
 SCF Done:  E(RB3LYP) =  -269.426562778     A.U. after    9 cycles
            NFock=  9  Conv=0.31D-08     -V/T= 2.0050
   1 Symmetry operations used in ECPInt.
 ECPInt:  NShTT=    4095 NPrTT=   12396 LenC2=    4075 LenP2D=   10415.
 LDataN:  DoStor=T MaxTD1= 7 Len=  274
 Calling FoFJK, ICntrl=      2127 FMM=F ISym2X=0 I1Cent= 0 IOpClX= 0 NMat=1 NMatS=1 NMatT=0.
 -------------------------------------------------------------------
 Center     Atomic                   Forces (Hartrees/Bohr)
 Number     Number              X              Y              Z
 -------------------------------------------------------------------
      1        6          -0.000775771    0.000321115    0.000015351
      2        6           0.000772395    0.000523432    0.000006161
      3        6           0.000051990   -0.000647775    0.000035430
      4        1           0.000004635   -0.000046355   -0.000000037
      5        1          -0.000003483   -0.000073446    0.000016390
      6        1           0.000005922   -0.000045512    0.000017135
      7        6           0.000011088   -0.000010699   -0.000194915
      8        6           0.000081505    0.000099892   -0.000078068
      9        1           0.000001673   -0.000002326    0.000002480
     10        8          -0.000082758   -0.000072486    0.000101728
     11        1          -0.000048544   -0.000040826    0.000053188
     12        1          -0.000018650   -0.000005014    0.000025158
 -------------------------------------------------------------------
 Cartesian Forces:  Max     0.000775771 RMS     0.000241573
 -----------------------------------------------------------------------------------------------
                       Internal Coordinate Forces (Hartree/Bohr or radian)
  Cent   Atom   N1       Length/X         N2         Alpha/Y        N3         Beta/Z          J
 -----------------------------------------------------------------------------------------------
      1  C 
      2  C        1   0.000023(     1)
      3  C        1   0.000008(     2)      2  -0.000026(    12)
      4  H        1  -0.000007(     3)      2   0.000009(    13)      3  -0.000081(    22)     0
      5  H        2   0.000007(     4)      1   0.000031(    14)      3   0.000275(    23)     0
      6  H        3  -0.000013(     5)      1   0.000009(    15)      2   0.000227(    24)     0
      7  C        3  -0.000122(     6)      1  -0.000123(    16)      6   0.000309(    25)     0
      8  C        2   0.000008(     7)      1   0.000085(    17)      5   0.000148(    26)     0
      9  H        7   0.000000(     8)      3   0.000005(    18)      1   0.000145(    27)     0
     10  O        7   0.000090(     9)      3  -0.000246(    19)      9   0.000150(    28)     0
     11  H        8   0.000026(    10)      2  -0.000050(    20)      1   0.000083(    29)     0
     12  H        8   0.000006(    11)      2  -0.000013(    21)     11  -0.000059(    30)     0
 -----------------------------------------------------------------------------------------------
 Internal  Forces:  Max     0.000308761 RMS     0.000117831

 GradGradGradGradGradGradGradGradGradGradGradGradGradGradGradGradGradGrad
 Berny optimization.
 Search for a local minimum.
 Step number   5 out of a maximum of   40
 All quantities printed in internal units (Hartrees-Bohrs-Radians)
 Update second derivatives using D2CorN and points    1    2    3    4    5

 DE= -1.55D-06 DEPred=-1.19D-06 R= 1.30D+00
 TightC=F SS=  1.41D+00  RLast= 9.06D-03 DXNew= 1.6818D-01 2.7189D-02
 Trust test= 1.30D+00 RLast= 9.06D-03 DXMaxT set to 1.00D-01
 ITU=  1  1  1  1  0
     Eigenvalues ---    0.01812   0.03674   0.04682   0.06386   0.06855
     Eigenvalues ---    0.12689   0.16254   0.18398   0.19811   0.21852
     Eigenvalues ---    0.26919   0.31002   0.33140   0.33614   0.34668
     Eigenvalues ---    0.35048   0.35474   0.35636   0.35763   0.35869
     Eigenvalues ---    0.38830   0.41223   0.51367   0.53762   0.56316
     Eigenvalues ---    0.56801   0.59318   1.97266   4.30207  22.28112
 RFO step:  Lambda=-5.26123096D-07 EMin= 1.81156022D-02
 Quartic linear search produced a step of  0.26602.
 Variable       Old X    -DE/DX   Delta X   Delta X   Delta X     New X
                                 (Linear)    (Quad)   (Total)
    R2        2.52301   0.00002  -0.00006   0.00003  -0.00003   2.52298
    R3        2.75225   0.00001  -0.00002   0.00013   0.00011   2.75236
    R4        2.04661  -0.00001   0.00000  -0.00003  -0.00002   2.04659
    R5        2.04469   0.00001   0.00001   0.00002   0.00003   2.04472
    R6        2.04338  -0.00001  -0.00001  -0.00002  -0.00004   2.04334
    R7        2.53564  -0.00012  -0.00001  -0.00016  -0.00017   2.53547
    R8        2.83695   0.00001  -0.00003  -0.00008  -0.00011   2.83684
    R9        2.04878   0.00000  -0.00002   0.00004   0.00001   2.04879
   R10        2.53990   0.00009  -0.00007   0.00026   0.00020   2.54009
   R11        2.05579   0.00003   0.00003   0.00008   0.00011   2.05590
   R12        2.07806   0.00001  -0.00004   0.00003  -0.00001   2.07805
    A3        2.08423  -0.00003   0.00003   0.00012   0.00015   2.08439
    A4        2.10918   0.00001  -0.00002  -0.00003  -0.00006   2.10912
    A5        2.13901   0.00003  -0.00011   0.00008  -0.00003   2.13898
    A6        2.12338   0.00001   0.00001   0.00000   0.00002   2.12339
    A7        2.06194  -0.00012  -0.00002   0.00015   0.00013   2.06206
    A8        2.08199   0.00008   0.00039  -0.00002   0.00037   2.08237
    A9        2.16559   0.00001   0.00002   0.00009   0.00011   2.16570
   A10        2.16200  -0.00025   0.00025  -0.00036  -0.00011   2.16188
   A11        1.95855  -0.00005  -0.00021  -0.00006  -0.00027   1.95828
   A12        1.94091  -0.00001   0.00026  -0.00044  -0.00019   1.94072
    D4       -3.06375  -0.00008  -0.00067  -0.00106  -0.00174  -3.06549
    D5        3.06184   0.00027   0.00056   0.00124   0.00181   3.06365
    D6        3.04800   0.00023   0.00017  -0.00086  -0.00069   3.04731
    D7        3.01325   0.00031   0.00032   0.00093   0.00125   3.01450
    D8        3.13192   0.00015  -0.00009  -0.00053  -0.00062   3.13130
    D9       -2.97000   0.00015  -0.00058  -0.00083  -0.00142  -2.97141
   D10        3.05143   0.00015   0.00055   0.00009   0.00064   3.05207
   D11        2.56780   0.00008  -0.00198  -0.00014  -0.00212   2.56568
   D12        2.11305  -0.00006  -0.00008  -0.00064  -0.00072   2.11232
         Item               Value     Threshold  Converged?
 Maximum Force            0.000309     0.000450     YES
 RMS     Force            0.000118     0.000300     YES
 Maximum Displacement     0.002119     0.001800     NO 
 RMS     Displacement     0.000743     0.001200     YES
 Predicted change in Energy=-2.897870D-07
 GradGradGradGradGradGradGradGradGradGradGradGradGradGradGradGradGradGrad

 ---------------------------------------------------------------------------------------------------
                            Z-MATRIX (ANGSTROMS AND DEGREES)
   CD    Cent   Atom    N1       Length/X        N2       Alpha/Y        N3        Beta/Z          J
 ---------------------------------------------------------------------------------------------------
      1      1  C 
      2      2  C        1   1.335106(     1)
      3      3  C        1   1.456487(     2)      2  119.426(    12)
      4      4  H        1   1.083008(     3)      2  120.844(    13)      3 -175.639(    22)      0
      5      5  H        2   1.082020(     4)      1  122.554(    14)      3  175.534(    23)      0
      6      6  H        3   1.081292(     5)      1  121.662(    15)      2  174.598(    24)      0
      7      7  C        3   1.341712(     6)      1  118.148(    16)      6  172.718(    25)      0
      8      8  C        2   1.501190(     7)      1  119.311(    17)      5  179.411(    26)      0
      9      9  H        7   1.084174(     8)      3  124.085(    18)      1 -170.249(    27)      0
     10     10  O        7   1.344160(     9)      3  123.867(    19)      9  174.871(    28)      0
     11     11  H        8   1.087938(    10)      2  112.201(    20)      1  147.003(    29)      0
     12     12  H        8   1.099656(    11)      2  111.195(    21)     11  121.027(    30)      0
 ---------------------------------------------------------------------------------------------------
                         Z-Matrix orientation:                         
 ---------------------------------------------------------------------
 Center     Atomic      Atomic             Coordinates (Angstroms)
 Number     Number       Type             X           Y           Z
 ---------------------------------------------------------------------
      1          6           0        0.000000    0.000000    0.000000
      2          6           0        0.000000    0.000000    1.335106
      3          6           0        1.268581    0.000000   -0.715581
      4          1           0       -0.927143    0.070699   -0.555259
      5          1           0       -0.909246    0.071012    1.917340
      6          1           0        1.312759   -0.086648   -1.792490
      7          6           0        2.386916    0.259766   -0.021290
      8          6           0        1.303912   -0.115344    2.070007
      9          1           0        3.356474    0.434097   -0.474058
     10          8           0        2.418152    0.432293    1.311385
     11          1           0        1.297357    0.435944    3.007902
     12          1           0        1.541761   -1.165050    2.295372
 ---------------------------------------------------------------------
                    Distance matrix (angstroms):
                    1          2          3          4          5
     1  C    0.000000
     2  C    1.335106   0.000000
     3  C    1.456487   2.411351   0.000000
     4  H    1.083008   2.106673   2.202704   0.000000
     5  H    2.123196   1.082020   3.417637   2.472663   0.000000
     6  H    2.223480   3.393036   1.081292   2.563720   4.327239
     7  C    2.401103   2.757654   1.341712   3.362121   3.828655
     8  C    2.449167   1.501190   2.788199   3.450252   2.226231
     9  H    3.417468   3.837633   2.146176   4.299771   4.903772
    10  O    2.784613   2.456603   2.370018   3.847871   3.401364
    11  H    3.304642   2.161349   3.749027   4.216387   2.488292
    12  H    3.000516   2.157887   3.240032   3.968458   2.770955
                    6          7          8          9         10
     6  H    0.000000
     7  C    2.100229   0.000000
     8  C    3.862613   2.384770   0.000000
     9  H    2.487209   1.084174   3.314689   0.000000
    10  O    3.335451   1.344160   1.454972   2.016992   0.000000
    11  H    4.828778   3.224001   1.087938   4.045245   2.033314
    12  H    4.233911   2.848036   1.099656   3.676981   2.070699
                   11         12
    11  H    0.000000
    12  H    1.769354   0.000000
 Symmetry turned off by external request.
 Stoichiometry    C5H6O
 Framework group  C1[X(C5H6O)]
 Deg. of freedom    30
 Full point group                 C1      NOp   1
 Rotational constants (GHZ):           5.5495522           5.3696131           2.8283294
 Standard basis: def2TZVP (5D, 7F)
 The following finite field(s) will be applied:
 An electric field of              0.0041 -0.0029 -0.0086
   222 basis functions,   354 primitive gaussians,   252 cartesian basis functions
    22 alpha electrons       22 beta electrons
       nuclear repulsion energy       223.2160687643 Hartrees.
 NAtoms=   12 NActive=   12 NUniq=   12 SFac= 1.00D+00 NAtFMM=   60 NAOKFM=F Big=F
 Integral buffers will be    131072 words long.
 Raffenetti 2 integral format.
 Two-electron integral symmetry is turned off.
 One-electron integrals computed using PRISM.
   1 Symmetry operations used in ECPInt.
 ECPInt:  NShTT=    4095 NPrTT=   12396 LenC2=    4075 LenP2D=   10415.
 LDataN:  DoStor=T MaxTD1= 6 Len=  172
 NBasis=   222 RedAO= T EigKep=  9.45D-05  NBF=   222
 NBsUse=   222 1.00D-06 EigRej= -1.00D+00 NBFU=   222
 The nuclear repulsion energy is now       223.1173943264 hartrees.
 Initial guess from the checkpoint file:  "checkpoint.chk"
 B after Tr=    -0.000019   -0.000480   -0.000008
         Rot=    1.000000    0.000307   -0.000001    0.000059 Ang=   0.04 deg.
 Keep R1 ints in memory in canonical form, NReq=319363885.
 Requested convergence on RMS density matrix=1.00D-08 within 128 cycles.
 Requested convergence on MAX density matrix=1.00D-06.
 Requested convergence on             energy=1.00D-06.
 No special actions if energy rises.
 SCF Done:  E(RB3LYP) =  -269.426563192     A.U. after    8 cycles
            NFock=  8  Conv=0.46D-08     -V/T= 2.0050
   1 Symmetry operations used in ECPInt.
 ECPInt:  NShTT=    4095 NPrTT=   12396 LenC2=    4075 LenP2D=   10415.
 LDataN:  DoStor=T MaxTD1= 7 Len=  274
 Calling FoFJK, ICntrl=      2127 FMM=F ISym2X=0 I1Cent= 0 IOpClX= 0 NMat=1 NMatS=1 NMatT=0.
 -------------------------------------------------------------------
 Center     Atomic                   Forces (Hartrees/Bohr)
 Number     Number              X              Y              Z
 -------------------------------------------------------------------
      1        6          -0.000770472    0.000242642    0.000007411
      2        6           0.000761903    0.000540007   -0.000030822
      3        6           0.000011981   -0.000644520    0.000022406
      4        1           0.000000888   -0.000022038   -0.000002128
      5        1          -0.000000657   -0.000044479    0.000007392
      6        1          -0.000005252   -0.000034347    0.000002068
      7        6          -0.000012681   -0.000030583   -0.000083976
      8        6           0.000080154    0.000042832   -0.000088440
      9        1          -0.000005666    0.000008246    0.000017942
     10        8          -0.000046127   -0.000025680    0.000108133
     11        1          -0.000004987   -0.000021290    0.000014582
     12        1          -0.000009085   -0.000010789    0.000025434
 -------------------------------------------------------------------
 Cartesian Forces:  Max     0.000770472 RMS     0.000234880
 -----------------------------------------------------------------------------------------------
                       Internal Coordinate Forces (Hartree/Bohr or radian)
  Cent   Atom   N1       Length/X         N2         Alpha/Y        N3         Beta/Z          J
 -----------------------------------------------------------------------------------------------
      1  C 
      2  C        1  -0.000072(     1)
      3  C        1  -0.000083(     2)      2  -0.000395(    12)
      4  H        1  -0.000001(     3)      2   0.000006(    13)      3  -0.000038(    22)     0
      5  H        2   0.000002(     4)      1   0.000016(    14)      3   0.000100(    23)     0
      6  H        3   0.000000(     5)      1  -0.000014(    15)      2   0.000131(    24)     0
      7  C        3  -0.000041(     6)      1  -0.000330(    16)      6   0.000191(    25)     0
      8  C        2   0.000033(     7)      1  -0.000187(    17)      5   0.000023(    26)     0
      9  H        7  -0.000011(     8)      3   0.000031(    18)      1   0.000081(    27)     0
     10  O        7   0.000103(     9)      3  -0.000137(    19)      9   0.000067(    28)     0
     11  H        8   0.000002(    10)      2   0.000008(    20)      1  -0.000001(    29)     0
     12  H        8   0.000014(    11)      2   0.000001(    21)     11  -0.000050(    30)     0
 -----------------------------------------------------------------------------------------------
 Internal  Forces:  Max     0.000395124 RMS     0.000118991

[...]
     Eigenvalues ---    0.55641   0.58945   1.95827   4.09911  15.98627
 Angle between quadratic step and forces=  80.96 degrees.
 Linear search not attempted -- first point.
 Variable       Old X    -DE/DX   Delta X   Delta X   Delta X     New X
                                 (Linear)    (Quad)   (Total)
    R2        2.52298  -0.00007   0.00000  -0.00006  -0.00006   2.52293
    R3        2.75236  -0.00008   0.00000   0.00003   0.00003   2.75239
    R4        2.04659  -0.00000   0.00000  -0.00001  -0.00001   2.04657
    R5        2.04472   0.00000   0.00000   0.00001   0.00001   2.04474
    R6        2.04334   0.00000   0.00000   0.00001   0.00001   2.04335
    R7        2.53547  -0.00004   0.00000  -0.00009  -0.00009   2.53538
    R8        2.83684   0.00003   0.00000   0.00003   0.00003   2.83687
    R9        2.04879  -0.00001   0.00000  -0.00005  -0.00005   2.04874
   R10        2.54009   0.00010   0.00000   0.00028   0.00028   2.54037
   R11        2.05590   0.00000   0.00000   0.00004   0.00004   2.05594
   R12        2.07805   0.00001   0.00000   0.00010   0.00010   2.07815
    A3        2.08439  -0.00040   0.00000  -0.00013  -0.00013   2.08426
    A4        2.10912   0.00001   0.00000   0.00012   0.00012   2.10924
    A5        2.13898   0.00002   0.00000   0.00008   0.00008   2.13905
    A6        2.12339  -0.00001   0.00000  -0.00009  -0.00009   2.12331
    A7        2.06206  -0.00033   0.00000   0.00016   0.00016   2.06222
    A8        2.08237  -0.00019   0.00000   0.00011   0.00011   2.08247
    A9        2.16570   0.00003   0.00000   0.00021   0.00021   2.16590
   A10        2.16188  -0.00014   0.00000  -0.00007  -0.00007   2.16182
   A11        1.95828   0.00001   0.00000  -0.00007  -0.00007   1.95821
   A12        1.94072   0.00000   0.00000  -0.00023  -0.00023   1.94049
    D4       -3.06549  -0.00004   0.00000  -0.00105  -0.00105  -3.06654
    D5        3.06365   0.00010   0.00000   0.00170   0.00170   3.06535
    D6        3.04731   0.00013   0.00000  -0.00114  -0.00114   3.04617
    D7        3.01450   0.00019   0.00000   0.00169   0.00169   3.01619
    D8        3.13130   0.00002   0.00000  -0.00165  -0.00165   3.12965
    D9       -2.97141   0.00008   0.00000  -0.00066  -0.00066  -2.97207
   D10        3.05207   0.00007   0.00000  -0.00007  -0.00007   3.05200
   D11        2.56568  -0.00000   0.00000  -0.00004  -0.00004   2.56564
   D12        2.11232  -0.00005   0.00000  -0.00073  -0.00073   2.11159
         Item               Value     Threshold  Converged?
 Maximum Force            0.000395     0.000450     YES
 RMS     Force            0.000119     0.000300     YES
 Maximum Displacement     0.001701     0.001800     YES
 RMS     Displacement     0.000636     0.001200     YES
 Predicted change in Energy=-1.786397D-07
 Optimization completed.
    -- Stationary point found.
                       ----------------------------
                       !   Optimized Parameters   !
                       ! (Angstroms and Degrees)  !
 ----------------------                            ----------------------
 !      Name          Value   Derivative information (Atomic Units)     !
 ------------------------------------------------------------------------
 !       R2          1.3351   -DE/DX =   -0.0001                        !
 !       R3          1.4565   -DE/DX =   -0.0001                        !
 !       R4          1.083    -DE/DX =    0.0                           !
 !       R5          1.082    -DE/DX =    0.0                           !
 !       R6          1.0813   -DE/DX =    0.0                           !
 !       R7          1.3417   -DE/DX =    0.0                           !
 !       R8          1.5012   -DE/DX =    0.0                           !
 !       R9          1.0842   -DE/DX =    0.0                           !
 !       R10         1.3442   -DE/DX =    0.0001                        !
 !       R11         1.0879   -DE/DX =    0.0                           !
 !       R12         1.0997   -DE/DX =    0.0                           !
 !       A3        119.4265   -DE/DX =   -0.0004                        !
 !       A4        120.8439   -DE/DX =    0.0                           !
 !       A5        122.5543   -DE/DX =    0.0                           !
 !       A6        121.6615   -DE/DX =    0.0                           !
 !       A7        118.1476   -DE/DX =   -0.0003                        !
 !       A8        119.3107   -DE/DX =   -0.0002                        !
 !       A9        124.0853   -DE/DX =    0.0                           !
 !       A10       123.8669   -DE/DX =   -0.0001                        !
 !       A11       112.2014   -DE/DX =    0.0                           !
 !       A12       111.195    -DE/DX =    0.0                           !
 !       D4       -175.6394   -DE/DX =    0.0                           !
 !       D5        175.5343   -DE/DX =    0.0001                        !
 !       D6        174.5978   -DE/DX =    0.0001                        !
 !       D7        172.7181   -DE/DX =    0.0002                        !
 !       D8        179.4105   -DE/DX =    0.0                           !
 !       D9       -170.2493   -DE/DX =    0.0001                        !
 !       D10       174.8706   -DE/DX =    0.0001                        !
 !       D11       147.0026   -DE/DX =    0.0                           !
 !       D12       121.0273   -DE/DX =    0.0                           !
 ------------------------------------------------------------------------
 GradGradGradGradGradGradGradGradGradGradGradGradGradGradGradGradGradGrad


 ----------------------------------------------------------------------

 Electric dipole moment (input orientation):
 (Debye = 10**-18 statcoulomb cm , SI units = C m)
                  (au)            (Debye)         (10**-30 SI)
   Tot        0.842233D+00      0.214074D+01      0.714075D+01
   x         -0.531064D+00     -0.134983D+01     -0.450254D+01
   y         -0.236162D-01     -0.600264D-01     -0.200227D+00
   z          0.653276D+00      0.166046D+01      0.553871D+01

 Dipole polarizability, Alpha (input orientation).
 (esu units = cm**3 , SI units = C**2 m**2 J**-1)
 Alpha(0;0):
               (au)            (10**-24 esu)      (10**-40 SI)
   iso        0.595980D+02      0.883151D+01      0.982639D+01
   aniso      0.288146D+02      0.426989D+01      0.475089D+01
   xx         0.666507D+02      0.987661D+01      0.109892D+02
   yx         0.214947D+01      0.318519D+00      0.354400D+00
   yy         0.408560D+02      0.605423D+01      0.673624D+01
   zx        -0.162351D+01     -0.240580D+00     -0.267681D+00
   zy        -0.825912D+00     -0.122387D+00     -0.136174D+00
   zz         0.712874D+02      0.105637D+02      0.117537D+02

 ----------------------------------------------------------------------

 Dipole orientation:
     6          0.00000000          0.00000000          0.00000000
     6          1.59084798          0.07074449          1.95694786
     6          1.00784727         -0.06178717         -2.56045234
     1         -2.02269836          0.12156538          0.28711553
     1          0.94977435          0.25283857          3.89001617
     1         -0.20892377         -0.28335009         -4.18699361
     6          3.47039264          0.44462765         -2.88910589
     6          4.38100821         -0.13272074          1.48657169
     1          4.34957016          0.73168523         -4.71727183
     8          5.10091000          0.84054147         -0.98208075
     1          5.47857236          0.95842083          2.83990280
     1          5.01812261         -2.10803287          1.58911569

 Electric dipole moment (dipole orientation):
 (Debye = 10**-18 statcoulomb cm , SI units = C m)
                  (au)            (Debye)         (10**-30 SI)
   Tot        0.842233D+00      0.214074D+01      0.714075D+01
   x          0.000000D+00      0.000000D+00      0.000000D+00
   y          0.000000D+00      0.000000D+00      0.000000D+00
   z          0.842233D+00      0.214074D+01      0.714075D+01

 Dipole polarizability, Alpha (dipole orientation).
 (esu units = cm**3 , SI units = C**2 m**2 J**-1)
 Alpha(0;0):
               (au)            (10**-24 esu)      (10**-40 SI)
   iso        0.595980D+02      0.883151D+01      0.982639D+01
   aniso      0.288146D+02      0.426989D+01      0.475089D+01
   xx         0.668798D+02      0.991056D+01      0.110270D+02
   yx         0.146092D+01      0.216486D+00      0.240873D+00
   yy         0.407943D+02      0.604509D+01      0.672607D+01
   zx         0.191640D+01      0.283981D+00      0.315971D+00
   zy        -0.112876D+01     -0.167266D+00     -0.186108D+00
   zz         0.711200D+02      0.105389D+02      0.117261D+02

 ----------------------------------------------------------------------
 1\1\GINC-BHC0030\Freq\RB3LYP\def2TZVP\C5H6O1\DHANAWAY\10-Jun-2022\1\\#
 N Geom=AllCheck Guess=TCheck SCRF=Check GenChk RB3LYP/def2TZVP Freq\\i
 nt_zmat_initalOpt\\0,1\C\C,1,R2\C,1,R3,2,A3\H,1,R4,2,A4,3,D4,0\H,2,R5,
 1,A5,3,D5,0\H,3,R6,1,A6,2,D6,0\C,3,R7,1,A7,6,D7,0\C,2,R8,1,A8,5,D8,0\H
 ,7,R9,3,A9,1,D9,0\O,7,R10,3,A10,9,D10,0\H,8,R11,2,A11,1,D11,0\H,8,R12,
 2,A12,11,D12,0\\R2=1.33510551\R3=1.45648661\R4=1.08300769\R5=1.0820201
 2\R6=1.08129156\R7=1.34171198\R8=1.50118966\R9=1.08417367\R10=1.344160
 06\R11=1.08793765\R12=1.09965623\A3=119.42648382\A4=120.8439056\A5=122
 .55432907\A6=121.66154065\A7=118.14760961\A8=119.31074775\A9=124.08531
 353\A10=123.86685778\A11=112.20135694\A12=111.19495412\D4=-175.6393877
 9\D5=175.53426398\D6=174.59782119\D7=172.71806247\D8=179.41052835\D9=-
 170.24931505\D10=174.87059685\D11=147.00260117\D12=121.02726477\\Versi
 on=ES64L-G16RevA.03\HF=-269.4265632\RMSD=2.539e-09\RMSF=2.349e-04\Zero
 Point=0.0980593\Thermal=0.1030925\Dipole=-0.5310635,-0.0236162,0.65327
 65\DipoleDeriv=0.2618894,0.0051738,-0.1440005,-0.0344875,-0.1473244,-0
 .0334673,-0.0051603,-0.0420194,0.0201154,-0.0887354,-0.0338819,0.04562
 93,-0.0051598,-0.2032522,-0.0015288,0.0533806,0.0446194,-0.0947907,-0.
 3331881,-0.073069,-0.0727646,-0.1081166,-0.2951171,-0.0314511,-0.19347
 39,0.0187731,-0.031948,-0.0675488,0.0060484,-0.0722252,0.026153,0.1458
 815,0.01139,-0.0707391,0.0060564,0.0066286,0.0131327,0.0022534,0.02832
 93,0.028193,0.1515116,-0.0165373,0.019688,-0.0010147,0.0531579,0.04416
 22,-0.005042,0.0369235,0.0094617,0.1553333,-0.0041274,0.0345437,-0.025
 3539,-0.1726236,0.3337256,0.1287378,0.1665515,0.2209135,-0.0265874,0.1
 725015,0.4662445,0.1760699,0.8443688,0.2726512,0.0608862,-0.1814782,0.
 0250759,0.505953,-0.1806447,-0.0462819,-0.1491429,0.5081123,-0.1018126
 ,-0.0425353,0.1031159,-0.0137053,0.1378402,-0.0114008,0.0923085,0.0077
 725,-0.0128791,-0.4182843,-0.1163607,0.1683979,-0.199881,-0.3037248,0.
 0017907,-0.3612355,-0.0205718,-1.1092953,0.0590898,-0.003959,-0.002536
 ,-0.0126491,0.0415378,-0.053049,0.0093733,-0.0171286,-0.022617,0.02491
 84,0.0717484,-0.0759429,0.0642022,-0.1620514,0.1465241,0.0013522,0.001
 9399,0.0117708\Polar=66.6506662,2.1494706,40.8559845,-1.6235138,-0.825
 9117,71.2873958\PG=C01 [X(C5H6O1)]\NImag=0\\0.62743002,-0.01908575,0.1
 2608092,0.06796635,-0.01207112,0.79804676,-0.11323576,0.00383253,0.000
 93489,0.58944695,0.00054670,-0.05747710,0.00469800,-0.03698571,0.14337
 753,-0.01021456,0.00338572,-0.50708141,-0.07892001,-0.00413870,0.82217
 782,-0.20945416,0.00451954,0.04091652,-0.00099793,0.00413872,0.0348378
 6,0.66618074,0.00097806,-0.05422645,0.00126570,-0.00129769,0.00970314,
 0.00107940,0.07871070,0.11923629,0.06850793,-0.00387286,-0.13739943,0.
 03535732,-0.00164783,-0.02742622,0.08093163,0.07792846,0.73033446,-0.2
 6127837,0.01674083,-0.12212323,0.00366491,0.00014375,0.00052674,-0.018
 04519,0.00127933,-0.01475277,0.27522475,0.01894466,-0.03649472,0.00849
 951,0.00049013,0.00511494,-0.00048487,-0.00184576,0.00099772,0.0015139
 4,-0.01802475,0.02541286,-0.11962505,0.00811870,-0.12815144,-0.0307760
 3,0.00306801,-0.01396825,0.01510148,-0.00098007,0.01123125,0.13131401,
 -0.01040746,0.13566389,0.00490897,0.00052038,-0.00263977,-0.26041577,0
 .01643453,0.12965373,0.00218296,0.00148950,-0.00024349,0.00086637,-0.0
 0068480,0.00031848,0.27054389,-0.00107562,0.00630409,0.00107419,0.0201
 4719,-0.03533678,-0.01215631,0.00189830,0.01100908,0.00060329,-0.00049
 863,-0.00727852,0.00000222,-0.01854373,0.02336219,0.02843296,-0.001988
 48,-0.01254531,0.12579568,-0.01054404,-0.13743674,-0.00179363,-0.00007
 585,-0.00435871,-0.00013131,0.00012909,0.00125893,-0.13716218,0.011899
 66,0.14344768,0.00532099,0.00201159,0.02689834,-0.00556722,0.00034757,
 0.00148188,-0.05629581,-0.00109983,0.01267381,0.00097315,-0.00008450,-
 0.00097342,0.00021163,-0.00030890,0.00135245,0.05377687,0.00033578,-0.
 00147588,0.00190009,-0.00032196,0.00125056,0.00027940,-0.00224836,-0.0
 2440779,-0.02265033,-0.00013644,-0.00031670,-0.00014182,-0.00021893,0.
 00065011,0.00011338,0.00229623,0.02202434,-0.00314872,-0.00065286,-0.0
 0969088,0.00309554,-0.00032090,0.00040706,0.00960740,-0.02569001,-0.33
 400177,0.00043560,0.00011060,0.00064331,-0.00029072,0.00013789,-0.0006
 0533,-0.01126708,0.02783846,0.35566083,-0.05419174,-0.00917186,0.00904
 503,-0.00305680,-0.00227192,-0.01033931,-0.36837493,-0.06793020,-0.155
 43104,-0.00262787,0.00086967,0.00281258,0.00019766,-0.00011563,-0.0005
 8814,0.00604693,0.00210296,0.00533538,0.81066605,-0.00449983,0.0086000
 5,-0.00410168,0.00358108,0.00199946,0.00129685,-0.07746630,-0.07016256
 ,-0.03810215,0.00070065,0.00133140,-0.00006924,-0.00053681,-0.00116758
 ,-0.00039265,-0.00109216,-0.00357933,-0.00019191,0.14681726,0.16533367
 ,-0.00652118,0.00140884,0.02465389,0.00602632,-0.00447443,-0.00604128,
 -0.13716166,-0.02904798,-0.19506010,0.00489036,-0.00113165,-0.00284183
 ,-0.00330336,-0.00216196,-0.00219859,-0.02837150,-0.00587313,-0.014933
 51,0.03898939,0.04865495,0.61829946,0.00715056,0.00013528,-0.01685854,
 -0.17144628,0.01805852,-0.05193756,-0.01114737,-0.00596229,-0.01071629
 ,0.00119275,0.00060264,0.00304555,-0.01361639,0.00041210,-0.01124425,-
 0.00135276,-0.00035283,-0.00009140,0.00149774,0.00879767,0.03895267,0.
 40751495,0.00783405,0.00529056,-0.00402214,0.00859833,-0.07603209,0.00
 684473,-0.00728711,-0.00877003,-0.00300313,0.00020322,0.01198679,-0.00
 027741,0.00104697,0.00296775,0.00074000,-0.00040146,-0.00018364,-0.000
 38612,0.00836884,0.00076453,0.00510787,-0.03540433,0.53384402,-0.04056
 314,0.00671343,-0.02135810,-0.04196614,0.00399405,-0.12611073,0.003844
 37,0.00111873,0.00743895,0.00118418,0.00120698,-0.00508686,0.01378700,
 -0.00219268,0.01049103,0.00073605,-0.00057845,0.00104348,0.03417178,0.
 00790191,-0.04329678,0.04242332,0.06354696,0.57544112,-0.00090449,-0.0
 0311851,-0.00479432,0.00064488,0.00023474,0.00061525,-0.01802520,-0.00
 350044,0.01343944,-0.00080102,0.00001015,0.00066595,0.00003421,0.00055
 653,0.00006386,0.00050043,0.00134315,-0.00075201,-0.28029811,-0.046763
 65,0.09741118,0.00166349,0.00074788,-0.00168318,0.29306251,-0.00336834
 ,0.00841886,-0.00201650,-0.00032062,-0.00095001,-0.00167563,-0.0016457
 1,0.00691061,0.00548069,-0.00074409,0.00025077,0.00067712,-0.00024783,
 -0.00187777,-0.00000212,0.00073573,-0.00458009,0.00021828,-0.05074300,
 -0.04685253,0.01218676,0.00202708,0.00409215,-0.00136303,0.05040726,0.
 03136621,-0.00199233,-0.00138409,-0.00170511,0.00004413,0.00011044,-0.
 00041533,-0.01471983,-0.00143714,0.01165028,-0.00075152,0.00006186,0.0
 0044992,0.00021823,0.00016590,0.00030224,0.00051724,0.00047584,0.00060
 074,0.09413792,0.01337121,-0.09123281,-0.00296886,-0.00486775,-0.00232
 232,-0.10927364,-0.01648028,0.11384216,0.00398663,0.00340538,0.0003178
 3,-0.03508012,-0.01139648,0.02146102,0.00998579,-0.00568223,-0.0326329
 5,0.00079647,0.00033967,-0.00031795,-0.00480325,-0.00173430,-0.0052374
 8,-0.00398800,-0.00280764,-0.00286378,-0.10346005,-0.02492065,0.001078
 02,-0.11295171,-0.04382228,0.00937330,0.00414028,0.00418212,0.03324791
 ,0.25256475,-0.00221576,-0.00641966,0.00860105,-0.00680264,0.00172817,
 -0.00423147,0.00382327,0.00980156,-0.01916243,0.00018077,-0.00034275,-
 0.00015197,0.00078346,0.00210478,-0.00026215,-0.00247185,0.01069112,-0
 .00110108,-0.02597099,-0.05470459,-0.02497571,-0.04259993,-0.08475367,
 0.01502378,0.00030129,0.00309702,0.00891527,0.09812387,0.12089580,0.02
 113587,0.00076989,-0.00768503,-0.00618421,-0.00025631,0.01266502,-0.03
 163405,-0.02236502,-0.06173808,-0.00064881,0.00079645,0.00142684,0.000
 38346,0.00109932,0.00138359,-0.00298368,-0.00114896,0.00092397,-0.0219
 3572,-0.03054722,-0.29302831,0.02083290,0.02214686,-0.09543228,0.00431
 422,0.00293451,-0.03021624,-0.03912846,-0.00410792,0.50224248,-0.00542
 270,0.00024345,-0.00155916,0.00228823,-0.01499073,-0.02634216,0.000490
 89,-0.00032773,0.00085591,0.00003453,0.00150294,-0.00127816,0.00088423
 ,0.00024546,0.00050803,0.00018551,-0.00008208,0.00000499,-0.00508568,-
 0.00090826,-0.00132984,-0.04837872,-0.00255381,-0.00868328,-0.00024353
 ,0.00025633,0.00134506,-0.00592298,0.00776217,0.03388164,0.05906655,0.
 00079974,0.00017721,-0.00035776,0.00108128,0.00411955,0.00658341,-0.00
 050985,-0.00006567,0.00055045,0.00006968,-0.00022352,0.00020327,-0.000
 54287,0.00037501,-0.00056836,0.00006629,-0.00003240,-0.00000132,-0.003
 03036,-0.00000823,0.00222458,0.00170790,-0.12678870,-0.12948922,-0.000
 18493,0.00037239,0.00081806,-0.00306414,0.00769617,0.01913103,0.003279
 37,0.13110206,-0.00241174,-0.00057887,0.00130409,-0.00286486,-0.006708
 70,-0.01307535,0.00016055,-0.00022629,0.00001193,0.00008656,0.00059624
 ,-0.00047737,0.00000494,0.00062801,0.00082813,-0.00004967,-0.00001883,
 -0.00001863,0.00341907,-0.00009800,0.00123396,-0.00078855,-0.11979338,
 -0.24247955,0.00011484,-0.00036704,-0.00081826,0.00627245,-0.00230283,
 -0.02061918,-0.00333340,0.12681824,0.26723004,-0.00430994,-0.00003286,
 0.00189606,-0.00624509,0.02574031,-0.01082288,0.00350021,0.00334279,0.
 00201050,-0.00000047,-0.00212006,-0.00028745,-0.00099450,-0.00098276,0
 .00000400,0.00018828,0.00009012,-0.00006520,-0.00131320,-0.00370900,-0
 .01066038,-0.06012626,0.06266970,-0.01262425,0.00022656,-0.00053893,0.
 00019569,-0.00526780,-0.03091367,0.02196685,0.00210366,0.00032788,-0.0
 0061018,0.07223855,0.00080631,0.00122212,-0.00346934,0.00799808,0.0025
 0264,0.00321746,-0.00208745,-0.00002589,0.00236189,0.00008566,-0.00043
 829,-0.00004135,0.00050011,-0.00111237,0.00095152,0.00000129,-0.000040
 30,0.00003898,0.00107524,-0.00155429,-0.00191814,0.05257819,-0.2624176
 6,0.03411753,-0.00003346,-0.00024760,0.00025070,-0.01262334,-0.0097939
 5,0.01154737,0.00557289,-0.01672387,0.00205143,-0.05387353,0.28862946,
 -0.00156638,0.00015170,0.00161198,-0.01054264,0.01622042,-0.00369458,-
 0.00009064,-0.00156992,-0.00068256,-0.00002982,-0.00089069,-0.00014838
 ,-0.00072631,0.00090047,-0.00056693,-0.00001441,-0.00019565,-0.0000292
 6,0.00038307,0.00227793,0.00444591,-0.01064897,0.03396350,-0.05832794,
 -0.00012160,0.00040723,-0.00013527,0.00843009,0.02375546,-0.00992277,0
 .00593037,-0.02591238,0.00688019,0.00899725,-0.04910806,0.06056961\\0.
 00077048,-0.00024264,-0.00000738,-0.00076190,-0.00054000,0.00003087,-0
 .00001195,0.00064453,-0.00002239,-0.00000091,0.00002204,0.00000211,0.0
 0000070,0.00004448,-0.00000742,0.00000525,0.00003434,-0.00000207,0.000
 01271,0.00003058,0.00008382,-0.00008027,-0.00004289,0.00008852,0.00000
 566,-0.00000825,-0.00001793,0.00004615,0.00002570,-0.00010808,0.000005
 00,0.00002129,-0.00001460,0.00000910,0.00001082,-0.00002545\\\@


 ALL OUR THINKING ABOUT NATURE MUST NECESSARILY MOVE IN CIRCLES OR SPIRALS;
 FOR WE CAN ONLY UNDERSTAND NATURE IF WE THINK ABOUT HER, AND WE CAN ONLY
 THINK BECAUSE OUR BRAIN IS BUILT IN ACCORDANCE WITH NATURE'S LAWS.

                                             -- TIMOTHY FERRIS, "GALAXIES"
 Job cpu time:       0 days  0 hours 31 minutes  0.8 seconds.
 Elapsed time:       0 days  0 hours  2 minutes 36.0 seconds.
 File lengths (MBytes):  RWF=     54 Int=      0 D2E=      0 Chk=     32 Scr=      1
 Normal termination of Gaussian 16 at Fri Jun 10 12:05:00 2022.
