 Entering Gaussian System, Link 0=g16
 Input=ts_zmat_field_N25.gjf
 Output=ts_zmat_field_N25.out
 Initial command:
 /software/gaussian/g16-a03/l1.exe "/local_scratch/11171762/Gau-15729.inp" -scrdir="/local_scratch/11171762/"
 Entering Link 1 = /software/gaussian/g16-a03/l1.exe PID=     15730.
  
 Copyright (c) 1988,1990,1992,1993,1995,1998,2003,2009,2016,
            Gaussian, Inc.  All Rights Reserved.
  
 This is part of the Gaussian(R) 16 program.  It is based on
 the Gaussian(R) 09 system (copyright 2009, Gaussian, Inc.),
 the Gaussian(R) 03 system (copyright 2003, Gaussian, Inc.),
 the Gaussian(R) 98 system (copyright 1998, Gaussian, Inc.),
 the Gaussian(R) 94 system (copyright 1995, Gaussian, Inc.),
 the Gaussian 92(TM) system (copyright 1992, Gaussian, Inc.),
 the Gaussian 90(TM) system (copyright 1990, Gaussian, Inc.),
 the Gaussian 88(TM) system (copyright 1988, Gaussian, Inc.),
 the Gaussian 86(TM) system (copyright 1986, Carnegie Mellon
 University), and the Gaussian 82(TM) system (copyright 1983,
 Carnegie Mellon University). Gaussian is a federally registered
 trademark of Gaussian, Inc.
  
 This software contains proprietary and confidential information,
 including trade secrets, belonging to Gaussian, Inc.
  
 This software is provided under written license and may be
 used, copied, transmitted, or stored only in accord with that
 written license.
  
 The following legend is applicable only to US Government
 contracts under FAR:
  
                    RESTRICTED RIGHTS LEGEND
  
 Use, reproduction and disclosure by the US Government is
 subject to restrictions as set forth in subparagraphs (a)
 and (c) of the Commercial Computer Software - Restricted
 Rights clause in FAR 52.227-19.
  
 Gaussian, Inc.
 340 Quinnipiac St., Bldg. 40, Wallingford CT 06492
  
  
 ---------------------------------------------------------------
 Warning -- This program may not be used in any manner that
 competes with the business of Gaussian, Inc. or will provide
 assistance to any competitor of Gaussian, Inc.  The licensee
 of this program is prohibited from giving any competitor of
 Gaussian, Inc. access to this program.  By using this program,
 the user acknowledges that Gaussian, Inc. is engaged in the
 business of creating and licensing software in the field of
 computational chemistry and represents and warrants to the
 licensee that it is not a competitor of Gaussian, Inc. and that
 it will not use this program in any manner prohibited above.
 ---------------------------------------------------------------
  

 Cite this work as:
 Gaussian 16, Revision A.03,
 M. J. Frisch, G. W. Trucks, H. B. Schlegel, G. E. Scuseria, 
 M. A. Robb, J. R. Cheeseman, G. Scalmani, V. Barone, 
 G. A. Petersson, H. Nakatsuji, X. Li, M. Caricato, A. V. Marenich, 
 J. Bloino, B. G. Janesko, R. Gomperts, B. Mennucci, H. P. Hratchian, 
 J. V. Ortiz, A. F. Izmaylov, J. L. Sonnenberg, D. Williams-Young, 
 F. Ding, F. Lipparini, F. Egidi, J. Goings, B. Peng, A. Petrone, 
 T. Henderson, D. Ranasinghe, V. G. Zakrzewski, J. Gao, N. Rega, 
 G. Zheng, W. Liang, M. Hada, M. Ehara, K. Toyota, R. Fukuda, 
 J. Hasegawa, M. Ishida, T. Nakajima, Y. Honda, O. Kitao, H. Nakai, 
 T. Vreven, K. Throssell, J. A. Montgomery, Jr., J. E. Peralta, 
 F. Ogliaro, M. J. Bearpark, J. J. Heyd, E. N. Brothers, K. N. Kudin, 
 V. N. Staroverov, T. A. Keith, R. Kobayashi, J. Normand, 
 K. Raghavachari, A. P. Rendell, J. C. Burant, S. S. Iyengar, 
 J. Tomasi, M. Cossi, J. M. Millam, M. Klene, C. Adamo, R. Cammi, 
 J. W. Ochterski, R. L. Martin, K. Morokuma, O. Farkas, 
 J. B. Foresman, and D. J. Fox, Gaussian, Inc., Wallingford CT, 2016.
 
 ******************************************
 Gaussian 16:  ES64L-G16RevA.03 25-Dec-2016
                10-Jun-2022 
 ******************************************
 %nprocshared=12
 Will use up to   12 processors via shared memory.
 %chk=checkpoint.chk
 %mem=12GB
 ----------------------------------------------------------------------
 # Opt=(TS, CalcFC, noeigentest, Z-matrix, MaxStep=10) Field=read NoSym
 m B3LYP/Def2TZVP freq=noraman pop=none
 ----------------------------------------------------------------------
 1/5=1,8=10,10=4,11=1,18=40,26=3,38=1/1,3;
 2/12=2,15=1,17=6,18=5,29=3,40=1/2;
 3/5=44,7=101,11=2,14=-6,25=1,30=1,71=2,74=-5,140=1/1,2,3;
 4//1;
 5/5=2,38=5/2;
 8/6=4,10=90,11=11/1;
 11/6=1,8=1,9=11,15=111,16=1,31=1/1,2,10;
 10/6=1,13=1,31=1/2;
 7/10=1,18=20,25=1,30=1/1,2,3,16;
 1/5=1,8=10,10=4,11=1,18=40,26=3/3(2);
 2/15=1,29=3/2;
 99//99;
 2/15=1,29=3/2;
 3/5=44,7=101,11=2,14=-2,25=1,30=1,71=1,74=-5/1,2,3;
 4/5=5,16=3,69=1/1;
 5/5=2,38=5/2;
 7/30=1/1,2,3,16;
 1/5=1,8=10,11=1,18=40,26=3/3(-5);
 2/15=1,29=3/2;
 99/9=1/99;
 -----------------
 ts_zmat_initalOpt
 -----------------
 Symbolic Z-matrix:
 Charge =  0 Multiplicity = 1
 C
 C                    1    R2
 C                    1    R3       2    A3
 H                    1    R4       2    A4       3    D4       0
 H                    2    R5       1    A5       3    D5       0
 H                    3    R6       1    A6       2    D6       0
 C                    3    R7       1    A7       6    D7       0
 C                    2    R8       1    A8       5    D8       0
 H                    7    R9       3    A9       1    D9       0
 O                    7    R10      3    A10      9    D10      0
 H                    8    R11      2    A11      1    D11      0
 H                    8    R12      2    A12      11   D12      0
       Variables:
  R2                    1.38897                  
  R3                    1.39888                  
  R4                    1.08604                  
  R5                    1.08301                  
  R6                    1.08157                  
  R7                    1.41318                  
  R8                    1.39155                  
  R9                    1.09689                  
  R10                   1.25677                  
  R11                   1.08254                  
  R12                   1.08113                  
  A3                  120.8886                   
  A4                  120.00861                  
  A5                  120.74978                  
  A6                  119.66859                  
  A7                  118.97527                  
  A8                  117.32015                  
  A9                  115.63488                  
  A10                 128.07093                  
  A11                 120.84504                  
  A12                 118.50256                  
  D4                 -168.74001                  
  D5                  148.50587                  
  D6                 -176.82555                  
  D7                  154.18448                  
  D8                 -169.69548                  
  D9                 -142.96181                  
  D10                 171.43426                  
  D11                 163.18628                  
  D12                 152.61335                  
 

 GradGradGradGradGradGradGradGradGradGradGradGradGradGradGradGradGradGrad
 Berny optimization.
 Initialization pass.
                       ----------------------------
                       !    Initial Parameters    !
                       ! (Angstroms and Degrees)  !
 ----------------------                            ----------------------
 !      Name          Value   Derivative information (Atomic Units)     !
 ------------------------------------------------------------------------
 !       R2          1.389    calculate D2E/DX2 analytically            !
 !       R3          1.3989   calculate D2E/DX2 analytically            !
 !       R4          1.086    calculate D2E/DX2 analytically            !
 !       R5          1.083    calculate D2E/DX2 analytically            !
 !       R6          1.0816   calculate D2E/DX2 analytically            !
 !       R7          1.4132   calculate D2E/DX2 analytically            !
 !       R8          1.3915   calculate D2E/DX2 analytically            !
 !       R9          1.0969   calculate D2E/DX2 analytically            !
 !       R10         1.2568   calculate D2E/DX2 analytically            !
 !       R11         1.0825   calculate D2E/DX2 analytically            !
 !       R12         1.0811   calculate D2E/DX2 analytically            !
 !       A3        120.8886   calculate D2E/DX2 analytically            !
 !       A4        120.0086   calculate D2E/DX2 analytically            !
 !       A5        120.7498   calculate D2E/DX2 analytically            !
 !       A6        119.6686   calculate D2E/DX2 analytically            !
 !       A7        118.9753   calculate D2E/DX2 analytically            !
 !       A8        117.3201   calculate D2E/DX2 analytically            !
 !       A9        115.6349   calculate D2E/DX2 analytically            !
 !       A10       128.0709   calculate D2E/DX2 analytically            !
 !       A11       120.845    calculate D2E/DX2 analytically            !
 !       A12       118.5026   calculate D2E/DX2 analytically            !
 !       D4       -168.74     calculate D2E/DX2 analytically            !
 !       D5        148.5059   calculate D2E/DX2 analytically            !
 !       D6       -176.8255   calculate D2E/DX2 analytically            !
 !       D7        154.1845   calculate D2E/DX2 analytically            !
 !       D8       -169.6955   calculate D2E/DX2 analytically            !
 !       D9       -142.9618   calculate D2E/DX2 analytically            !
 !       D10       171.4343   calculate D2E/DX2 analytically            !
 !       D11       163.1863   calculate D2E/DX2 analytically            !
 !       D12       152.6134   calculate D2E/DX2 analytically            !
 ------------------------------------------------------------------------
 Trust Radius=1.00D-01 FncErr=1.00D-07 GrdErr=1.00D-06 EigMax=2.50D+02 EigMin=1.00D-04
 Number of steps in this run=     40 maximum allowed number of steps=    100.
 Search for a saddle point of order  1.
 GradGradGradGradGradGradGradGradGradGradGradGradGradGradGradGradGradGrad

 ---------------------------------------------------------------------------------------------------
                            Z-MATRIX (ANGSTROMS AND DEGREES)
   CD    Cent   Atom    N1       Length/X        N2       Alpha/Y        N3        Beta/Z          J
 ---------------------------------------------------------------------------------------------------
      1      1  C 
      2      2  C        1   1.388974(     1)
      3      3  C        1   1.398883(     2)      2  120.889(    12)
      4      4  H        1   1.086045(     3)      2  120.009(    13)      3 -168.740(    22)      0
      5      5  H        2   1.083006(     4)      1  120.750(    14)      3  148.506(    23)      0
      6      6  H        3   1.081565(     5)      1  119.669(    15)      2 -176.826(    24)      0
      7      7  C        3   1.413178(     6)      1  118.975(    16)      6  154.184(    25)      0
      8      8  C        2   1.391548(     7)      1  117.320(    17)      5 -169.695(    26)      0
      9      9  H        7   1.096888(     8)      3  115.635(    18)      1 -142.962(    27)      0
     10     10  O        7   1.256770(     9)      3  128.071(    19)      9  171.434(    28)      0
     11     11  H        8   1.082539(    10)      2  120.845(    20)      1  163.186(    29)      0
     12     12  H        8   1.081125(    11)      2  118.503(    21)     11  152.613(    30)      0
 ---------------------------------------------------------------------------------------------------
                         Z-Matrix orientation:                         
 ---------------------------------------------------------------------
 Center     Atomic      Atomic             Coordinates (Angstroms)
 Number     Number       Type             X           Y           Z
 ---------------------------------------------------------------------
      1          6           0        0.000000    0.000000    0.000000
      2          6           0        0.000000    0.000000    1.388974
      3          6           0        1.200475    0.000000   -0.718145
      4          1           0       -0.922358    0.183636   -0.543164
      5          1           0       -0.793640    0.486231    1.942704
      6          1           0        1.178187    0.052041   -1.798228
      7          6           0        2.373730    0.475918   -0.090412
      8          6           0        1.152740   -0.446878    2.027642
      9          1           0        3.061441    1.038291   -0.733804
     10          8           0        2.657027    0.463768    1.133951
     11          1           0        1.328975   -0.226858    3.072832
     12          1           0        1.632170   -1.343140    1.659276
 ---------------------------------------------------------------------
                    Distance matrix (angstroms):
                    1          2          3          4          5
     1  C    0.000000
     2  C    1.388974   0.000000
     3  C    1.398883   2.425096   0.000000
     4  H    1.086045   2.148866   2.137934   0.000000
     5  H    2.154155   1.083006   3.360511   2.507523   0.000000
     6  H    2.150455   3.398395   1.081565   2.450468   4.251022
     7  C    2.422656   2.837195   1.413178   3.339851   3.763761
     8  C    2.374835   1.391548   2.782323   3.363424   2.160162
     9  H    3.314956   3.867383   2.131076   4.078901   4.725474
    10  O    2.925871   2.709227   2.401434   3.962725   3.544247
    11  H    3.355583   2.157085   3.799932   4.279303   2.508223
    12  H    2.687229   2.130978   2.764511   3.702351   3.051472
                    6          7          8          9         10
     6  H    0.000000
     7  C    2.127352   0.000000
     8  C    3.858347   2.613144   0.000000
     9  H    2.377463   1.096888   3.670756   0.000000
    10  O    3.309707   1.256770   1.972521   1.995529   0.000000
    11  H    4.881367   3.404632   1.082539   4.369498   2.449479
    12  H    3.755924   2.630645   1.081125   3.666178   2.142713
                   11         12
    11  H    0.000000
    12  H    1.826514   0.000000
 Symmetry turned off by external request.
 Stoichiometry    C5H6O
 Framework group  C1[X(C5H6O)]
 Deg. of freedom    30
 Full point group                 C1      NOp   1
 Rotational constants (GHZ):           5.5367278           4.6725769           2.7070362
 Standard basis: def2TZVP (5D, 7F)
 The following finite field(s) will be applied:
 An electric field of              0.0017  0.0017  0.0007
   222 basis functions,   354 primitive gaussians,   252 cartesian basis functions
    22 alpha electrons       22 beta electrons
       nuclear repulsion energy       217.8751587660 Hartrees.
 NAtoms=   12 NActive=   12 NUniq=   12 SFac= 1.00D+00 NAtFMM=   60 NAOKFM=F Big=F
 Integral buffers will be    131072 words long.
 Raffenetti 2 integral format.
 Two-electron integral symmetry is turned off.
 One-electron integrals computed using PRISM.
   1 Symmetry operations used in ECPInt.
 ECPInt:  NShTT=    4095 NPrTT=   12396 LenC2=    4075 LenP2D=   10363.
 LDataN:  DoStor=T MaxTD1= 6 Len=  172
 NBasis=   222 RedAO= T EigKep=  1.17D-04  NBF=   222
 NBsUse=   222 1.00D-06 EigRej= -1.00D+00 NBFU=   222
 The nuclear repulsion energy is now       218.1031568353 hartrees.
 ExpMin= 9.52D-02 ExpMax= 2.70D+04 ExpMxC= 9.22D+02 IAcc=3 IRadAn=         5 AccDes= 0.00D+00
 Harris functional with IExCor=  402 and IRadAn=       5 diagonalized for initial guess.
 HarFok:  IExCor=  402 AccDes= 0.00D+00 IRadAn=         5 IDoV= 1 UseB2=F ITyADJ=14
 ICtDFT=  3500011 ScaDFX=  1.000000  1.000000  1.000000  1.000000
 FoFCou: FMM=F IPFlag=           0 FMFlag=      100000 FMFlg1=           0
         NFxFlg=           0 DoJE=T BraDBF=F KetDBF=T FulRan=T
         wScrn=  0.000000 ICntrl=       500 IOpCl=  0 I1Cent=   200000004 NGrid=           0
         NMat0=    1 NMatS0=      1 NMatT0=    0 NMatD0=    1 NMtDS0=    0 NMtDT0=    0
 Symmetry not used in FoFCou.
 Keep R1 ints in memory in canonical form, NReq=319363861.
 Requested convergence on RMS density matrix=1.00D-08 within 128 cycles.
 Requested convergence on MAX density matrix=1.00D-06.
 Requested convergence on             energy=1.00D-06.
 No special actions if energy rises.
 Integral accuracy reduced to 1.0D-05 until final iterations.
 Initial convergence to 1.0D-05 achieved.  Increase integral accuracy.
 SCF Done:  E(RB3LYP) =  -269.392753624     A.U. after   14 cycles
            NFock= 14  Conv=0.84D-08     -V/T= 2.0050
 DoSCS=F DFT=T ScalE2(SS,OS)=  1.000000  1.000000
 Range of M.O.s used for correlation:     1   222
 NBasis=   222 NAE=    22 NBE=    22 NFC=     0 NFV=     0
 NROrb=    222 NOA=    22 NOB=    22 NVA=   200 NVB=   200

 **** Warning!!: The largest alpha MO coefficient is  0.19338539D+02

   1 Symmetry operations used in ECPInt.
 ECPInt:  NShTT=    4095 NPrTT=   12396 LenC2=    4075 LenP2D=   10363.
 LDataN:  DoStor=T MaxTD1= 7 Len=  274
 Symmetrizing basis deriv contribution to polar:
 IMax=3 JMax=2 DiffMx= 0.00D+00
 G2DrvN: will do    13 centers at a time, making    1 passes.
 Calling FoFCou, ICntrl=  3107 FMM=F I1Cent=   0 AccDes= 0.00D+00.
 End of G2Drv F.D. properties file   721 does not exist.
 End of G2Drv F.D. properties file   722 does not exist.
 End of G2Drv F.D. properties file   788 does not exist.
          IDoAtm=111111111111
          Differentiating once with respect to nuclear coordinates.
 Keep R1 ints in memory in canonical form, NReq=319333990.
          There are    39 degrees of freedom in the 1st order CPHF.  IDoFFX=6 NUNeed=     0.
     33 vectors produced by pass  0 Test12= 1.13D-14 2.56D-09 XBig12= 1.45D-01 1.66D-01.
 AX will form    33 AO Fock derivatives at one time.
     33 vectors produced by pass  1 Test12= 1.13D-14 2.56D-09 XBig12= 1.88D-02 4.48D-02.
     33 vectors produced by pass  2 Test12= 1.13D-14 2.56D-09 XBig12= 2.58D-04 3.34D-03.
     33 vectors produced by pass  3 Test12= 1.13D-14 2.56D-09 XBig12= 1.07D-06 1.57D-04.
     33 vectors produced by pass  4 Test12= 1.13D-14 2.56D-09 XBig12= 2.63D-09 7.25D-06.
     31 vectors produced by pass  5 Test12= 1.13D-14 2.56D-09 XBig12= 5.12D-12 3.02D-07.
      9 vectors produced by pass  6 Test12= 1.13D-14 2.56D-09 XBig12= 7.61D-15 1.23D-08.
 InvSVY:  IOpt=1 It=  1 EMax= 2.44D-15
 Solved reduced A of dimension   205 with    33 vectors.
 End of Minotr F.D. properties file   721 does not exist.
 End of Minotr F.D. properties file   722 does not exist.
 End of Minotr F.D. properties file   788 does not exist.
   1 Symmetry operations used in ECPInt.
 ECPInt:  NShTT=    4095 NPrTT=   12396 LenC2=    4075 LenP2D=   10363.
 LDataN:  DoStor=T MaxTD1= 8 Len=  415
 Calling FoFJK, ICntrl=    100147 FMM=F ISym2X=0 I1Cent= 0 IOpClX= 0 NMat=1 NMatS=1 NMatT=0.
 -------------------------------------------------------------------
 Center     Atomic                   Forces (Hartrees/Bohr)
 Number     Number              X              Y              Z
 -------------------------------------------------------------------
      1        6          -0.000525443   -0.000063641    0.000218827
      2        6           0.000774596    0.000454929    0.000195648
      3        6           0.001227656    0.000938869    0.000117505
      4        1           0.000129747   -0.000251123    0.000062878
      5        1          -0.000163395   -0.000305342   -0.000048979
      6        1          -0.000079946   -0.000232954    0.000036519
      7        6          -0.001627698   -0.000889259   -0.001630055
      8        6          -0.001289370   -0.000503953   -0.000061111
      9        1           0.000019570    0.000056843   -0.000342395
     10        8           0.001735265    0.000864568    0.001316297
     11        1          -0.000155409   -0.000128657    0.000110962
     12        1          -0.000045571    0.000059719    0.000023904
 -------------------------------------------------------------------
 Cartesian Forces:  Max     0.001735265 RMS     0.000697867
 -----------------------------------------------------------------------------------------------
                       Internal Coordinate Forces (Hartree/Bohr or radian)
  Cent   Atom   N1       Length/X         N2         Alpha/Y        N3         Beta/Z          J
 -----------------------------------------------------------------------------------------------
      1  C 
      2  C        1   0.000220(     1)
      3  C        1   0.001352(     2)      2   0.004911(    12)
      4  H        1  -0.000184(     3)      2   0.000069(    13)      3  -0.000393(    22)     0
      5  H        2  -0.000042(     4)      1  -0.000065(    14)      3  -0.001900(    23)     0
      6  H        3  -0.000046(     5)      1  -0.000152(    15)      2  -0.003212(    24)     0
      7  C        3  -0.000175(     6)      1   0.005340(    16)      6  -0.002798(    25)     0
      8  C        2  -0.001017(     7)      1   0.001802(    17)      5  -0.002508(    26)     0
      9  H        7   0.000242(     8)      3  -0.000509(    18)      1  -0.000427(    27)     0
     10  O        7   0.001665(     9)      3   0.003891(    19)      9  -0.000348(    28)     0
     11  H        8   0.000056(    10)      2  -0.000155(    20)      1   0.000356(    29)     0
     12  H        8  -0.000078(    11)      2  -0.000020(    21)     11  -0.000013(    30)     0
 -----------------------------------------------------------------------------------------------
 Internal  Forces:  Max     0.005340018 RMS     0.001877750

 GradGradGradGradGradGradGradGradGradGradGradGradGradGradGradGradGradGrad
 Berny optimization.
 Search for a saddle point.
 Step number   1 out of a maximum of   40
 All quantities printed in internal units (Hartrees-Bohrs-Radians)
 Swapping is turned off.
 Second derivative matrix not updated -- analytic derivatives used.
 ITU=  0
     Eigenvalues ---   -0.70593   0.02566   0.02801   0.03985   0.04151
     Eigenvalues ---    0.04925   0.10623   0.12646   0.14335   0.16489
     Eigenvalues ---    0.18559   0.19778   0.24850   0.27084   0.29512
     Eigenvalues ---    0.32205   0.34426   0.34908   0.35346   0.35561
     Eigenvalues ---    0.36393   0.39021   0.39961   0.43603   0.46351
     Eigenvalues ---    0.52952   0.57584   0.71073   0.91046   2.74870
 Eigenvectors required to have negative eigenvalues:
                          A7        A3        D12       R8        R10
   1                    0.45994   0.41281   0.30353  -0.27671  -0.26628
                          A8        R7        A10       D11       R2
   1                    0.26515   0.23741   0.22440   0.22438   0.19624
 RFO step:  Lambda0=5.508835995D-05 Lambda=-9.22971620D-05.
 Linear search not attempted -- option 19 set.
 Variable       Old X    -DE/DX   Delta X   Delta X   Delta X     New X
                                 (Linear)    (Quad)   (Total)
    R2        2.62478   0.00022   0.00000  -0.00339  -0.00339   2.62139
    R3        2.64351   0.00135   0.00000   0.00321   0.00321   2.64671
    R4        2.05233  -0.00018   0.00000  -0.00072  -0.00072   2.05160
    R5        2.04658  -0.00004   0.00000  -0.00032  -0.00032   2.04626
    R6        2.04386  -0.00005   0.00000  -0.00030  -0.00030   2.04356
    R7        2.67052  -0.00018   0.00000  -0.00619  -0.00619   2.66433
    R8        2.62964  -0.00102   0.00000   0.00164   0.00164   2.63128
    R9        2.07282   0.00024   0.00000   0.00012   0.00012   2.07294
   R10        2.37495   0.00167   0.00000   0.00617   0.00617   2.38112
   R11        2.04570   0.00006   0.00000   0.00019   0.00019   2.04590
   R12        2.04303  -0.00008   0.00000   0.00017   0.00017   2.04320
    A3        2.10990   0.00491   0.00000  -0.00159  -0.00159   2.10831
    A4        2.09455   0.00007   0.00000   0.00196   0.00196   2.09651
    A5        2.10748  -0.00007   0.00000   0.00290   0.00290   2.11038
    A6        2.08861  -0.00015   0.00000   0.00011   0.00011   2.08872
    A7        2.07651   0.00534   0.00000   0.00053   0.00053   2.07704
    A8        2.04762   0.00180   0.00000  -0.00176  -0.00176   2.04587
    A9        2.01821  -0.00051   0.00000   0.00004   0.00004   2.01825
   A10        2.23526   0.00389   0.00000   0.00217   0.00217   2.23743
   A11        2.10914  -0.00015   0.00000  -0.00115  -0.00115   2.10799
   A12        2.06826  -0.00002   0.00000  -0.00146  -0.00146   2.06680
    D4       -2.94507  -0.00039   0.00000  -0.00712  -0.00712  -2.95219
    D5        2.59192  -0.00190   0.00000   0.02049   0.02049   2.61241
    D6       -3.08619  -0.00321   0.00000  -0.01233  -0.01233  -3.09852
    D7        2.69103  -0.00280   0.00000   0.00780   0.00780   2.69882
    D8       -2.96174  -0.00251   0.00000  -0.01439  -0.01439  -2.97614
    D9       -2.49515  -0.00043   0.00000  -0.00691  -0.00691  -2.50207
   D10        2.99209  -0.00035   0.00000  -0.00053  -0.00053   2.99156
   D11        2.84814   0.00036   0.00000   0.00653   0.00653   2.85467
   D12        2.66361  -0.00001   0.00000  -0.00810  -0.00810   2.65551
         Item               Value     Threshold  Converged?
 Maximum Force            0.005340     0.000450     NO 
 RMS     Force            0.001878     0.000300     NO 
 Maximum Displacement     0.020492     0.001800     NO 
 RMS     Displacement     0.006258     0.001200     NO 
 Predicted change in Energy=-1.865293D-05
 GradGradGradGradGradGradGradGradGradGradGradGradGradGradGradGradGradGrad

 ---------------------------------------------------------------------------------------------------
                            Z-MATRIX (ANGSTROMS AND DEGREES)
   CD    Cent   Atom    N1       Length/X        N2       Alpha/Y        N3        Beta/Z          J
 ---------------------------------------------------------------------------------------------------
      1      1  C 
      2      2  C        1   1.387181(     1)
      3      3  C        1   1.400579(     2)      2  120.797(    12)
      4      4  H        1   1.085661(     3)      2  120.121(    13)      3 -169.148(    22)      0
      5      5  H        2   1.082835(     4)      1  120.916(    14)      3  149.680(    23)      0
      6      6  H        3   1.081406(     5)      1  119.675(    15)      2 -177.532(    24)      0
      7      7  C        3   1.409905(     6)      1  119.006(    16)      6  154.631(    25)      0
      8      8  C        2   1.392414(     7)      1  117.219(    17)      5 -170.520(    26)      0
      9      9  H        7   1.096952(     8)      3  115.637(    18)      1 -143.358(    27)      0
     10     10  O        7   1.260033(     9)      3  128.195(    19)      9  171.404(    28)      0
     11     11  H        8   1.082641(    10)      2  120.779(    20)      1  163.561(    29)      0
     12     12  H        8   1.081214(    11)      2  118.419(    21)     11  152.149(    30)      0
 ---------------------------------------------------------------------------------------------------
                         Z-Matrix orientation:                         
 ---------------------------------------------------------------------
 Center     Atomic      Atomic             Coordinates (Angstroms)
 Number     Number       Type             X           Y           Z
 ---------------------------------------------------------------------
      1          6           0        0.000000    0.000000    0.000000
      2          6           0        0.000000    0.000000    1.387181
      3          6           0        1.203074    0.000000   -0.717103
      4          1           0       -0.922270    0.176797   -0.544813
      5          1           0       -0.801918    0.468980    1.943523
      6          1           0        1.182329    0.040460   -1.797552
      7          6           0        2.371896    0.479829   -0.091444
      8          6           0        1.157210   -0.440514    2.024071
      9          1           0        3.062409    1.035329   -0.737909
     10          8           0        2.653879    0.480999    1.136631
     11          1           0        1.329935   -0.224606    3.070810
     12          1           0        1.639598   -1.334643    1.654128
 ---------------------------------------------------------------------
                    Distance matrix (angstroms):
                    1          2          3          4          5
     1  C    0.000000
     2  C    1.387181   0.000000
     3  C    1.400579   2.423922   0.000000
     4  H    1.085661   2.148125   2.139632   0.000000
     5  H    2.154134   1.082835   3.364352   2.508320   0.000000
     6  H    2.151914   3.397361   1.081406   2.453014   4.256349
     7  C    2.421671   2.835923   1.409905   3.338997   3.770187
     8  C    2.372773   1.392414   2.776723   3.362213   2.161446
     9  H    3.315835   3.868625   2.128254   4.080689   4.737495
    10  O    2.926835   2.708728   2.402608   3.963412   3.548768
    11  H    3.353960   2.157263   3.796686   4.278584   2.509310
    12  H    2.684342   2.130919   2.755823   3.699049   3.049231
                    6          7          8          9         10
     6  H    0.000000
     7  C    2.125775   0.000000
     8  C    3.851853   2.607278   0.000000
     9  H    2.376406   1.096952   3.665573   0.000000
    10  O    3.311942   1.260033   1.968947   1.997017   0.000000
    11  H    4.877806   3.403199   1.082641   4.369810   2.447806
    12  H    3.743541   2.622135   1.081214   3.655544   2.143158
                   11         12
    11  H    0.000000
    12  H    1.826215   0.000000
 Symmetry turned off by external request.
 Stoichiometry    C5H6O
 Framework group  C1[X(C5H6O)]
 Deg. of freedom    30
 Full point group                 C1      NOp   1
 Rotational constants (GHZ):           5.5433144           4.6745945           2.7099855
 Standard basis: def2TZVP (5D, 7F)
 The following finite field(s) will be applied:
 An electric field of              0.0017  0.0017  0.0007
   222 basis functions,   354 primitive gaussians,   252 cartesian basis functions
    22 alpha electrons       22 beta electrons
       nuclear repulsion energy       217.9207673881 Hartrees.
 NAtoms=   12 NActive=   12 NUniq=   12 SFac= 1.00D+00 NAtFMM=   60 NAOKFM=F Big=F
 Integral buffers will be    131072 words long.
 Raffenetti 2 integral format.
 Two-electron integral symmetry is turned off.
 One-electron integrals computed using PRISM.
   1 Symmetry operations used in ECPInt.
 ECPInt:  NShTT=    4095 NPrTT=   12396 LenC2=    4075 LenP2D=   10363.
 LDataN:  DoStor=T MaxTD1= 6 Len=  172
 NBasis=   222 RedAO= T EigKep=  1.15D-04  NBF=   222
 NBsUse=   222 1.00D-06 EigRej= -1.00D+00 NBFU=   222
 The nuclear repulsion energy is now       218.1493203540 hartrees.
 Initial guess from the checkpoint file:  "checkpoint.chk"
 B after Tr=     0.002446   -0.007648   -0.002489
         Rot=    0.999996    0.001137    0.000413   -0.002590 Ang=   0.33 deg.
 ExpMin= 9.52D-02 ExpMax= 2.70D+04 ExpMxC= 9.22D+02 IAcc=2 IRadAn=         4 AccDes= 0.00D+00
 Harris functional with IExCor=  402 and IRadAn=       4 diagonalized for initial guess.
 HarFok:  IExCor=  402 AccDes= 0.00D+00 IRadAn=         4 IDoV= 1 UseB2=F ITyADJ=14
 ICtDFT=  3500011 ScaDFX=  1.000000  1.000000  1.000000  1.000000
 FoFCou: FMM=F IPFlag=           0 FMFlag=      100000 FMFlg1=           0
         NFxFlg=           0 DoJE=T BraDBF=F KetDBF=T FulRan=T
         wScrn=  0.000000 ICntrl=       500 IOpCl=  0 I1Cent=   200000004 NGrid=           0
         NMat0=    1 NMatS0=      1 NMatT0=    0 NMatD0=    1 NMtDS0=    0 NMtDT0=    0
 Symmetry not used in FoFCou.
 Keep R1 ints in memory in canonical form, NReq=319363861.
 Requested convergence on RMS density matrix=1.00D-08 within 128 cycles.
 Requested convergence on MAX density matrix=1.00D-06.
 Requested convergence on             energy=1.00D-06.
 No special actions if energy rises.
 Integral accuracy reduced to 1.0D-05 until final iterations.
 Initial convergence to 1.0D-05 achieved.  Increase integral accuracy.
 SCF Done:  E(RB3LYP) =  -269.392772150     A.U. after   12 cycles
            NFock= 12  Conv=0.35D-08     -V/T= 2.0050
   1 Symmetry operations used in ECPInt.
 ECPInt:  NShTT=    4095 NPrTT=   12396 LenC2=    4075 LenP2D=   10363.
 LDataN:  DoStor=T MaxTD1= 7 Len=  274
 Calling FoFJK, ICntrl=      2127 FMM=F ISym2X=0 I1Cent= 0 IOpClX= 0 NMat=1 NMatS=1 NMatT=0.
 -------------------------------------------------------------------
 Center     Atomic                   Forces (Hartrees/Bohr)
 Number     Number              X              Y              Z
 -------------------------------------------------------------------
      1        6          -0.000014230   -0.000588367   -0.000008827
      2        6           0.000013072    0.000291364    0.000009806
      3        6          -0.000008802    0.000305049   -0.000008199
      4        1          -0.000001235   -0.000003827   -0.000000286
      5        1          -0.000004830   -0.000001363   -0.000001877
      6        1          -0.000001773   -0.000003776   -0.000001265
      7        6           0.000011160    0.000026574   -0.000026223
      8        6           0.000006812    0.000000740    0.000009189
      9        1           0.000003159   -0.000000582   -0.000004231
     10        8          -0.000005265   -0.000028940    0.000033471
     11        1           0.000000340    0.000002313    0.000000134
     12        1           0.000001591    0.000000814   -0.000001691
 -------------------------------------------------------------------
 Cartesian Forces:  Max     0.000588367 RMS     0.000121170
 -----------------------------------------------------------------------------------------------
                       Internal Coordinate Forces (Hartree/Bohr or radian)
  Cent   Atom   N1       Length/X         N2         Alpha/Y        N3         Beta/Z          J
 -----------------------------------------------------------------------------------------------
      1  C 
      2  C        1   0.000016(     1)
      3  C        1   0.000002(     2)      2  -0.000004(    12)
      4  H        1   0.000001(     3)      2   0.000000(    13)      3  -0.000007(    22)     0
      5  H        2   0.000002(     4)      1  -0.000007(    14)      3   0.000026(    23)     0
      6  H        3   0.000001(     5)      1  -0.000003(    15)      2   0.000069(    24)     0
      7  C        3   0.000008(     6)      1  -0.000025(    16)      6   0.000076(    25)     0
      8  C        2   0.000010(     7)      1   0.000009(    17)      5   0.000020(    26)     0
      9  H        7   0.000004(     8)      3  -0.000003(    18)      1   0.000033(    27)     0
     10  O        7   0.000031(     9)      3  -0.000057(    19)      9   0.000039(    28)     0
     11  H        8   0.000001(    10)      2  -0.000002(    20)      1   0.000001(    29)     0
     12  H        8   0.000001(    11)      2  -0.000000(    21)     11   0.000004(    30)     0
 -----------------------------------------------------------------------------------------------
 Internal  Forces:  Max     0.000076183 RMS     0.000025674

 GradGradGradGradGradGradGradGradGradGradGradGradGradGradGradGradGradGrad
 Berny optimization.
 Search for a saddle point.
 Step number   2 out of a maximum of   40
 All quantities printed in internal units (Hartrees-Bohrs-Radians)
 Swapping is turned off.
 Update second derivatives using D2CorN and points    1    2
 ITU=  0  0
     Eigenvalues ---   -0.70615   0.02572   0.02796   0.03988   0.04152
     Eigenvalues ---    0.04929   0.10620   0.12646   0.14336   0.16487
     Eigenvalues ---    0.18559   0.19793   0.24859   0.27084   0.29512
     Eigenvalues ---    0.32205   0.34426   0.34909   0.35346   0.35561
     Eigenvalues ---    0.36393   0.39022   0.39964   0.43609   0.46352
     Eigenvalues ---    0.52952   0.57588   0.71055   0.91052   2.74890
 Eigenvectors required to have negative eigenvalues:
                          A7        A3        D12       R8        R10
   1                    0.45991   0.41276   0.30361  -0.27672  -0.26639
                          A8        R7        A10       D11       R2
   1                    0.26509   0.23740   0.22448   0.22428   0.19620
 RFO step:  Lambda0=1.082902490D-09 Lambda=-3.44703606D-08.
 Linear search not attempted -- option 19 set.
 Variable       Old X    -DE/DX   Delta X   Delta X   Delta X     New X
                                 (Linear)    (Quad)   (Total)
    R2        2.62139   0.00002   0.00000   0.00004   0.00004   2.62143
    R3        2.64671   0.00000   0.00000  -0.00001  -0.00001   2.64671
    R4        2.05160   0.00000   0.00000   0.00000   0.00000   2.05161
    R5        2.04626   0.00000   0.00000   0.00001   0.00001   2.04627
    R6        2.04356   0.00000   0.00000   0.00000   0.00000   2.04356
    R7        2.66433   0.00001   0.00000   0.00002   0.00002   2.66436
    R8        2.63128   0.00001   0.00000   0.00001   0.00001   2.63129
    R9        2.07294   0.00000   0.00000   0.00001   0.00001   2.07295
   R10        2.38112   0.00003   0.00000   0.00005   0.00005   2.38117
   R11        2.04590   0.00000   0.00000   0.00001   0.00001   2.04590
   R12        2.04320   0.00000   0.00000  -0.00001  -0.00001   2.04319
    A3        2.10831  -0.00000   0.00000   0.00004   0.00004   2.10835
    A4        2.09651   0.00000   0.00000  -0.00003  -0.00003   2.09647
    A5        2.11038  -0.00001   0.00000  -0.00006  -0.00006   2.11032
    A6        2.08872  -0.00000   0.00000  -0.00001  -0.00001   2.08870
    A7        2.07704  -0.00002   0.00000   0.00006   0.00006   2.07710
    A8        2.04587   0.00001   0.00000   0.00007   0.00007   2.04594
    A9        2.01825  -0.00000   0.00000   0.00005   0.00005   2.01830
   A10        2.23743  -0.00006   0.00000  -0.00008  -0.00008   2.23735
   A11        2.10799  -0.00000   0.00000  -0.00002  -0.00002   2.10797
   A12        2.06680  -0.00000   0.00000   0.00002   0.00002   2.06682
    D4       -2.95219  -0.00001   0.00000   0.00010   0.00010  -2.95209
    D5        2.61241   0.00003   0.00000  -0.00016  -0.00016   2.61225
    D6       -3.09852   0.00007   0.00000   0.00018   0.00018  -3.09834
    D7        2.69882   0.00008   0.00000   0.00027   0.00027   2.69910
    D8       -2.97614   0.00002   0.00000  -0.00019  -0.00019  -2.97633
    D9       -2.50207   0.00003   0.00000  -0.00013  -0.00013  -2.50220
   D10        2.99156   0.00004   0.00000   0.00016   0.00016   2.99172
   D11        2.85467   0.00000   0.00000  -0.00005  -0.00005   2.85462
   D12        2.65551   0.00000   0.00000  -0.00001  -0.00001   2.65549
         Item               Value     Threshold  Converged?
 Maximum Force            0.000076     0.000450     YES
 RMS     Force            0.000026     0.000300     YES
 Maximum Displacement     0.000275     0.001800     YES
 RMS     Displacement     0.000092     0.001200     YES
 Predicted change in Energy=-1.669373D-08
 Optimization completed.
    -- Stationary point found.
                       ----------------------------
                       !   Optimized Parameters   !
                       ! (Angstroms and Degrees)  !
 ----------------------                            ----------------------
 !      Name          Value   Derivative information (Atomic Units)     !
 ------------------------------------------------------------------------
 !       R2          1.3872   -DE/DX =    0.0                           !
 !       R3          1.4006   -DE/DX =    0.0                           !
 !       R4          1.0857   -DE/DX =    0.0                           !
 !       R5          1.0828   -DE/DX =    0.0                           !
 !       R6          1.0814   -DE/DX =    0.0                           !
 !       R7          1.4099   -DE/DX =    0.0                           !
 !       R8          1.3924   -DE/DX =    0.0                           !
 !       R9          1.097    -DE/DX =    0.0                           !
 !       R10         1.26     -DE/DX =    0.0                           !
 !       R11         1.0826   -DE/DX =    0.0                           !
 !       R12         1.0812   -DE/DX =    0.0                           !
 !       A3        120.7974   -DE/DX =    0.0                           !
 !       A4        120.1209   -DE/DX =    0.0                           !
 !       A5        120.9161   -DE/DX =    0.0                           !
 !       A6        119.6746   -DE/DX =    0.0                           !
 !       A7        119.0058   -DE/DX =    0.0                           !
 !       A8        117.2195   -DE/DX =    0.0                           !
 !       A9        115.6371   -DE/DX =    0.0                           !
 !       A10       128.1953   -DE/DX =   -0.0001                        !
 !       A11       120.7792   -DE/DX =    0.0                           !
 !       A12       118.4189   -DE/DX =    0.0                           !
 !       D4       -169.1482   -DE/DX =    0.0                           !
 !       D5        149.68     -DE/DX =    0.0                           !
 !       D6       -177.532    -DE/DX =    0.0001                        !
 !       D7        154.6312   -DE/DX =    0.0001                        !
 !       D8       -170.5202   -DE/DX =    0.0                           !
 !       D9       -143.3579   -DE/DX =    0.0                           !
 !       D10       171.4037   -DE/DX =    0.0                           !
 !       D11       163.5607   -DE/DX =    0.0                           !
 !       D12       152.1494   -DE/DX =    0.0                           !
 ------------------------------------------------------------------------
 GradGradGradGradGradGradGradGradGradGradGradGradGradGradGradGradGradGrad

 ---------------------------------------------------------------------------------------------------
                            Z-MATRIX (ANGSTROMS AND DEGREES)
   CD    Cent   Atom    N1       Length/X        N2       Alpha/Y        N3        Beta/Z          J
 ---------------------------------------------------------------------------------------------------
      1      1  C 
      2      2  C        1   1.387181(     1)
      3      3  C        1   1.400579(     2)      2  120.797(    12)
      4      4  H        1   1.085661(     3)      2  120.121(    13)      3 -169.148(    22)      0
      5      5  H        2   1.082835(     4)      1  120.916(    14)      3  149.680(    23)      0
      6      6  H        3   1.081406(     5)      1  119.675(    15)      2 -177.532(    24)      0
      7      7  C        3   1.409905(     6)      1  119.006(    16)      6  154.631(    25)      0
      8      8  C        2   1.392414(     7)      1  117.219(    17)      5 -170.520(    26)      0
      9      9  H        7   1.096952(     8)      3  115.637(    18)      1 -143.358(    27)      0
     10     10  O        7   1.260033(     9)      3  128.195(    19)      9  171.404(    28)      0
     11     11  H        8   1.082641(    10)      2  120.779(    20)      1  163.561(    29)      0
     12     12  H        8   1.081214(    11)      2  118.419(    21)     11  152.149(    30)      0
 ---------------------------------------------------------------------------------------------------
                         Z-Matrix orientation:                         
 ---------------------------------------------------------------------
 Center     Atomic      Atomic             Coordinates (Angstroms)
 Number     Number       Type             X           Y           Z
 ---------------------------------------------------------------------
      1          6           0        0.000000    0.000000    0.000000
      2          6           0        0.000000    0.000000    1.387181
      3          6           0        1.203074    0.000000   -0.717103
      4          1           0       -0.922270    0.176797   -0.544813
      5          1           0       -0.801918    0.468980    1.943523
      6          1           0        1.182329    0.040460   -1.797552
      7          6           0        2.371896    0.479829   -0.091444
      8          6           0        1.157210   -0.440514    2.024071
      9          1           0        3.062409    1.035329   -0.737909
     10          8           0        2.653879    0.480999    1.136631
     11          1           0        1.329935   -0.224606    3.070810
     12          1           0        1.639598   -1.334643    1.654128
 ---------------------------------------------------------------------
                    Distance matrix (angstroms):
                    1          2          3          4          5
     1  C    0.000000
     2  C    1.387181   0.000000
     3  C    1.400579   2.423922   0.000000
     4  H    1.085661   2.148125   2.139632   0.000000
     5  H    2.154134   1.082835   3.364352   2.508320   0.000000
     6  H    2.151914   3.397361   1.081406   2.453014   4.256349
     7  C    2.421671   2.835923   1.409905   3.338997   3.770187
     8  C    2.372773   1.392414   2.776723   3.362213   2.161446
     9  H    3.315835   3.868625   2.128254   4.080689   4.737495
    10  O    2.926835   2.708728   2.402608   3.963412   3.548768
    11  H    3.353960   2.157263   3.796686   4.278584   2.509310
    12  H    2.684342   2.130919   2.755823   3.699049   3.049231
                    6          7          8          9         10
     6  H    0.000000
     7  C    2.125775   0.000000
     8  C    3.851853   2.607278   0.000000
     9  H    2.376406   1.096952   3.665573   0.000000
    10  O    3.311942   1.260033   1.968947   1.997017   0.000000
    11  H    4.877806   3.403199   1.082641   4.369810   2.447806
    12  H    3.743541   2.622135   1.081214   3.655544   2.143158
                   11         12
    11  H    0.000000
    12  H    1.826215   0.000000
 Symmetry turned off by external request.
 Stoichiometry    C5H6O
 Framework group  C1[X(C5H6O)]
 Deg. of freedom    30
 Full point group                 C1      NOp   1
 Rotational constants (GHZ):           5.5433144           4.6745945           2.7099855
 1\1\GINC-BHC0030\FTS\RB3LYP\def2TZVP\C5H6O1\DHANAWAY\10-Jun-2022\1\\# 
 Opt=(TS, CalcFC, noeigentest, Z-matrix, MaxStep=10) Field=read NoSymm 
 B3LYP/Def2TZVP freq=noraman pop=none\\ts_zmat_initalOpt\\0,1\C\C,1,R2\
 C,1,R3,2,A3\H,1,R4,2,A4,3,D4,0\H,2,R5,1,A5,3,D5,0\H,3,R6,1,A6,2,D6,0\C
 ,3,R7,1,A7,6,D7,0\C,2,R8,1,A8,5,D8,0\H,7,R9,3,A9,1,D9,0\O,7,R10,3,A10,
 9,D10,0\H,8,R11,2,A11,1,D11,0\H,8,R12,2,A12,11,D12,0\\R2=1.3871809\R3=
 1.40057934\R4=1.0856614\R5=1.0828348\R6=1.08140577\R7=1.40990461\R8=1.
 39241391\R9=1.09695213\R10=1.26003325\R11=1.0826412\R12=1.0812142\A3=1
 20.79742959\A4=120.12090149\A5=120.91611721\A6=119.67461486\A7=119.005
 75037\A8=117.21946072\A9=115.63708419\A10=128.19528053\A11=120.7792081
 9\A12=118.41886266\D4=-169.14815493\D5=149.67995844\D6=-177.53198641\D
 7=154.63121453\D8=-170.5202162\D9=-143.35788004\D10=171.40367379\D11=1
 63.56069163\D12=152.14944866\\Version=ES64L-G16RevA.03\HF=-269.3927722
 \RMSD=3.512e-09\RMSF=1.212e-04\Dipole=-0.5060458,-0.1047518,-0.2367089
 \PG=C01 [X(C5H6O1)]\\@


 ADVERTISING--  HE WHO HAS SOMETHING TO SELL AND GOES AND WHISPERS
                IN A WELL, IS NOT SO APT TO GET THE DOLLARS AS HE
                WHO CLIMBS A TREE AND HOLLERS.

                   -- FROM THE BACK OF A SUGAR PACKET
 Job cpu time:       0 days  0 hours 35 minutes 56.5 seconds.
 Elapsed time:       0 days  0 hours  3 minutes 13.2 seconds.
 File lengths (MBytes):  RWF=     54 Int=      0 D2E=      0 Chk=     32 Scr=      1
 Normal termination of Gaussian 16 at Fri Jun 10 11:09:18 2022.
 Link1:  Proceeding to internal job step number  2.
 --------------------------------------------------------------------
 #N Geom=AllCheck Guess=TCheck SCRF=Check GenChk RB3LYP/def2TZVP Freq
 --------------------------------------------------------------------
 1/5=1,8=10,10=4,11=1,29=7,30=1,38=1,40=1/1,3;
 2/12=2,15=1,40=1/2;
 3/5=44,7=101,11=2,14=-4,25=1,30=1,70=2,71=2,74=-5,116=1,140=1/1,2,3;
 4/5=101/1;
 5/5=2,38=6,98=1/2;
 8/6=4,10=90,11=11/1;
 11/6=1,8=1,9=11,15=111,16=1,31=1/1,2,10;
 10/6=1,31=1/2;
 7/8=1,10=1,25=1,30=1/1,2,3,16;
 1/5=1,8=10,10=4,11=1,30=1/3;
 99//99;
 Structure from the checkpoint file:  "checkpoint.chk"
 -----------------
 ts_zmat_initalOpt
 -----------------
 Charge =  0 Multiplicity = 1
 Z-Matrix found in chk file.
 C
 C,1,R2
 C,1,R3,2,A3
 H,1,R4,2,A4,3,D4,0
 H,2,R5,1,A5,3,D5,0
 H,3,R6,1,A6,2,D6,0
 C,3,R7,1,A7,6,D7,0
 C,2,R8,1,A8,5,D8,0
 H,7,R9,3,A9,1,D9,0
 O,7,R10,3,A10,9,D10,0
 H,8,R11,2,A11,1,D11,0
 H,8,R12,2,A12,11,D12,0
      Variables:
 R2=1.3871809
 R3=1.40057934
 R4=1.0856614
 R5=1.0828348
 R6=1.08140577
 R7=1.40990461
 R8=1.39241391
 R9=1.09695213
 R10=1.26003325
 R11=1.0826412
 R12=1.0812142
 A3=120.79742959
 A4=120.12090149
 A5=120.91611721
 A6=119.67461486
 A7=119.00575037
 A8=117.21946072
 A9=115.63708419
 A10=128.19528053
 A11=120.77920819
 A12=118.41886266
 D4=-169.14815493
 D5=149.67995844
 D6=-177.53198641
 D7=154.63121453
 D8=-170.5202162
 D9=-143.35788004
 D10=171.40367379
 D11=163.56069163
 D12=152.14944866
 Recover connectivity data from disk.

 GradGradGradGradGradGradGradGradGradGradGradGradGradGradGradGradGradGrad
 Berny optimization.
 Initialization pass.
                       ----------------------------
                       !    Initial Parameters    !
                       ! (Angstroms and Degrees)  !
 ----------------------                            ----------------------
 !      Name          Value   Derivative information (Atomic Units)     !
 ------------------------------------------------------------------------
 !       R2          1.3872   calculate D2E/DX2 analytically            !
 !       R3          1.4006   calculate D2E/DX2 analytically            !
 !       R4          1.0857   calculate D2E/DX2 analytically            !
 !       R5          1.0828   calculate D2E/DX2 analytically            !
 !       R6          1.0814   calculate D2E/DX2 analytically            !
 !       R7          1.4099   calculate D2E/DX2 analytically            !
 !       R8          1.3924   calculate D2E/DX2 analytically            !
 !       R9          1.097    calculate D2E/DX2 analytically            !
 !       R10         1.26     calculate D2E/DX2 analytically            !
 !       R11         1.0826   calculate D2E/DX2 analytically            !
 !       R12         1.0812   calculate D2E/DX2 analytically            !
 !       A3        120.7974   calculate D2E/DX2 analytically            !
 !       A4        120.1209   calculate D2E/DX2 analytically            !
 !       A5        120.9161   calculate D2E/DX2 analytically            !
 !       A6        119.6746   calculate D2E/DX2 analytically            !
 !       A7        119.0058   calculate D2E/DX2 analytically            !
 !       A8        117.2195   calculate D2E/DX2 analytically            !
 !       A9        115.6371   calculate D2E/DX2 analytically            !
 !       A10       128.1953   calculate D2E/DX2 analytically            !
 !       A11       120.7792   calculate D2E/DX2 analytically            !
 !       A12       118.4189   calculate D2E/DX2 analytically            !
 !       D4       -169.1482   calculate D2E/DX2 analytically            !
 !       D5        149.68     calculate D2E/DX2 analytically            !
 !       D6       -177.532    calculate D2E/DX2 analytically            !
 !       D7        154.6312   calculate D2E/DX2 analytically            !
 !       D8       -170.5202   calculate D2E/DX2 analytically            !
 !       D9       -143.3579   calculate D2E/DX2 analytically            !
 !       D10       171.4037   calculate D2E/DX2 analytically            !
 !       D11       163.5607   calculate D2E/DX2 analytically            !
 !       D12       152.1494   calculate D2E/DX2 analytically            !
 ------------------------------------------------------------------------
 Trust Radius=1.00D-01 FncErr=1.00D-07 GrdErr=1.00D-07 EigMax=2.50D+02 EigMin=1.00D-04
 Number of steps in this run=      2 maximum allowed number of steps=      2.
 Search for a saddle point of order  1.
 GradGradGradGradGradGradGradGradGradGradGradGradGradGradGradGradGradGrad

                          Input orientation:                          
 ---------------------------------------------------------------------
 Center     Atomic      Atomic             Coordinates (Angstroms)
 Number     Number       Type             X           Y           Z
 ---------------------------------------------------------------------
      1          6           0        0.000000    0.000000    0.000000
      2          6           0        0.000000    0.000000    1.387181
      3          6           0        1.203074    0.000000   -0.717103
      4          1           0       -0.922270    0.176797   -0.544813
      5          1           0       -0.801918    0.468980    1.943523
      6          1           0        1.182329    0.040460   -1.797552
      7          6           0        2.371896    0.479829   -0.091444
      8          6           0        1.157210   -0.440514    2.024071
      9          1           0        3.062409    1.035329   -0.737909
     10          8           0        2.653879    0.480999    1.136631
     11          1           0        1.329935   -0.224606    3.070810
     12          1           0        1.639598   -1.334643    1.654128
 ---------------------------------------------------------------------
                    Distance matrix (angstroms):
                    1          2          3          4          5
     1  C    0.000000
     2  C    1.387181   0.000000
     3  C    1.400579   2.423922   0.000000
     4  H    1.085661   2.148125   2.139632   0.000000
     5  H    2.154134   1.082835   3.364352   2.508320   0.000000
     6  H    2.151914   3.397361   1.081406   2.453014   4.256349
     7  C    2.421671   2.835923   1.409905   3.338997   3.770187
     8  C    2.372773   1.392414   2.776723   3.362213   2.161446
     9  H    3.315835   3.868625   2.128254   4.080689   4.737495
    10  O    2.926835   2.708728   2.402608   3.963412   3.548768
    11  H    3.353960   2.157263   3.796686   4.278584   2.509310
    12  H    2.684342   2.130919   2.755823   3.699049   3.049231
                    6          7          8          9         10
     6  H    0.000000
     7  C    2.125775   0.000000
     8  C    3.851853   2.607278   0.000000
     9  H    2.376406   1.096952   3.665573   0.000000
    10  O    3.311942   1.260033   1.968947   1.997017   0.000000
    11  H    4.877806   3.403199   1.082641   4.369810   2.447806
    12  H    3.743541   2.622135   1.081214   3.655544   2.143158
                   11         12
    11  H    0.000000
    12  H    1.826215   0.000000
 Symmetry turned off by external request.
 Stoichiometry    C5H6O
 Framework group  C1[X(C5H6O)]
 Deg. of freedom    30
 Full point group                 C1      NOp   1
 Rotational constants (GHZ):           5.5433144           4.6745945           2.7099855
 Standard basis: def2TZVP (5D, 7F)
 The following finite field(s) will be applied:
 An electric field of              0.0017  0.0017  0.0007
   222 basis functions,   354 primitive gaussians,   252 cartesian basis functions
    22 alpha electrons       22 beta electrons
       nuclear repulsion energy       217.9207673881 Hartrees.
 NAtoms=   12 NActive=   12 NUniq=   12 SFac= 1.00D+00 NAtFMM=   60 NAOKFM=F Big=F
 Integral buffers will be    131072 words long.
 Raffenetti 2 integral format.
 Two-electron integral symmetry is turned off.
 One-electron integrals computed using PRISM.
   1 Symmetry operations used in ECPInt.
 ECPInt:  NShTT=    4095 NPrTT=   12396 LenC2=    4075 LenP2D=   10363.
 LDataN:  DoStor=T MaxTD1= 6 Len=  172
 NBasis=   222 RedAO= T EigKep=  1.15D-04  NBF=   222
 NBsUse=   222 1.00D-06 EigRej= -1.00D+00 NBFU=   222
 The nuclear repulsion energy is now       218.1493203540 hartrees.
 Initial guess from the checkpoint file:  "checkpoint.chk"
 B after Tr=     0.000000    0.000000    0.000000
         Rot=    1.000000    0.000000    0.000000    0.000000 Ang=   0.00 deg.
 Keep R1 ints in memory in canonical form, NReq=319363861.
 Requested convergence on RMS density matrix=1.00D-08 within 128 cycles.
 Requested convergence on MAX density matrix=1.00D-06.
 Requested convergence on             energy=1.00D-06.
 No special actions if energy rises.
 SCF Done:  E(RB3LYP) =  -269.392772150     A.U. after    1 cycles
            NFock=  1  Conv=0.25D-08     -V/T= 2.0050
 DoSCS=F DFT=T ScalE2(SS,OS)=  1.000000  1.000000
 Range of M.O.s used for correlation:     1   222
 NBasis=   222 NAE=    22 NBE=    22 NFC=     0 NFV=     0
 NROrb=    222 NOA=    22 NOB=    22 NVA=   200 NVB=   200

 **** Warning!!: The largest alpha MO coefficient is  0.19184137D+02

   1 Symmetry operations used in ECPInt.
 ECPInt:  NShTT=    4095 NPrTT=   12396 LenC2=    4075 LenP2D=   10363.
 LDataN:  DoStor=T MaxTD1= 7 Len=  274
 Symmetrizing basis deriv contribution to polar:
 IMax=3 JMax=2 DiffMx= 0.00D+00
 G2DrvN: will do    13 centers at a time, making    1 passes.
 Calling FoFCou, ICntrl=  3107 FMM=F I1Cent=   0 AccDes= 0.00D+00.
 End of G2Drv F.D. properties file   721 does not exist.
 End of G2Drv F.D. properties file   722 does not exist.
 End of G2Drv F.D. properties file   788 does not exist.
          IDoAtm=111111111111
          Differentiating once with respect to electric field.
                with respect to dipole field.
          Differentiating once with respect to nuclear coordinates.
 Keep R1 ints in memory in canonical form, NReq=319333990.
          There are    39 degrees of freedom in the 1st order CPHF.  IDoFFX=6 NUNeed=     3.
     36 vectors produced by pass  0 Test12= 1.13D-14 2.56D-09 XBig12= 1.12D+02 6.50D+00.
 AX will form    36 AO Fock derivatives at one time.
     36 vectors produced by pass  1 Test12= 1.13D-14 2.56D-09 XBig12= 3.57D+01 9.20D-01.
     36 vectors produced by pass  2 Test12= 1.13D-14 2.56D-09 XBig12= 3.06D-01 5.71D-02.
     36 vectors produced by pass  3 Test12= 1.13D-14 2.56D-09 XBig12= 1.31D-03 4.24D-03.
     36 vectors produced by pass  4 Test12= 1.13D-14 2.56D-09 XBig12= 2.88D-06 2.59D-04.
     31 vectors produced by pass  5 Test12= 1.13D-14 2.56D-09 XBig12= 3.90D-09 1.04D-05.
      8 vectors produced by pass  6 Test12= 1.13D-14 2.56D-09 XBig12= 5.56D-12 3.17D-07.
      3 vectors produced by pass  7 Test12= 1.13D-14 2.56D-09 XBig12= 8.25D-15 1.40D-08.
 InvSVY:  IOpt=1 It=  1 EMax= 1.42D-14
 Solved reduced A of dimension   222 with    39 vectors.
 Isotropic polarizability for W=    0.000000       65.24 Bohr**3.
 End of Minotr F.D. properties file   721 does not exist.
 End of Minotr F.D. properties file   722 does not exist.
 End of Minotr F.D. properties file   788 does not exist.
   1 Symmetry operations used in ECPInt.
 ECPInt:  NShTT=    4095 NPrTT=   12396 LenC2=    4075 LenP2D=   10363.
 LDataN:  DoStor=T MaxTD1= 8 Len=  415
 Calling FoFJK, ICntrl=    100127 FMM=F ISym2X=0 I1Cent= 0 IOpClX= 0 NMat=1 NMatS=1 NMatT=0.
 Full mass-weighted force constant matrix:
 Low frequencies --- -512.4661   -4.4787   -0.0009   -0.0008   -0.0006    5.2836
 Low frequencies ---    9.0215  243.0637  375.8984
 ******    1 imaginary frequencies (negative Signs) ****** 
 Diagonal vibrational polarizability:
        6.6154116       7.6022607       8.7208953
 Harmonic frequencies (cm**-1), IR intensities (KM/Mole), Raman scattering
 activities (A**4/AMU), depolarization ratios for plane and unpolarized
 incident light, reduced masses (AMU), force constants (mDyne/A),
 and normal coordinates:
                      1                      2                      3
                      A                      A                      A
 Frequencies --   -512.4652               243.0623               375.8980
 Red. masses --      5.6851                 2.8972                 2.5500
 Frc consts  --      0.8797                 0.1008                 0.2123
 IR Inten    --     44.2773                 4.6331                 9.5062
  Atom  AN      X      Y      Z        X      Y      Z        X      Y      Z
     1   6    -0.03   0.04   0.06    -0.02   0.11   0.02     0.05  -0.08  -0.02
     2   6     0.01  -0.01  -0.07     0.01   0.08   0.03     0.13   0.19  -0.00
     3   6     0.06   0.02  -0.03     0.01  -0.17   0.07     0.03  -0.11  -0.03
     4   1     0.01   0.23   0.06     0.02   0.24   0.00     0.03  -0.17  -0.02
     5   1    -0.07  -0.34   0.08     0.11   0.12   0.13     0.25   0.45  -0.04
     6   1     0.03   0.03  -0.03     0.07  -0.37   0.07     0.02  -0.09  -0.03
     7   6    -0.08  -0.09  -0.02     0.01  -0.07   0.04    -0.11   0.16   0.04
     8   6     0.38   0.20  -0.19     0.01  -0.15  -0.17     0.01  -0.06  -0.00
     9   1     0.18  -0.18   0.24     0.03  -0.21  -0.06    -0.34   0.59   0.16
    10   8    -0.29  -0.11   0.18    -0.04   0.20   0.04    -0.07  -0.11   0.01
    11   1     0.38   0.28  -0.21     0.15  -0.47  -0.13     0.06  -0.13  -0.00
    12   1    -0.08  -0.19   0.11    -0.03  -0.03  -0.53    -0.17  -0.15  -0.04
                      4                      5                      6
                      A                      A                      A
 Frequencies --    420.2122               571.3875               589.3939
 Red. masses --      4.3518                 2.6879                 3.7517
 Frc consts  --      0.4527                 0.5170                 0.7679
 IR Inten    --      4.5642                23.9029                 2.5644
  Atom  AN      X      Y      Z        X      Y      Z        X      Y      Z
     1   6    -0.17  -0.17  -0.02    -0.01  -0.16  -0.02    -0.16   0.05  -0.17
     2   6    -0.13   0.07  -0.03     0.12   0.14   0.01     0.19  -0.06  -0.16
     3   6    -0.05   0.05   0.18    -0.07   0.21  -0.06    -0.14  -0.03  -0.04
     4   1    -0.16  -0.53  -0.16    -0.13  -0.61   0.04    -0.22   0.27   0.01
     5   1    -0.12   0.00   0.04     0.12   0.15   0.00     0.39   0.20  -0.09
     6   1     0.05  -0.08   0.17    -0.01   0.02  -0.07     0.12   0.06  -0.04
     7   6     0.01   0.06   0.10     0.05  -0.11  -0.00    -0.15  -0.08   0.16
     8   6     0.04   0.13  -0.25    -0.01  -0.07   0.03     0.09  -0.02   0.04
     9   1    -0.06   0.05   0.03     0.34  -0.48  -0.02    -0.23  -0.12   0.04
    10   8     0.24  -0.08   0.06    -0.08   0.06   0.04     0.13   0.06   0.10
    11   1     0.21  -0.02  -0.26    -0.01  -0.24   0.06    -0.23   0.25   0.04
    12   1    -0.13   0.12  -0.44    -0.04  -0.03  -0.11     0.30  -0.04   0.37
                      7                      8                      9
                      A                      A                      A
 Frequencies --    720.7197               788.1041               884.2124
 Red. masses --      1.2464                 1.3778                 2.1069
 Frc consts  --      0.3814                 0.5042                 0.9705
 IR Inten    --     49.2681                28.3567                24.5348
  Atom  AN      X      Y      Z        X      Y      Z        X      Y      Z
     1   6    -0.00  -0.07   0.01     0.05  -0.07   0.02    -0.09  -0.02   0.00
     2   6    -0.05  -0.08   0.03    -0.00   0.05   0.01     0.07   0.09  -0.08
     3   6     0.01   0.03   0.02    -0.00  -0.05  -0.07     0.03  -0.05   0.19
     4   1     0.06   0.25  -0.00     0.08   0.20   0.06    -0.02   0.02  -0.10
     5   1     0.32   0.72  -0.09    -0.15  -0.12  -0.07    -0.02  -0.34   0.15
     6   1    -0.06   0.25   0.03    -0.18   0.82  -0.04    -0.16   0.55   0.22
     7   6     0.05  -0.01  -0.00    -0.04  -0.09   0.03     0.10   0.02  -0.06
     8   6    -0.01  -0.02  -0.04    -0.01   0.05  -0.01    -0.02  -0.09  -0.03
     9   1     0.04  -0.02  -0.01    -0.18   0.08   0.02     0.03   0.05  -0.10
    10   8    -0.02   0.03  -0.00     0.03   0.03   0.02    -0.05   0.02  -0.04
    11   1     0.25   0.30  -0.15     0.02  -0.23   0.04    -0.22   0.32  -0.08
    12   1    -0.11  -0.11   0.06    -0.02   0.14  -0.24     0.00  -0.26   0.38
                     10                     11                     12
                      A                      A                      A
 Frequencies --    953.2892               963.7984               979.4652
 Red. masses --      1.5599                 1.4323                 1.4589
 Frc consts  --      0.8352                 0.7839                 0.8246
 IR Inten    --     47.9006                 5.0393                 3.3117
  Atom  AN      X      Y      Z        X      Y      Z        X      Y      Z
     1   6    -0.03  -0.12   0.03     0.01   0.04  -0.01    -0.03  -0.10   0.02
     2   6    -0.01   0.08  -0.01    -0.03   0.03   0.03     0.03  -0.00  -0.03
     3   6     0.02   0.02  -0.07    -0.02   0.04  -0.06    -0.01   0.09   0.05
     4   1     0.02   0.62   0.18    -0.02  -0.24  -0.05     0.06   0.54   0.08
     5   1    -0.23  -0.27  -0.03    -0.12  -0.20   0.09     0.03   0.02  -0.04
     6   1     0.08  -0.23  -0.08     0.05  -0.13  -0.07     0.05  -0.35   0.04
     7   6    -0.05   0.07  -0.01     0.05  -0.13   0.01     0.08  -0.08  -0.04
     8   6    -0.02  -0.06   0.03    -0.01  -0.06  -0.00     0.01   0.05  -0.01
     9   1     0.20  -0.25  -0.02    -0.40   0.52   0.08    -0.29   0.44   0.01
    10   8     0.07   0.02   0.03     0.02   0.05   0.02    -0.03  -0.00  -0.01
    11   1     0.24   0.18  -0.07     0.37   0.37  -0.16    -0.36  -0.27   0.12
    12   1    -0.26  -0.24   0.12    -0.15  -0.19   0.13     0.09   0.12  -0.06
                     13                     14                     15
                      A                      A                      A
 Frequencies --   1016.8878              1042.4737              1099.5680
 Red. masses --      3.5958                 1.7649                 1.3280
 Frc consts  --      2.1908                 1.1301                 0.9460
 IR Inten    --     16.9087                 4.6471                18.5835
  Atom  AN      X      Y      Z        X      Y      Z        X      Y      Z
     1   6     0.28  -0.00   0.11    -0.04   0.00  -0.11     0.02  -0.03  -0.01
     2   6     0.04   0.00  -0.09     0.01  -0.00  -0.03     0.06   0.02   0.03
     3   6    -0.02   0.13   0.16     0.03   0.04   0.13    -0.03  -0.00  -0.01
     4   1     0.36  -0.07  -0.01     0.06   0.12  -0.24     0.00   0.17   0.07
     5   1    -0.13  -0.03  -0.33    -0.16  -0.03  -0.25     0.07  -0.18   0.20
     6   1    -0.02  -0.18   0.17     0.34   0.07   0.13     0.02  -0.04  -0.01
     7   6    -0.24  -0.08   0.05    -0.04  -0.02   0.01     0.02   0.01   0.07
     8   6    -0.06  -0.02  -0.12     0.04   0.00   0.15    -0.09  -0.01  -0.04
     9   1    -0.34  -0.30  -0.23    -0.14  -0.06  -0.13     0.06  -0.03   0.05
    10   8     0.02   0.01  -0.06    -0.05  -0.02  -0.07    -0.05  -0.04  -0.02
    11   1    -0.19   0.29  -0.17     0.68  -0.17   0.07     0.21   0.43  -0.19
    12   1    -0.04  -0.12   0.13    -0.09   0.10  -0.28     0.55   0.46  -0.27
                     16                     17                     18
                      A                      A                      A
 Frequencies --   1113.6493              1181.8457              1248.1888
 Red. masses --      1.5555                 1.2180                 1.3684
 Frc consts  --      1.1366                 1.0024                 1.2561
 IR Inten    --      1.0836                13.0966                 2.7553
  Atom  AN      X      Y      Z        X      Y      Z        X      Y      Z
     1   6    -0.02  -0.04  -0.05    -0.03   0.01   0.04    -0.03   0.01   0.04
     2   6    -0.09   0.05   0.11     0.04  -0.03   0.00    -0.09   0.07  -0.00
     3   6     0.09   0.04  -0.03     0.07  -0.00  -0.01     0.03  -0.00  -0.01
     4   1     0.21   0.07  -0.41    -0.36  -0.10   0.57    -0.13  -0.08   0.17
     5   1     0.18   0.00   0.55     0.05  -0.01  -0.01    -0.36   0.24  -0.51
     6   1     0.47   0.10  -0.03     0.65   0.15  -0.01     0.16   0.05  -0.01
     7   6    -0.09  -0.03   0.01    -0.01  -0.01   0.02    -0.00  -0.01  -0.03
     8   6     0.04  -0.02  -0.02    -0.05   0.03  -0.03     0.07  -0.09  -0.00
     9   1    -0.10  -0.10  -0.06    -0.07  -0.00  -0.05    -0.01   0.04   0.00
    10   8     0.00   0.00  -0.04    -0.01   0.00  -0.05     0.01  -0.00   0.01
    11   1    -0.26  -0.03   0.04    -0.09   0.04  -0.03    -0.05   0.02   0.01
    12   1     0.20  -0.03   0.20    -0.21  -0.04  -0.06     0.62   0.14   0.17
                     19                     20                     21
                      A                      A                      A
 Frequencies --   1348.8731              1403.2299              1441.4080
 Red. masses --      1.3647                 1.8668                 1.8073
 Frc consts  --      1.4629                 2.1657                 2.2124
 IR Inten    --     42.1881                59.6204                62.7318
  Atom  AN      X      Y      Z        X      Y      Z        X      Y      Z
     1   6     0.00  -0.00   0.00     0.01   0.00  -0.03     0.10  -0.02  -0.14
     2   6     0.02  -0.00   0.04     0.07  -0.02   0.15    -0.07   0.03   0.03
     3   6    -0.06  -0.01   0.02    -0.15  -0.04  -0.03    -0.05  -0.01   0.02
     4   1     0.08   0.05  -0.12     0.18   0.08  -0.31    -0.23   0.09   0.45
     5   1    -0.14  -0.02  -0.18    -0.33  -0.04  -0.41    -0.03  -0.05   0.17
     6   1     0.12   0.01   0.02     0.36   0.06  -0.05    -0.22  -0.05   0.03
     7   6    -0.01  -0.03   0.08     0.11   0.06   0.05     0.06   0.02   0.14
     8   6     0.02   0.01  -0.02     0.03   0.01  -0.05     0.02   0.03  -0.05
     9   1     0.46   0.19   0.78    -0.16  -0.13  -0.44    -0.10  -0.09  -0.16
    10   8    -0.00   0.02  -0.12    -0.03  -0.02   0.02    -0.03  -0.01  -0.07
    11   1    -0.09  -0.00  -0.00    -0.26   0.15  -0.04     0.24  -0.38   0.02
    12   1    -0.09  -0.10   0.07    -0.18  -0.12  -0.01     0.13  -0.17   0.53
                     22                     23                     24
                      A                      A                      A
 Frequencies --   1496.8972              1555.0925              1617.5086
 Red. masses --      1.7392                 2.2662                 5.6545
 Frc consts  --      2.2960                 3.2289                 8.7163
 IR Inten    --      5.1588                22.7002               120.9979
  Atom  AN      X      Y      Z        X      Y      Z        X      Y      Z
     1   6     0.05  -0.00   0.09    -0.14   0.02   0.09    -0.07  -0.01   0.30
     2   6    -0.00  -0.00  -0.10     0.13  -0.04   0.07    -0.11   0.04  -0.29
     3   6    -0.16  -0.03   0.00     0.16   0.02  -0.06    -0.02  -0.01  -0.15
     4   1     0.20  -0.02  -0.14     0.09  -0.04  -0.33     0.29  -0.07  -0.31
     5   1     0.16  -0.03   0.15    -0.10  -0.01  -0.32     0.20   0.02   0.16
     6   1     0.56   0.12  -0.01    -0.26  -0.08  -0.06     0.03  -0.03  -0.16
     7   6     0.03   0.02  -0.09    -0.02  -0.01   0.06     0.15   0.04   0.34
     8   6    -0.07   0.03  -0.02    -0.13   0.07  -0.09     0.12  -0.03   0.09
     9   1     0.13   0.08   0.06    -0.10  -0.07  -0.08    -0.24  -0.19  -0.37
    10   8     0.01  -0.00   0.06    -0.00   0.00  -0.03    -0.05  -0.01  -0.17
    11   1     0.39  -0.36  -0.01     0.34  -0.39  -0.08    -0.07   0.05   0.12
    12   1     0.21   0.01   0.38     0.16  -0.02   0.51    -0.08  -0.02  -0.23
                     25                     26                     27
                      A                      A                      A
 Frequencies --   3025.4015              3141.3146              3146.6288
 Red. masses --      1.0852                 1.0573                 1.0873
 Frc consts  --      5.8521                 6.1470                 6.3429
 IR Inten    --     39.2863                16.4285                 8.2527
  Atom  AN      X      Y      Z        X      Y      Z        X      Y      Z
     1   6    -0.00   0.00  -0.00     0.00  -0.00   0.00    -0.07   0.01  -0.04
     2   6    -0.00   0.00  -0.00     0.00  -0.00  -0.00     0.02  -0.01  -0.01
     3   6     0.00   0.00  -0.00    -0.00  -0.00  -0.00     0.00  -0.00   0.01
     4   1     0.00   0.00   0.00    -0.04   0.01  -0.02     0.81  -0.15   0.48
     5   1     0.00  -0.00  -0.00    -0.04   0.02   0.03    -0.18   0.11   0.12
     6   1    -0.00  -0.00   0.06     0.00  -0.00   0.01    -0.01   0.00  -0.15
     7   6    -0.06  -0.04   0.04     0.00   0.00   0.00    -0.00  -0.00   0.00
     8   6     0.00   0.00  -0.00     0.04  -0.04   0.03     0.00   0.00   0.00
     9   1     0.64   0.50  -0.58     0.00  -0.00  -0.00     0.00   0.00  -0.00
    10   8     0.00  -0.00   0.00    -0.00   0.00  -0.00    -0.00  -0.00  -0.00
    11   1    -0.00  -0.00  -0.00    -0.10  -0.14  -0.61    -0.01  -0.01  -0.05
    12   1    -0.00  -0.00  -0.00    -0.35   0.62   0.28     0.00   0.00   0.00
                     28                     29                     30
                      A                      A                      A
 Frequencies --   3176.9791              3194.4757              3225.7689
 Red. masses --      1.0920                 1.0914                 1.1177
 Frc consts  --      6.4941                 6.5620                 6.8524
 IR Inten    --      5.4580                 7.0465                 5.5559
  Atom  AN      X      Y      Z        X      Y      Z        X      Y      Z
     1   6    -0.02   0.00  -0.01    -0.02   0.00  -0.01     0.00  -0.00   0.00
     2   6    -0.06   0.03   0.04    -0.00   0.00   0.00     0.01  -0.01  -0.01
     3   6     0.00  -0.00   0.01    -0.00   0.00  -0.08    -0.00  -0.00   0.00
     4   1     0.19  -0.04   0.12     0.15  -0.03   0.09    -0.01   0.00  -0.00
     5   1     0.70  -0.41  -0.49     0.06  -0.03  -0.04    -0.13   0.07   0.09
     6   1    -0.00   0.00  -0.12     0.02  -0.03   0.97    -0.00   0.00  -0.02
     7   6    -0.00  -0.00   0.00     0.01   0.00  -0.00    -0.00  -0.00   0.00
     8   6     0.01  -0.01  -0.01     0.00  -0.00  -0.00     0.01  -0.06  -0.08
     9   1     0.00   0.00  -0.00    -0.04  -0.03   0.03     0.00   0.00  -0.00
    10   8     0.00   0.00  -0.00     0.00  -0.00   0.00    -0.00   0.00   0.00
    11   1     0.01   0.02   0.08     0.00   0.01   0.02     0.13   0.16   0.74
    12   1    -0.07   0.12   0.05    -0.01   0.02   0.01    -0.29   0.50   0.21

 -------------------
 - Thermochemistry -
 -------------------
 Temperature   298.150 Kelvin.  Pressure   1.00000 Atm.
 Atom     1 has atomic number  6 and mass  12.00000
 Atom     2 has atomic number  6 and mass  12.00000
 Atom     3 has atomic number  6 and mass  12.00000
 Atom     4 has atomic number  1 and mass   1.00783
 Atom     5 has atomic number  1 and mass   1.00783
 Atom     6 has atomic number  1 and mass   1.00783
 Atom     7 has atomic number  6 and mass  12.00000
 Atom     8 has atomic number  6 and mass  12.00000
 Atom     9 has atomic number  1 and mass   1.00783
 Atom    10 has atomic number  8 and mass  15.99491
 Atom    11 has atomic number  1 and mass   1.00783
 Atom    12 has atomic number  1 and mass   1.00783
 Molecular mass:    82.04186 amu.
 Principal axes and moments of inertia in atomic units:
                           1         2         3
     Eigenvalues --   325.57078 386.07438 665.95974
           X            0.92763   0.32450  -0.18493
           Y            0.21573  -0.06133   0.97452
           Z           -0.30489   0.94390   0.12690
 This molecule is an asymmetric top.
 Rotational symmetry number  1.
 Rotational temperatures (Kelvin)      0.26604     0.22435     0.13006
 Rotational constants (GHZ):           5.54331     4.67459     2.70999
    1 imaginary frequencies ignored.
 Zero-point vibrational energy     251010.8 (Joules/Mol)
                                   59.99303 (Kcal/Mol)
 Warning -- explicit consideration of   5 degrees of freedom as
           vibrations may cause significant error
 Vibrational temperatures:    349.71   540.83   604.59   822.10   848.01
          (Kelvin)           1036.95  1133.91  1272.18  1371.57  1386.69
                             1409.23  1463.07  1499.89  1582.03  1602.29
                             1700.41  1795.87  1940.73  2018.93  2073.86
                             2153.70  2237.43  2327.23  4352.88  4519.65
                             4527.30  4570.96  4596.14  4641.16
 
 Zero-point correction=                           0.095605 (Hartree/Particle)
 Thermal correction to Energy=                    0.100451
 Thermal correction to Enthalpy=                  0.101395
 Thermal correction to Gibbs Free Energy=         0.067578
 Sum of electronic and zero-point Energies=           -269.297167
 Sum of electronic and thermal Energies=              -269.292321
 Sum of electronic and thermal Enthalpies=            -269.291377
 Sum of electronic and thermal Free Energies=         -269.325194
 
                     E (Thermal)             CV                S
                      KCal/Mol        Cal/Mol-Kelvin    Cal/Mol-Kelvin
 Total                   63.034             18.207             71.175
 Electronic               0.000              0.000              0.000
 Translational            0.889              2.981             39.128
 Rotational               0.889              2.981             25.929
 Vibrational             61.256             12.245              6.118
 Vibration     1          0.659              1.774              1.780
 Vibration     2          0.747              1.521              1.056
 Vibration     3          0.783              1.426              0.891
 Vibration     4          0.928              1.093              0.502
 Vibration     5          0.947              1.054              0.468
                       Q            Log10(Q)             Ln(Q)
 Total Bot       0.824956D-31        -31.083569        -71.572563
 Total V=0       0.779163D+13         12.891629         29.684072
 Vib (Bot)       0.272707D-43        -43.564304       -100.310517
 Vib (Bot)    1  0.805578D+00         -0.093893         -0.216196
 Vib (Bot)    2  0.482370D+00         -0.316619         -0.729043
 Vib (Bot)    3  0.417790D+00         -0.379041         -0.872775
 Vib (Bot)    4  0.268984D+00         -0.570274         -1.313103
 Vib (Bot)    5  0.256104D+00         -0.591584         -1.362173
 Vib (V=0)       0.257569D+01          0.410894          0.946117
 Vib (V=0)    1  0.144813D+01          0.160808          0.370275
 Vib (V=0)    2  0.119475D+01          0.077278          0.177939
 Vib (V=0)    3  0.115157D+01          0.061292          0.141130
 Vib (V=0)    4  0.106776D+01          0.028474          0.065564
 Vib (V=0)    5  0.106177D+01          0.026032          0.059940
 Electronic      0.100000D+01          0.000000          0.000000
 Translational   0.292084D+08          7.465507         17.189966
 Rotational      0.103569D+06          5.015228         11.547989
 -------------------------------------------------------------------
 Center     Atomic                   Forces (Hartrees/Bohr)
 Number     Number              X              Y              Z
 -------------------------------------------------------------------
      1        6          -0.000014215   -0.000588353   -0.000008859
      2        6           0.000013088    0.000291347    0.000009837
      3        6          -0.000008749    0.000305046   -0.000008213
      4        1          -0.000001280   -0.000003819   -0.000000309
      5        1          -0.000004872   -0.000001349   -0.000001860
      6        1          -0.000001781   -0.000003779   -0.000001271
      7        6           0.000011178    0.000026596   -0.000026179
      8        6           0.000006911    0.000000698    0.000009199
      9        1           0.000003144   -0.000000589   -0.000004220
     10        8          -0.000005314   -0.000028956    0.000033442
     11        1           0.000000332    0.000002316    0.000000108
     12        1           0.000001558    0.000000843   -0.000001677
[...]
   1                    0.46649   0.41725   0.29844  -0.27610  -0.26620
                          A8        A10       R7        D11       R2
   1                    0.25846   0.23562   0.23543   0.22141   0.19220
 Angle between quadratic step and forces=  61.84 degrees.
 Linear search not attempted -- option 19 set.
 Variable       Old X    -DE/DX   Delta X   Delta X   Delta X     New X
                                 (Linear)    (Quad)   (Total)
    R2        2.62139   0.00002   0.00000   0.00004   0.00004   2.62143
    R3        2.64671   0.00000   0.00000  -0.00001  -0.00001   2.64670
    R4        2.05160   0.00000   0.00000   0.00000   0.00000   2.05161
    R5        2.04626   0.00000   0.00000   0.00001   0.00001   2.04627
    R6        2.04356   0.00000   0.00000   0.00000   0.00000   2.04356
    R7        2.66433   0.00001   0.00000   0.00003   0.00003   2.66436
    R8        2.63128   0.00001   0.00000   0.00001   0.00001   2.63129
    R9        2.07294   0.00000   0.00000   0.00001   0.00001   2.07295
   R10        2.38112   0.00003   0.00000   0.00005   0.00005   2.38116
   R11        2.04590   0.00000   0.00000   0.00001   0.00001   2.04590
   R12        2.04320   0.00000   0.00000  -0.00001  -0.00001   2.04319
    A3        2.10831  -0.00000   0.00000   0.00004   0.00004   2.10835
    A4        2.09651  -0.00000   0.00000  -0.00003  -0.00003   2.09647
    A5        2.11038  -0.00001   0.00000  -0.00006  -0.00006   2.11032
    A6        2.08872  -0.00000   0.00000  -0.00001  -0.00001   2.08870
    A7        2.07704  -0.00002   0.00000   0.00005   0.00005   2.07710
    A8        2.04587   0.00001   0.00000   0.00007   0.00007   2.04594
    A9        2.01825  -0.00000   0.00000   0.00005   0.00005   2.01830
   A10        2.23743  -0.00006   0.00000  -0.00008  -0.00008   2.23735
   A11        2.10799  -0.00000   0.00000  -0.00002  -0.00002   2.10797
   A12        2.06680  -0.00000   0.00000   0.00002   0.00002   2.06682
    D4       -2.95219  -0.00001   0.00000   0.00009   0.00009  -2.95210
    D5        2.61241   0.00003   0.00000  -0.00015  -0.00015   2.61226
    D6       -3.09852   0.00007   0.00000   0.00017   0.00017  -3.09835
    D7        2.69882   0.00008   0.00000   0.00025   0.00025   2.69908
    D8       -2.97614   0.00002   0.00000  -0.00018  -0.00018  -2.97632
    D9       -2.50207   0.00003   0.00000  -0.00012  -0.00012  -2.50218
   D10        2.99156   0.00004   0.00000   0.00016   0.00016   2.99172
   D11        2.85467   0.00000   0.00000  -0.00005  -0.00005   2.85463
   D12        2.65551   0.00000   0.00000   0.00000   0.00000   2.65551
         Item               Value     Threshold  Converged?
 Maximum Force            0.000076     0.000450     YES
 RMS     Force            0.000026     0.000300     YES
 Maximum Displacement     0.000255     0.001800     YES
 RMS     Displacement     0.000087     0.001200     YES
 Predicted change in Energy=-1.584665D-08
 Optimization completed.
    -- Stationary point found.
                       ----------------------------
                       !   Optimized Parameters   !
                       ! (Angstroms and Degrees)  !
 ----------------------                            ----------------------
 !      Name          Value   Derivative information (Atomic Units)     !
 ------------------------------------------------------------------------
 !       R2          1.3872   -DE/DX =    0.0                           !
 !       R3          1.4006   -DE/DX =    0.0                           !
 !       R4          1.0857   -DE/DX =    0.0                           !
 !       R5          1.0828   -DE/DX =    0.0                           !
 !       R6          1.0814   -DE/DX =    0.0                           !
 !       R7          1.4099   -DE/DX =    0.0                           !
 !       R8          1.3924   -DE/DX =    0.0                           !
 !       R9          1.097    -DE/DX =    0.0                           !
 !       R10         1.26     -DE/DX =    0.0                           !
 !       R11         1.0826   -DE/DX =    0.0                           !
 !       R12         1.0812   -DE/DX =    0.0                           !
 !       A3        120.7974   -DE/DX =    0.0                           !
 !       A4        120.1209   -DE/DX =    0.0                           !
 !       A5        120.9161   -DE/DX =    0.0                           !
 !       A6        119.6746   -DE/DX =    0.0                           !
 !       A7        119.0058   -DE/DX =    0.0                           !
 !       A8        117.2195   -DE/DX =    0.0                           !
 !       A9        115.6371   -DE/DX =    0.0                           !
 !       A10       128.1953   -DE/DX =   -0.0001                        !
 !       A11       120.7792   -DE/DX =    0.0                           !
 !       A12       118.4189   -DE/DX =    0.0                           !
 !       D4       -169.1482   -DE/DX =    0.0                           !
 !       D5        149.68     -DE/DX =    0.0                           !
 !       D6       -177.532    -DE/DX =    0.0001                        !
 !       D7        154.6312   -DE/DX =    0.0001                        !
 !       D8       -170.5202   -DE/DX =    0.0                           !
 !       D9       -143.3579   -DE/DX =    0.0                           !
 !       D10       171.4037   -DE/DX =    0.0                           !
 !       D11       163.5607   -DE/DX =    0.0                           !
 !       D12       152.1494   -DE/DX =    0.0                           !
 ------------------------------------------------------------------------
 GradGradGradGradGradGradGradGradGradGradGradGradGradGradGradGradGradGrad


 ----------------------------------------------------------------------

 Electric dipole moment (input orientation):
 (Debye = 10**-18 statcoulomb cm , SI units = C m)
                  (au)            (Debye)         (10**-30 SI)
   Tot        0.568405D+00      0.144474D+01      0.481914D+01
   x         -0.506043D+00     -0.128623D+01     -0.429041D+01
   y         -0.104753D+00     -0.266255D+00     -0.888130D+00
   z         -0.236708D+00     -0.601652D+00     -0.200690D+01

 Dipole polarizability, Alpha (input orientation).
 (esu units = cm**3 , SI units = C**2 m**2 J**-1)
 Alpha(0;0):
               (au)            (10**-24 esu)      (10**-40 SI)
   iso        0.652417D+02      0.966783D+01      0.107569D+02
   aniso      0.358983D+02      0.531958D+01      0.591883D+01
   xx         0.742266D+02      0.109993D+02      0.122383D+02
   yx         0.522806D+01      0.774719D+00      0.861991D+00
   yy         0.436580D+02      0.646945D+01      0.719823D+01
   zx        -0.481128D+01     -0.712958D+00     -0.793273D+00
   zy        -0.514035D+01     -0.761721D+00     -0.847529D+00
   zz         0.778406D+02      0.115348D+02      0.128342D+02

 ----------------------------------------------------------------------

 Dipole orientation:
     6          0.00000000          0.00000000         -0.00000000
     6         -2.33379185          0.48310250         -1.09166087
     6          2.20774188          0.01360795         -1.45971629
     1          0.11031068         -0.71770640          1.91880244
     1         -4.03985546         -0.36367394         -0.34366250
     1          3.99936745         -0.44183729         -0.58863196
     6          2.02288542         -0.39765240         -4.08561927
     6         -2.34575079          1.77070484         -3.38634529
     1          3.56359756         -1.49621260         -4.93205182
     8          0.19120389          0.08960608         -5.52688386
     1         -4.01028934          1.77483078         -4.57587554
     1         -1.12615751          3.39660560         -3.59539072

 Electric dipole moment (dipole orientation):
 (Debye = 10**-18 statcoulomb cm , SI units = C m)
                  (au)            (Debye)         (10**-30 SI)
   Tot        0.568405D+00      0.144474D+01      0.481914D+01
   x          0.000000D+00      0.000000D+00      0.000000D+00
   y          0.000000D+00      0.000000D+00      0.000000D+00
   z          0.568405D+00      0.144474D+01      0.481914D+01

 Dipole polarizability, Alpha (dipole orientation).
 (esu units = cm**3 , SI units = C**2 m**2 J**-1)
 Alpha(0;0):
               (au)            (10**-24 esu)      (10**-40 SI)
   iso        0.652417D+02      0.966783D+01      0.107569D+02
   aniso      0.358983D+02      0.531958D+01      0.591883D+01
   xx         0.788603D+02      0.116859D+02      0.130023D+02
   yx        -0.106177D+02     -0.157338D+01     -0.175062D+01
   yy         0.456908D+02      0.677068D+01      0.753339D+01
   zx        -0.322026D+01     -0.477193D+00     -0.530949D+00
   zy        -0.223784D+01     -0.331613D+00     -0.368969D+00
   zz         0.711741D+02      0.105469D+02      0.117350D+02

 ----------------------------------------------------------------------
 1\1\GINC-BHC0030\Freq\RB3LYP\def2TZVP\C5H6O1\DHANAWAY\10-Jun-2022\1\\#
 N Geom=AllCheck Guess=TCheck SCRF=Check GenChk RB3LYP/def2TZVP Freq\\t
 s_zmat_initalOpt\\0,1\C\C,1,R2\C,1,R3,2,A3\H,1,R4,2,A4,3,D4,0\H,2,R5,1
 ,A5,3,D5,0\H,3,R6,1,A6,2,D6,0\C,3,R7,1,A7,6,D7,0\C,2,R8,1,A8,5,D8,0\H,
 7,R9,3,A9,1,D9,0\O,7,R10,3,A10,9,D10,0\H,8,R11,2,A11,1,D11,0\H,8,R12,2
 ,A12,11,D12,0\\R2=1.3871809\R3=1.40057934\R4=1.0856614\R5=1.0828348\R6
 =1.08140577\R7=1.40990461\R8=1.39241391\R9=1.09695213\R10=1.26003325\R
 11=1.0826412\R12=1.0812142\A3=120.79742959\A4=120.12090149\A5=120.9161
 1721\A6=119.67461486\A7=119.00575037\A8=117.21946072\A9=115.63708419\A
 10=128.19528053\A11=120.77920819\A12=118.41886266\D4=-169.14815493\D5=
 149.67995844\D6=-177.53198641\D7=154.63121453\D8=-170.5202162\D9=-143.
 35788004\D10=171.40367379\D11=163.56069163\D12=152.14944866\\Version=E
 S64L-G16RevA.03\HF=-269.3927722\RMSD=2.541e-09\RMSF=1.212e-04\ZeroPoin
 t=0.095605\Thermal=0.1004509\Dipole=-0.5060434,-0.1047526,-0.2367082\D
 ipoleDeriv=0.417846,0.027607,-0.295275,0.1213385,-0.0357903,-0.0913684
 ,-0.2722932,-0.1835068,0.7322834,-0.2058018,-0.1030651,-0.3075734,-0.1
 371771,-0.2342886,0.2297239,0.0571725,0.1707563,-0.7910862,-0.7466968,
 -0.1781654,0.4433536,-0.1623895,-0.3966208,0.0097114,-0.0395857,0.0154
 694,-0.0844065,-0.0553062,0.0155411,-0.0625109,0.0018895,0.1085746,0.0
 907657,-0.0688357,0.0143844,0.048766,0.0152564,0.0767428,0.0022451,0.1
 163226,0.1221841,-0.1387181,0.0476625,-0.0298918,0.0316901,0.0656431,-
 0.0234346,0.0118034,-0.0490408,0.1551607,0.072422,0.0103622,0.00327,-0
 .0788513,0.6741174,0.2977251,-0.0083653,0.3049293,0.2688594,-0.0853432
 ,0.6578626,0.1766528,0.3080701,0.5064728,0.0228335,0.5393892,0.0779428
 ,0.2487957,-0.0257449,-0.0542396,-0.0357807,0.3179235,-0.0008898,-0.07
 33459,0.1258563,-0.0875606,0.0475708,0.0114272,0.1385306,0.0794683,-0.
 0288732,-0.7568758,-0.1064865,-0.413642,-0.1850333,-0.3410138,-0.04500
 55,-0.4867635,-0.1295427,-0.4276471,0.0816462,-0.0060563,0.0305229,-0.
 0020219,0.0737233,0.0052142,-0.0302968,-0.0007734,-0.0842265,0.0045885
 ,0.0501043,-0.0658038,0.0008005,-0.0171549,-0.033084,0.040424,-0.08050
 58,0.0563578\Polar=74.226619,5.2280639,43.6579913,-4.811278,-5.1403512
 ,77.8405743\PG=C01 [X(C5H6O1)]\NImag=1\\0.66887045,-0.05799041,0.16182
 064,0.03524474,-0.02574080,0.67447624,-0.11253538,0.02050133,0.0265668
 8,0.59251331,0.02223673,-0.06979306,-0.01720067,-0.21671789,0.22609288
 ,-0.02801034,0.00920259,-0.33192613,-0.02547565,0.03870449,0.65692608,
 -0.26132591,0.01966878,0.04226926,0.03114736,-0.01531929,0.07619555,0.
 56948686,0.00143290,-0.05186073,-0.00014581,0.00452297,0.00655594,0.00
 389537,0.09108912,0.14327294,0.11327361,-0.00336598,-0.16881788,0.0296
 2872,-0.00391114,-0.03325246,-0.01606751,0.02688516,0.70284191,-0.2513
 8060,0.03986711,-0.11691607,0.00521879,-0.00036929,0.00232919,-0.02304
 432,0.00351943,-0.01268707,0.26799473,0.04756075,-0.05057224,0.0122159
 3,0.00486481,0.00497343,0.00697010,-0.01031178,0.00484622,0.00751760,-
 0.04369306,0.03387347,-0.11361424,0.02052056,-0.12911610,-0.02665596,0
 .00769070,-0.00797068,0.01411979,-0.00183297,0.01150724,0.12422135,-0.
 02662647,0.13203327,0.00219879,-0.00109340,0.00424723,-0.20778899,0.09
 679887,0.09769836,0.00547811,0.00342075,-0.00074893,0.00020912,-0.0016
 7466,0.00080848,0.21472685,-0.00367994,0.00058095,0.01291841,0.0940049
 6,-0.08016035,-0.08117735,0.00798927,0.00535990,-0.00069727,-0.0002705
 7,-0.00239880,0.00046614,-0.10898904,0.08229791,0.02641806,-0.01316377
 ,-0.01362942,0.10363915,-0.06850645,-0.12689559,-0.00287653,-0.0005777
 7,-0.00460763,-0.00038003,0.00087245,0.00099570,-0.11311194,0.07004544
 ,0.13488913,0.00355266,-0.00187015,0.02979125,-0.00395482,0.00032306,0
 .00234007,-0.05463575,-0.00726283,-0.00722890,0.00123191,0.00013786,-0
 .00039310,0.00010413,0.00000354,0.00117556,0.05752700,0.00088301,-0.00
 098381,0.00217424,-0.00123881,0.00666597,-0.00058467,-0.00634070,-0.02
 914133,0.01857917,-0.00100855,-0.00354376,-0.00074214,0.00036643,0.001
 00661,0.00099664,0.00737397,0.02535384,-0.00218701,0.00138728,-0.01211
 151,0.00272431,-0.00042339,0.00093525,-0.00746592,0.00785589,-0.338471
 21,0.00019177,-0.00038231,0.00081181,-0.00010502,0.00020901,-0.0005712
 4,0.00632222,-0.00997949,0.35894945,-0.06372612,-0.01488752,0.04445612
 ,-0.02557027,0.00842644,-0.04158055,-0.20082349,-0.06146565,-0.0813627
 4,-0.00087999,0.00406343,0.00316216,-0.00230952,-0.00477638,-0.0003081
 6,0.00200902,0.00052669,0.00324335,0.52723149,-0.00600362,-0.00041241,
 0.01104125,-0.00685940,0.00208829,-0.01114778,-0.08105165,-0.09230206,
 -0.03688334,0.00347634,0.00784120,0.00042722,-0.00085590,-0.00211290,-
 0.00035125,0.00543633,-0.00381289,0.00356509,0.18395486,0.28628093,-0.
 02507652,-0.00620149,0.07860706,-0.03582173,0.01722991,-0.06405507,0.0
 0682442,0.00272797,-0.14682727,0.00527993,0.00301575,-0.00084788,-0.00
 486181,-0.00833050,-0.00059836,-0.02958362,-0.00975395,-0.01096663,0.0
 1306245,-0.06787529,0.69601070,0.02467567,-0.00487394,-0.08677527,-0.2
 2912305,0.08422934,-0.03979134,-0.07398665,-0.01331342,0.00669453,-0.0
 0042991,-0.00452405,-0.00170329,-0.00974060,0.01866711,-0.01291616,-0.
 00250866,0.00020325,-0.00069694,0.06160178,0.01772770,0.10734932,0.350
 88684,0.00636355,0.00501898,-0.01310291,0.11213984,-0.11066593,0.05130
 021,-0.01496986,-0.00778197,-0.00322003,-0.00010793,0.00488159,-0.0020
 7556,0.01317728,-0.00228806,0.00945246,-0.00050011,-0.00078348,-0.0004
 4419,0.01154048,0.00416624,0.03003393,-0.25499880,0.42065230,-0.036976
 57,0.01220754,-0.02206311,-0.11849144,0.03561456,-0.16615749,0.0067853
 5,0.00308145,0.00069390,0.00042597,0.00252718,-0.00634158,0.01364193,-
 0.00401383,0.00978681,0.00045071,-0.00105588,0.00048289,0.00285511,0.0
 0487664,-0.03201420,0.16373213,0.11086518,0.61966152,0.00038882,-0.004
 49699,-0.00478659,0.00294010,-0.00007912,0.00179164,-0.01747140,-0.016
 07211,0.01341686,-0.00002334,0.00108933,0.00024113,0.00027123,0.000665
 37,0.00003343,-0.00001653,0.00158123,-0.00043618,-0.15304781,-0.086846
 44,0.08764400,-0.00162887,-0.00197310,0.00031029,0.15731725,-0.0047107
 2,0.00431343,-0.00168004,-0.00300679,-0.00042512,-0.00186468,-0.006134
 55,0.00127616,0.01136389,-0.00139979,0.00060178,0.00116777,-0.00033199
 ,-0.00077464,0.00007486,0.00082077,-0.00179604,-0.00036017,-0.09438956
 ,-0.11929606,0.05886415,0.00350081,0.00487996,-0.00206602,0.10211522,0
 .10284562,-0.00055330,-0.00063403,-0.00383333,0.00265613,-0.00073705,0
 .00426824,-0.01267006,-0.00421453,0.00853305,-0.00046341,-0.00014256,0
 .00020903,0.00034659,0.00059908,0.00011185,0.00041230,-0.00072357,0.00
 069959,0.09428974,0.06527040,-0.11367719,-0.01150603,-0.00297498,0.001
 70019,-0.09435235,-0.07977925,0.15212159,-0.00343368,0.00326538,0.0212
 7949,-0.04029331,0.00089062,-0.02009962,0.02014331,-0.00693964,-0.0446
 1500,0.00090443,0.00284550,0.00083222,-0.00226460,-0.00554826,-0.00003
 600,-0.00355053,-0.00234609,-0.00158205,-0.13783168,-0.02615068,-0.117
 94060,0.02905889,0.01626788,-0.02772216,0.01152257,0.00284192,0.020354
 15,0.13189051,-0.00782834,-0.00235161,0.01686007,-0.01370043,0.0089006
 2,-0.01703338,0.01240634,0.01966868,-0.01658940,-0.00001649,-0.0002734
 5,0.00021350,-0.00016799,-0.00050642,-0.00012966,-0.00452460,0.0070704
 5,-0.00145883,-0.02628265,-0.07920043,-0.01458095,0.02887956,-0.021417
 53,-0.00912742,0.00390050,0.00807011,0.02165543,0.02648597,0.07446170,
 0.03570110,0.00444298,-0.06920284,0.04465734,-0.01409115,0.06367338,-0
 .10331343,-0.03528478,-0.03355262,-0.00231257,-0.00622253,-0.00082237,
 0.00399205,0.00864891,0.00070556,-0.00332208,0.00150413,0.00028358,-0.
 04310815,0.02820292,-0.41175324,-0.11025982,-0.02650009,0.00579375,-0.
 00411217,0.01502691,-0.04940349,0.16368634,0.00603899,0.50229431,-0.00
 246842,0.00387602,-0.00426321,0.00657511,-0.00376491,-0.02404124,-0.00
 179076,0.00023072,0.00010938,0.00000665,-0.00066660,-0.00140183,0.0003
 3963,-0.00206400,0.00079741,0.00007436,-0.00010275,-0.00003837,-0.0016
 6587,-0.00015603,0.00187321,-0.06151879,-0.00375235,-0.04325920,-0.000
 14421,0.00008795,0.00025592,0.00319615,0.00161057,0.00519264,0.0525564
 3,0.00502386,0.00350233,-0.00191821,0.00410008,0.00558093,0.01396788,-
 0.00137171,0.00043982,-0.00019071,-0.00009306,-0.00084171,0.00058025,-
 0.00142607,-0.00205505,-0.00007392,-0.00000277,-0.00009899,-0.00002561
 ,-0.00224442,-0.00037364,0.00153915,-0.00439650,-0.06191425,-0.0627853
 3,-0.00023615,0.00033435,0.00045451,0.00299676,0.00018075,0.00552092,0
 .00096211,0.05448905,-0.00473044,-0.00146451,0.00112976,-0.00004359,-0
 .00441567,-0.00913556,0.00073679,-0.00024217,0.00063964,0.00030647,0.0
 0085094,-0.00062792,0.00037719,0.00166583,0.00061154,0.00002925,0.0001
 1406,-0.00003408,0.00009185,-0.00051578,-0.00102900,-0.04539730,-0.060
 60974,-0.32082916,0.00005462,-0.00006144,-0.00000846,-0.00081790,0.000
 19468,-0.00006140,0.05229869,0.06581141,0.33585679,-0.00481629,-0.0019
 6621,0.00888617,-0.01912886,0.02334544,-0.00135607,0.00682262,0.000837
 76,-0.00041295,0.00019254,0.00030849,0.00038328,-0.00122416,0.00399794
 ,-0.00243477,0.00016722,0.00010233,0.00002984,-0.00498755,-0.00267152,
 -0.00874903,-0.08728666,0.11681312,0.03824787,-0.00010781,0.00060673,0
 .00123033,-0.00934206,-0.02076244,0.01319876,0.00483972,-0.00331212,-0
 .00290562,0.11487129,-0.00328775,0.00073753,0.00457854,0.00138932,0.00
 018641,-0.01223279,0.00434604,-0.00033357,0.00051206,0.00009585,0.0006
 1227,0.00021100,0.00077573,0.00105085,0.00136096,0.00006493,0.00006344
 ,0.00005673,-0.00446572,-0.00286627,-0.00666867,0.12889894,-0.23474785
 ,-0.09012405,0.00035226,-0.00002956,0.00122654,-0.01460935,-0.01460287
 ,0.01271278,0.00373929,0.00075640,-0.00132761,-0.11729953,0.24917322,0
 .00051092,0.00280963,-0.00351275,-0.00338415,0.01004584,0.01359004,-0.
 00453770,-0.00214782,0.00131332,0.00000447,-0.00059609,0.00016948,-0.0
 0228412,-0.00033387,-0.00079834,0.00000633,-0.00052853,-0.00000790,0.0
 0519883,0.00338993,0.00715108,0.03127017,-0.09272426,-0.09071352,0.000
 19534,-0.00068598,-0.00072108,0.00666112,0.01395696,-0.00795462,0.0124
 7660,-0.02288034,-0.00651216,-0.04611781,0.08969452,0.08799646\\0.0000
 1421,0.00058835,0.00000886,-0.00001309,-0.00029135,-0.00000984,0.00000
 875,-0.00030505,0.00000821,0.00000128,0.00000382,0.00000031,0.00000487
 ,0.00000135,0.00000186,0.00000178,0.00000378,0.00000127,-0.00001118,-0
 .00002660,0.00002618,-0.00000691,-0.00000070,-0.00000920,-0.00000314,0
 .00000059,0.00000422,0.00000531,0.00002896,-0.00003344,-0.00000033,-0.
 00000232,-0.00000011,-0.00000156,-0.00000084,0.00000168\\\@


 A successful marriage requires falling in love
 many times, always with the same person.
                           -- Mignon McLaughlin
 Job cpu time:       0 days  0 hours 31 minutes  6.5 seconds.
 Elapsed time:       0 days  0 hours  2 minutes 36.5 seconds.
 File lengths (MBytes):  RWF=     54 Int=      0 D2E=      0 Chk=     32 Scr=      1
 Normal termination of Gaussian 16 at Fri Jun 10 11:11:55 2022.
