 Entering Gaussian System, Link 0=g16
 Input=ts_zmat_field_N75.gjf
 Output=ts_zmat_field_N75.out
 Initial command:
 /software/gaussian/g16-a03/l1.exe "/local_scratch/11171893/Gau-27730.inp" -scrdir="/local_scratch/11171893/"
 Entering Link 1 = /software/gaussian/g16-a03/l1.exe PID=     27731.
  
 Copyright (c) 1988,1990,1992,1993,1995,1998,2003,2009,2016,
            Gaussian, Inc.  All Rights Reserved.
  
 This is part of the Gaussian(R) 16 program.  It is based on
 the Gaussian(R) 09 system (copyright 2009, Gaussian, Inc.),
 the Gaussian(R) 03 system (copyright 2003, Gaussian, Inc.),
 the Gaussian(R) 98 system (copyright 1998, Gaussian, Inc.),
 the Gaussian(R) 94 system (copyright 1995, Gaussian, Inc.),
 the Gaussian 92(TM) system (copyright 1992, Gaussian, Inc.),
 the Gaussian 90(TM) system (copyright 1990, Gaussian, Inc.),
 the Gaussian 88(TM) system (copyright 1988, Gaussian, Inc.),
 the Gaussian 86(TM) system (copyright 1986, Carnegie Mellon
 University), and the Gaussian 82(TM) system (copyright 1983,
 Carnegie Mellon University). Gaussian is a federally registered
 trademark of Gaussian, Inc.
  
 This software contains proprietary and confidential information,
 including trade secrets, belonging to Gaussian, Inc.
  
 This software is provided under written license and may be
 used, copied, transmitted, or stored only in accord with that
 written license.
  
 The following legend is applicable only to US Government
 contracts under FAR:
  
                    RESTRICTED RIGHTS LEGEND
  
 Use, reproduction and disclosure by the US Government is
 subject to restrictions as set forth in subparagraphs (a)
 and (c) of the Commercial Computer Software - Restricted
 Rights clause in FAR 52.227-19.
  
 Gaussian, Inc.
 340 Quinnipiac St., Bldg. 40, Wallingford CT 06492
  
  
 ---------------------------------------------------------------
 Warning -- This program may not be used in any manner that
 competes with the business of Gaussian, Inc. or will provide
 assistance to any competitor of Gaussian, Inc.  The licensee
 of this program is prohibited from giving any competitor of
 Gaussian, Inc. access to this program.  By using this program,
 the user acknowledges that Gaussian, Inc. is engaged in the
 business of creating and licensing software in the field of
 computational chemistry and represents and warrants to the
 licensee that it is not a competitor of Gaussian, Inc. and that
 it will not use this program in any manner prohibited above.
 ---------------------------------------------------------------
  

 Cite this work as:
 Gaussian 16, Revision A.03,
 M. J. Frisch, G. W. Trucks, H. B. Schlegel, G. E. Scuseria, 
 M. A. Robb, J. R. Cheeseman, G. Scalmani, V. Barone, 
 G. A. Petersson, H. Nakatsuji, X. Li, M. Caricato, A. V. Marenich, 
 J. Bloino, B. G. Janesko, R. Gomperts, B. Mennucci, H. P. Hratchian, 
 J. V. Ortiz, A. F. Izmaylov, J. L. Sonnenberg, D. Williams-Young, 
 F. Ding, F. Lipparini, F. Egidi, J. Goings, B. Peng, A. Petrone, 
 T. Henderson, D. Ranasinghe, V. G. Zakrzewski, J. Gao, N. Rega, 
 G. Zheng, W. Liang, M. Hada, M. Ehara, K. Toyota, R. Fukuda, 
 J. Hasegawa, M. Ishida, T. Nakajima, Y. Honda, O. Kitao, H. Nakai, 
 T. Vreven, K. Throssell, J. A. Montgomery, Jr., J. E. Peralta, 
 F. Ogliaro, M. J. Bearpark, J. J. Heyd, E. N. Brothers, K. N. Kudin, 
 V. N. Staroverov, T. A. Keith, R. Kobayashi, J. Normand, 
 K. Raghavachari, A. P. Rendell, J. C. Burant, S. S. Iyengar, 
 J. Tomasi, M. Cossi, J. M. Millam, M. Klene, C. Adamo, R. Cammi, 
 J. W. Ochterski, R. L. Martin, K. Morokuma, O. Farkas, 
 J. B. Foresman, and D. J. Fox, Gaussian, Inc., Wallingford CT, 2016.
 
 ******************************************
 Gaussian 16:  ES64L-G16RevA.03 25-Dec-2016
                10-Jun-2022 
 ******************************************
 %nprocshared=12
 Will use up to   12 processors via shared memory.
 %chk=checkpoint.chk
 %mem=12GB
 ----------------------------------------------------------------------
 # Opt=(TS, CalcFC, noeigentest, Z-matrix, MaxStep=10) geom=allcheckpoi
 nt guess=read Field=read NoSymm B3LYP/Def2TZVP freq=noraman pop=none
 ----------------------------------------------------------------------
 1/5=1,8=10,10=4,11=1,18=40,26=3,29=7,38=1/1,3;
 2/12=2,15=1,29=3,40=1/2;
 3/5=44,7=101,11=2,14=-6,25=1,30=1,71=2,74=-5,116=-2,140=1/1,2,3;
 4/5=1/1;
 5/5=2,38=6/2;
 8/6=4,10=90,11=11/1;
 11/6=1,8=1,9=11,15=111,16=1,31=1/1,2,10;
 10/6=1,13=1,31=1/2;
 7/10=1,18=20,25=1,30=1/1,2,3,16;
 1/5=1,8=10,10=4,11=1,18=40,26=3/3(2);
 2/15=1,29=3/2;
 99//99;
 2/15=1,29=3/2;
 3/5=44,7=101,11=2,14=-2,25=1,30=1,71=1,74=-5/1,2,3;
 4/5=5,16=3,69=1/1;
 5/5=2,38=5/2;
 7/30=1/1,2,3,16;
 1/5=1,8=10,11=1,18=40,26=3/3(-5);
 2/15=1,29=3/2;
 99/9=1/99;
 Structure from the checkpoint file:  "checkpoint.chk"
 -----------------
 ts_zmat_initalOpt
 -----------------
 Charge =  0 Multiplicity = 1
 Z-Matrix found in chk file.
 C
 C,1,R2
 C,1,R3,2,A3
 H,1,R4,2,A4,3,D4,0
 H,2,R5,1,A5,3,D5,0
 H,3,R6,1,A6,2,D6,0
 C,3,R7,1,A7,6,D7,0
 C,2,R8,1,A8,5,D8,0
 H,7,R9,3,A9,1,D9,0
 O,7,R10,3,A10,9,D10,0
 H,8,R11,2,A11,1,D11,0
 H,8,R12,2,A12,11,D12,0
      Variables:
 R2=1.38545853
 R3=1.4023379
 R4=1.08533308
 R5=1.08268257
 R6=1.08126661
 R7=1.40679411
 R8=1.39327738
 R9=1.09706133
 R10=1.26342737
 R11=1.0827622
 R12=1.0813177
 A3=120.69692286
 A4=120.23845909
 A5=121.07200544
 A6=119.67677611
 A7=119.03999033
 A8=117.11979823
 A9=115.64576247
 A10=128.31465044
 A11=120.71330043
 A12=118.33854681
 D4=-169.58850542
 D5=150.85520002
 D6=-178.26897151
 D7=155.08675017
 D8=-171.33823372
 D9=-143.76489659
 D10=171.39338331
 D11=163.92324589
 D12=151.71251857
 Recover connectivity data from disk.

 GradGradGradGradGradGradGradGradGradGradGradGradGradGradGradGradGradGrad
 Berny optimization.
 Initialization pass.
                       ----------------------------
                       !    Initial Parameters    !
                       ! (Angstroms and Degrees)  !
 ----------------------                            ----------------------
 !      Name          Value   Derivative information (Atomic Units)     !
 ------------------------------------------------------------------------
 !       R2          1.3855   calculate D2E/DX2 analytically            !
 !       R3          1.4023   calculate D2E/DX2 analytically            !
 !       R4          1.0853   calculate D2E/DX2 analytically            !
 !       R5          1.0827   calculate D2E/DX2 analytically            !
 !       R6          1.0813   calculate D2E/DX2 analytically            !
 !       R7          1.4068   calculate D2E/DX2 analytically            !
 !       R8          1.3933   calculate D2E/DX2 analytically            !
 !       R9          1.0971   calculate D2E/DX2 analytically            !
 !       R10         1.2634   calculate D2E/DX2 analytically            !
 !       R11         1.0828   calculate D2E/DX2 analytically            !
 !       R12         1.0813   calculate D2E/DX2 analytically            !
 !       A3        120.6969   calculate D2E/DX2 analytically            !
 !       A4        120.2385   calculate D2E/DX2 analytically            !
 !       A5        121.072    calculate D2E/DX2 analytically            !
 !       A6        119.6768   calculate D2E/DX2 analytically            !
 !       A7        119.04     calculate D2E/DX2 analytically            !
 !       A8        117.1198   calculate D2E/DX2 analytically            !
 !       A9        115.6458   calculate D2E/DX2 analytically            !
 !       A10       128.3147   calculate D2E/DX2 analytically            !
 !       A11       120.7133   calculate D2E/DX2 analytically            !
 !       A12       118.3385   calculate D2E/DX2 analytically            !
 !       D4       -169.5885   calculate D2E/DX2 analytically            !
 !       D5        150.8552   calculate D2E/DX2 analytically            !
 !       D6       -178.269    calculate D2E/DX2 analytically            !
 !       D7        155.0868   calculate D2E/DX2 analytically            !
 !       D8       -171.3382   calculate D2E/DX2 analytically            !
 !       D9       -143.7649   calculate D2E/DX2 analytically            !
 !       D10       171.3934   calculate D2E/DX2 analytically            !
 !       D11       163.9232   calculate D2E/DX2 analytically            !
 !       D12       151.7125   calculate D2E/DX2 analytically            !
 ------------------------------------------------------------------------
 Trust Radius=1.00D-01 FncErr=1.00D-07 GrdErr=1.00D-06 EigMax=2.50D+02 EigMin=1.00D-04
 Number of steps in this run=     40 maximum allowed number of steps=    100.
 Search for a saddle point of order  1.
 GradGradGradGradGradGradGradGradGradGradGradGradGradGradGradGradGradGrad

 ---------------------------------------------------------------------------------------------------
                            Z-MATRIX (ANGSTROMS AND DEGREES)
   CD    Cent   Atom    N1       Length/X        N2       Alpha/Y        N3        Beta/Z          J
 ---------------------------------------------------------------------------------------------------
      1      1  C 
      2      2  C        1   1.385459(     1)
      3      3  C        1   1.402338(     2)      2  120.697(    12)
      4      4  H        1   1.085333(     3)      2  120.238(    13)      3 -169.589(    22)      0
      5      5  H        2   1.082683(     4)      1  121.072(    14)      3  150.855(    23)      0
      6      6  H        3   1.081267(     5)      1  119.677(    15)      2 -178.269(    24)      0
      7      7  C        3   1.406794(     6)      1  119.040(    16)      6  155.087(    25)      0
      8      8  C        2   1.393277(     7)      1  117.120(    17)      5 -171.338(    26)      0
      9      9  H        7   1.097061(     8)      3  115.646(    18)      1 -143.765(    27)      0
     10     10  O        7   1.263427(     9)      3  128.315(    19)      9  171.393(    28)      0
     11     11  H        8   1.082762(    10)      2  120.713(    20)      1  163.923(    29)      0
     12     12  H        8   1.081318(    11)      2  118.339(    21)     11  151.713(    30)      0
 ---------------------------------------------------------------------------------------------------
                         Z-Matrix orientation:                         
 ---------------------------------------------------------------------
 Center     Atomic      Atomic             Coordinates (Angstroms)
 Number     Number       Type             X           Y           Z
 ---------------------------------------------------------------------
      1          6           0        0.000000    0.000000    0.000000
      2          6           0        0.000000    0.000000    1.385459
      3          6           0        1.205842    0.000000   -0.715889
      4          1           0       -0.922221    0.169450   -0.546574
      5          1           0       -0.809930    0.451631    1.944247
      6          1           0        1.186810    0.028378   -1.796616
      7          6           0        2.370222    0.484172   -0.092298
      8          6           0        1.161690   -0.433946    2.020587
      9          1           0        3.063726    1.032541   -0.741827
     10          8           0        2.650732    0.498997    1.139507
     11          1           0        1.331017   -0.222014    3.068818
     12          1           0        1.647340   -1.325739    1.648973
 ---------------------------------------------------------------------
                    Distance matrix (angstroms):
                    1          2          3          4          5
     1  C    0.000000
     2  C    1.385459   0.000000
     3  C    1.402338   2.422750   0.000000
     4  H    1.085333   2.147546   2.141502   0.000000
     5  H    2.154078   1.082683   3.368031   2.509268   0.000000
     6  H    2.153404   3.396309   1.081267   2.455711   4.261475
     7  C    2.420929   2.834809   1.406794   3.338503   3.776499
     8  C    2.370782   1.393277   2.771022   3.361114   2.162720
     9  H    3.317056   3.870129   2.125687   4.082992   4.749490
    10  O    2.928115   2.708482   2.403997   3.964526   3.553313
    11  H    3.352393   2.157451   3.793279   4.278012   2.510401
    12  H    2.681497   2.130904   2.746830   3.695763   3.047033
                    6          7          8          9         10
     6  H    0.000000
     7  C    2.124361   0.000000
     8  C    3.845181   2.601495   0.000000
     9  H    2.375655   1.097061   3.660499   0.000000
    10  O    3.314418   1.263427   1.965689   1.998662   0.000000
    11  H    4.874006   3.401661   1.082762   4.370034   2.446170
    12  H    3.730657   2.613496   1.081318   3.644661   2.143831
                   11         12
    11  H    0.000000
    12  H    1.825987   0.000000
 Symmetry turned off by external request.
 Stoichiometry    C5H6O
 Framework group  C1[X(C5H6O)]
 Deg. of freedom    30
 Full point group                 C1      NOp   1
 Rotational constants (GHZ):           5.5496394           4.6756236           2.7127083
 Standard basis: def2TZVP (5D, 7F)
 The following finite field(s) will be applied:
 An electric field of              0.0051  0.0051  0.0022
   222 basis functions,   354 primitive gaussians,   252 cartesian basis functions
    22 alpha electrons       22 beta electrons
       nuclear repulsion energy       217.9544051497 Hartrees.
 NAtoms=   12 NActive=   12 NUniq=   12 SFac= 1.00D+00 NAtFMM=   60 NAOKFM=F Big=F
 Integral buffers will be    131072 words long.
 Raffenetti 2 integral format.
 Two-electron integral symmetry is turned off.
 One-electron integrals computed using PRISM.
   1 Symmetry operations used in ECPInt.
 ECPInt:  NShTT=    4095 NPrTT=   12396 LenC2=    4075 LenP2D=   10363.
 LDataN:  DoStor=T MaxTD1= 6 Len=  172
 NBasis=   222 RedAO= T EigKep=  1.13D-04  NBF=   222
 NBsUse=   222 1.00D-06 EigRej= -1.00D+00 NBFU=   222
 The nuclear repulsion energy is now       218.6418752890 hartrees.
 Initial guess from the checkpoint file:  "checkpoint.chk"
 B after Tr=     0.000000    0.000000   -0.000000
         Rot=    1.000000   -0.000000    0.000000   -0.000000 Ang=   0.00 deg.
 Keep R1 ints in memory in canonical form, NReq=319363861.
 Requested convergence on RMS density matrix=1.00D-08 within 128 cycles.
 Requested convergence on MAX density matrix=1.00D-06.
 Requested convergence on             energy=1.00D-06.
 No special actions if energy rises.
 SCF Done:  E(RB3LYP) =  -269.396008412     A.U. after   10 cycles
            NFock= 10  Conv=0.92D-08     -V/T= 2.0050
 DoSCS=F DFT=T ScalE2(SS,OS)=  1.000000  1.000000
 Range of M.O.s used for correlation:     1   222
 NBasis=   222 NAE=    22 NBE=    22 NFC=     0 NFV=     0
 NROrb=    222 NOA=    22 NOB=    22 NVA=   200 NVB=   200

 **** Warning!!: The largest alpha MO coefficient is  0.18975442D+02

   1 Symmetry operations used in ECPInt.
 ECPInt:  NShTT=    4095 NPrTT=   12396 LenC2=    4075 LenP2D=   10363.
 LDataN:  DoStor=T MaxTD1= 7 Len=  274
 Symmetrizing basis deriv contribution to polar:
 IMax=3 JMax=2 DiffMx= 0.00D+00
 G2DrvN: will do    13 centers at a time, making    1 passes.
 Calling FoFCou, ICntrl=  3107 FMM=F I1Cent=   0 AccDes= 0.00D+00.
 End of G2Drv F.D. properties file   721 does not exist.
 End of G2Drv F.D. properties file   722 does not exist.
 End of G2Drv F.D. properties file   788 does not exist.
          IDoAtm=111111111111
          Differentiating once with respect to nuclear coordinates.
 Keep R1 ints in memory in canonical form, NReq=319333990.
          There are    39 degrees of freedom in the 1st order CPHF.  IDoFFX=6 NUNeed=     0.
     33 vectors produced by pass  0 Test12= 1.13D-14 2.56D-09 XBig12= 1.47D-01 1.66D-01.
 AX will form    33 AO Fock derivatives at one time.
     33 vectors produced by pass  1 Test12= 1.13D-14 2.56D-09 XBig12= 1.95D-02 4.21D-02.
     33 vectors produced by pass  2 Test12= 1.13D-14 2.56D-09 XBig12= 2.50D-04 3.17D-03.
     33 vectors produced by pass  3 Test12= 1.13D-14 2.56D-09 XBig12= 1.09D-06 1.51D-04.
     33 vectors produced by pass  4 Test12= 1.13D-14 2.56D-09 XBig12= 2.61D-09 6.83D-06.
     31 vectors produced by pass  5 Test12= 1.13D-14 2.56D-09 XBig12= 5.33D-12 3.27D-07.
      9 vectors produced by pass  6 Test12= 1.13D-14 2.56D-09 XBig12= 8.14D-15 1.25D-08.
 InvSVY:  IOpt=1 It=  1 EMax= 2.66D-15
 Solved reduced A of dimension   205 with    33 vectors.
 End of Minotr F.D. properties file   721 does not exist.
 End of Minotr F.D. properties file   722 does not exist.
 End of Minotr F.D. properties file   788 does not exist.
   1 Symmetry operations used in ECPInt.
 ECPInt:  NShTT=    4095 NPrTT=   12396 LenC2=    4075 LenP2D=   10363.
 LDataN:  DoStor=T MaxTD1= 8 Len=  415
 Calling FoFJK, ICntrl=    100147 FMM=F ISym2X=0 I1Cent= 0 IOpClX= 0 NMat=1 NMatS=1 NMatT=0.
 -------------------------------------------------------------------
 Center     Atomic                   Forces (Hartrees/Bohr)
 Number     Number              X              Y              Z
 -------------------------------------------------------------------
      1        6          -0.000540752   -0.001365077    0.000224589
      2        6           0.000694070    0.001028064    0.000222505
      3        6           0.001233693    0.001588401    0.000066742
      4        1           0.000064674   -0.000249230    0.000028667
      5        1          -0.000164947   -0.000298555   -0.000055956
      6        1          -0.000089295   -0.000242820    0.000021215
      7        6          -0.001621902   -0.000887328   -0.001676711
      8        6          -0.001276803   -0.000553074   -0.000082898
      9        1           0.000078626    0.000083290   -0.000371447
     10        8           0.001801732    0.000968178    0.001468846
     11        1          -0.000138706   -0.000111443    0.000133487
     12        1          -0.000040389    0.000039593    0.000020960
 -------------------------------------------------------------------
 Cartesian Forces:  Max     0.001801732 RMS     0.000796092
 -----------------------------------------------------------------------------------------------
                       Internal Coordinate Forces (Hartree/Bohr or radian)
  Cent   Atom   N1       Length/X         N2         Alpha/Y        N3         Beta/Z          J
 -----------------------------------------------------------------------------------------------
      1  C 
      2  C        1   0.000238(     1)
      3  C        1   0.001457(     2)      2   0.004790(    12)
      4  H        1  -0.000108(     3)      2   0.000061(    13)      3  -0.000414(    22)     0
      5  H        2  -0.000030(     4)      1  -0.000097(    14)      3  -0.001980(    23)     0
      6  H        3  -0.000026(     5)      1  -0.000176(    15)      2  -0.003514(    24)     0
      7  C        3   0.000014(     6)      1   0.005389(    16)      6  -0.003082(    25)     0
      8  C        2  -0.000987(     7)      1   0.001738(    17)      5  -0.002578(    26)     0
      9  H        7   0.000311(     8)      3  -0.000473(    18)      1  -0.000538(    27)     0
     10  O        7   0.001843(     9)      3   0.004055(    19)      9  -0.000451(    28)     0
     11  H        8   0.000086(    10)      2  -0.000152(    20)      1   0.000313(    29)     0
     12  H        8  -0.000058(    11)      2  -0.000021(    21)     11  -0.000024(    30)     0
 -----------------------------------------------------------------------------------------------
 Internal  Forces:  Max     0.005388781 RMS     0.001928574

 GradGradGradGradGradGradGradGradGradGradGradGradGradGradGradGradGradGrad
 Berny optimization.
 Search for a saddle point.
 Step number   1 out of a maximum of   40
 All quantities printed in internal units (Hartrees-Bohrs-Radians)
 Swapping is turned off.
 Second derivative matrix not updated -- analytic derivatives used.
 ITU=  0
     Eigenvalues ---   -0.77802   0.02573   0.02764   0.04024   0.04159
     Eigenvalues ---    0.04967   0.10759   0.12667   0.14373   0.16585
     Eigenvalues ---    0.18482   0.19827   0.25182   0.27179   0.29500
     Eigenvalues ---    0.32081   0.34670   0.35059   0.35354   0.35702
     Eigenvalues ---    0.36331   0.39563   0.40058   0.43652   0.46327
     Eigenvalues ---    0.52849   0.56588   0.70326   0.92163   2.75393
 Eigenvectors required to have negative eigenvalues:
                          A7        A3        D12       R8        R10
   1                    0.46784   0.42170   0.29263  -0.27522  -0.26664
                          A8        A10       R7        D11       R2
   1                    0.25543   0.24707   0.23268   0.22054   0.19228
 RFO step:  Lambda0=5.404285907D-05 Lambda=-9.59961232D-05.
 Linear search not attempted -- option 19 set.
 Variable       Old X    -DE/DX   Delta X   Delta X   Delta X     New X
                                 (Linear)    (Quad)   (Total)
    R2        2.61814   0.00024   0.00000  -0.00316  -0.00316   2.61497
    R3        2.65003   0.00146   0.00000   0.00346   0.00346   2.65349
    R4        2.05098  -0.00011   0.00000  -0.00051  -0.00051   2.05047
    R5        2.04597  -0.00003   0.00000  -0.00025  -0.00025   2.04572
    R6        2.04330  -0.00003   0.00000  -0.00022  -0.00022   2.04308
    R7        2.65846   0.00001   0.00000  -0.00563  -0.00563   2.65282
    R8        2.63291  -0.00099   0.00000   0.00163   0.00163   2.63455
    R9        2.07315   0.00031   0.00000   0.00028   0.00028   2.07343
   R10        2.38753   0.00184   0.00000   0.00665   0.00665   2.39418
   R11        2.04612   0.00009   0.00000   0.00026   0.00026   2.04639
   R12        2.04339  -0.00006   0.00000   0.00022   0.00022   2.04362
    A3        2.10656   0.00479   0.00000  -0.00189  -0.00189   2.10467
    A4        2.09856   0.00006   0.00000   0.00213   0.00213   2.10068
    A5        2.11311  -0.00010   0.00000   0.00257   0.00257   2.11567
    A6        2.08875  -0.00018   0.00000  -0.00006  -0.00006   2.08869
    A7        2.07764   0.00539   0.00000   0.00063   0.00063   2.07827
    A8        2.04413   0.00174   0.00000  -0.00173  -0.00173   2.04239
    A9        2.01840  -0.00047   0.00000   0.00025   0.00025   2.01865
   A10        2.23951   0.00406   0.00000   0.00202   0.00202   2.24154
   A11        2.10684  -0.00015   0.00000  -0.00113  -0.00113   2.10571
   A12        2.06540  -0.00002   0.00000  -0.00138  -0.00138   2.06402
    D4       -2.95988  -0.00041   0.00000  -0.00819  -0.00819  -2.96807
    D5        2.63292  -0.00198   0.00000   0.02081   0.02081   2.65373
    D6       -3.11138  -0.00351   0.00000  -0.01357  -0.01357  -3.12495
    D7        2.70677  -0.00308   0.00000   0.00789   0.00789   2.71467
    D8       -2.99042  -0.00258   0.00000  -0.01394  -0.01394  -3.00435
    D9       -2.50917  -0.00054   0.00000  -0.00730  -0.00730  -2.51647
   D10        2.99138  -0.00045   0.00000   0.00005   0.00005   2.99143
   D11        2.86100   0.00031   0.00000   0.00599   0.00599   2.86699
   D12        2.64788  -0.00002   0.00000  -0.00719  -0.00719   2.64070
         Item               Value     Threshold  Converged?
 Maximum Force            0.005389     0.000450     NO 
 RMS     Force            0.001929     0.000300     NO 
 Maximum Displacement     0.020808     0.001800     NO 
 RMS     Displacement     0.006345     0.001200     NO 
 Predicted change in Energy=-2.102946D-05
 GradGradGradGradGradGradGradGradGradGradGradGradGradGradGradGradGradGrad

 ---------------------------------------------------------------------------------------------------
                            Z-MATRIX (ANGSTROMS AND DEGREES)
   CD    Cent   Atom    N1       Length/X        N2       Alpha/Y        N3        Beta/Z          J
 ---------------------------------------------------------------------------------------------------
      1      1  C 
      2      2  C        1   1.383785(     1)
      3      3  C        1   1.404168(     2)      2  120.589(    12)
      4      4  H        1   1.085062(     3)      2  120.360(    13)      3 -170.058(    22)      0
      5      5  H        2   1.082550(     4)      1  121.219(    14)      3  152.047(    23)      0
      6      6  H        3   1.081149(     5)      1  119.673(    15)      2 -179.046(    24)      0
      7      7  C        3   1.403813(     6)      1  119.076(    16)      6  155.539(    25)      0
      8      8  C        2   1.394142(     7)      1  117.021(    17)      5 -172.137(    26)      0
      9      9  H        7   1.097212(     8)      3  115.660(    18)      1 -144.183(    27)      0
     10     10  O        7   1.266946(     9)      3  128.431(    19)      9  171.396(    28)      0
     11     11  H        8   1.082902(    10)      2  120.648(    20)      1  164.266(    29)      0
     12     12  H        8   1.081436(    11)      2  118.259(    21)     11  151.301(    30)      0
 ---------------------------------------------------------------------------------------------------
                         Z-Matrix orientation:                         
 ---------------------------------------------------------------------
 Center     Atomic      Atomic             Coordinates (Angstroms)
 Number     Number       Type             X           Y           Z
 ---------------------------------------------------------------------
      1          6           0        0.000000    0.000000    0.000000
      2          6           0        0.000000    0.000000    1.383785
      3          6           0        1.208767    0.000000   -0.714542
      4          1           0       -0.922200    0.161650   -0.548431
      5          1           0       -0.817780    0.433954    1.944885
      6          1           0        1.191557    0.015634   -1.795441
      7          6           0        2.368561    0.489372   -0.093186
      8          6           0        1.166399   -0.426595    2.017158
      9          1           0        3.065128    1.030279   -0.745940
     10          8           0        2.647397    0.518782    1.142345
     11          1           0        1.332417   -0.218319    3.066794
     12          1           0        1.655939   -1.315689    1.643839
 ---------------------------------------------------------------------
                    Distance matrix (angstroms):
                    1          2          3          4          5
     1  C    0.000000
     2  C    1.383785   0.000000
     3  C    1.404168   2.421589   0.000000
     4  H    1.085062   2.147101   2.143536   0.000000
     5  H    2.153986   1.082550   3.371611   2.510314   0.000000
     6  H    2.154915   3.395222   1.081149   2.458521   4.266435
     7  C    2.420383   2.833904   1.403813   3.338227   3.782800
     8  C    2.368839   1.394142   2.765133   3.360138   2.163964
     9  H    3.318570   3.871978   2.123331   4.085622   4.761629
    10  O    2.929642   2.708531   2.405581   3.965891   3.557910
    11  H    3.350854   2.157665   3.789651   4.277560   2.511471
    12  H    2.678690   2.130915   2.737327   3.692612   3.044859
                    6          7          8          9         10
     6  H    0.000000
     7  C    2.123073   0.000000
     8  C    3.838243   2.595716   0.000000
     9  H    2.375127   1.097212   3.655456   0.000000
    10  O    3.317110   1.266946   1.962750   2.000437   0.000000
    11  H    4.869898   3.399984   1.082902   4.370151   2.444584
    12  H    3.717085   2.604483   1.081436   3.633238   2.144707
                   11         12
    11  H    0.000000
    12  H    1.825839   0.000000
 Symmetry turned off by external request.
 Stoichiometry    C5H6O
 Framework group  C1[X(C5H6O)]
 Deg. of freedom    30
 Full point group                 C1      NOp   1
 Rotational constants (GHZ):           5.5559159           4.6756136           2.7152679
 Standard basis: def2TZVP (5D, 7F)
 The following finite field(s) will be applied:
 An electric field of              0.0051  0.0051  0.0022
   222 basis functions,   354 primitive gaussians,   252 cartesian basis functions
    22 alpha electrons       22 beta electrons
       nuclear repulsion energy       217.9777167663 Hartrees.
 NAtoms=   12 NActive=   12 NUniq=   12 SFac= 1.00D+00 NAtFMM=   60 NAOKFM=F Big=F
 Integral buffers will be    131072 words long.
 Raffenetti 2 integral format.
 Two-electron integral symmetry is turned off.
 One-electron integrals computed using PRISM.
   1 Symmetry operations used in ECPInt.
 ECPInt:  NShTT=    4095 NPrTT=   12396 LenC2=    4074 LenP2D=   10361.
 LDataN:  DoStor=T MaxTD1= 6 Len=  172
 NBasis=   222 RedAO= T EigKep=  1.11D-04  NBF=   222
 NBsUse=   222 1.00D-06 EigRej= -1.00D+00 NBFU=   222
 The nuclear repulsion energy is now       218.6672700901 hartrees.
 Initial guess from the checkpoint file:  "checkpoint.chk"
 B after Tr=     0.003069   -0.008365   -0.002400
         Rot=    0.999995    0.001334    0.000470   -0.002959 Ang=   0.38 deg.
 ExpMin= 9.52D-02 ExpMax= 2.70D+04 ExpMxC= 9.22D+02 IAcc=2 IRadAn=         4 AccDes= 0.00D+00
 Harris functional with IExCor=  402 and IRadAn=       4 diagonalized for initial guess.
 HarFok:  IExCor=  402 AccDes= 0.00D+00 IRadAn=         4 IDoV= 1 UseB2=F ITyADJ=14
 ICtDFT=  3500011 ScaDFX=  1.000000  1.000000  1.000000  1.000000
 FoFCou: FMM=F IPFlag=           0 FMFlag=      100000 FMFlg1=           0
         NFxFlg=           0 DoJE=T BraDBF=F KetDBF=T FulRan=T
         wScrn=  0.000000 ICntrl=       500 IOpCl=  0 I1Cent=   200000004 NGrid=           0
         NMat0=    1 NMatS0=      1 NMatT0=    0 NMatD0=    1 NMtDS0=    0 NMtDT0=    0
 Symmetry not used in FoFCou.
 Keep R1 ints in memory in canonical form, NReq=319363861.
 Requested convergence on RMS density matrix=1.00D-08 within 128 cycles.
 Requested convergence on MAX density matrix=1.00D-06.
 Requested convergence on             energy=1.00D-06.
 No special actions if energy rises.
 Integral accuracy reduced to 1.0D-05 until final iterations.
 Initial convergence to 1.0D-05 achieved.  Increase integral accuracy.
 SCF Done:  E(RB3LYP) =  -269.396029268     A.U. after   12 cycles
            NFock= 12  Conv=0.45D-08     -V/T= 2.0050
   1 Symmetry operations used in ECPInt.
 ECPInt:  NShTT=    4095 NPrTT=   12396 LenC2=    4074 LenP2D=   10361.
 LDataN:  DoStor=T MaxTD1= 7 Len=  274
 Calling FoFJK, ICntrl=      2127 FMM=F ISym2X=0 I1Cent= 0 IOpClX= 0 NMat=1 NMatS=1 NMatT=0.
 -------------------------------------------------------------------
 Center     Atomic                   Forces (Hartrees/Bohr)
 Number     Number              X              Y              Z
 -------------------------------------------------------------------
      1        6           0.000059466   -0.001977675   -0.000010540
      2        6          -0.000058626    0.000909472    0.000012089
      3        6          -0.000007842    0.001076160   -0.000007655
      4        1          -0.000001423   -0.000004164   -0.000000131
      5        1          -0.000004371   -0.000000651   -0.000001937
      6        1          -0.000001887   -0.000003957   -0.000001210
      7        6           0.000010013    0.000026551   -0.000027170
      8        6           0.000001460   -0.000000135    0.000010967
      9        1           0.000003641   -0.000000604   -0.000005474
     10        8          -0.000002766   -0.000029167    0.000032137
     11        1           0.000000230    0.000002259    0.000000381
     12        1           0.000002104    0.000001911   -0.000001456
 -------------------------------------------------------------------
 Cartesian Forces:  Max     0.001977675 RMS     0.000405089
 -----------------------------------------------------------------------------------------------
                       Internal Coordinate Forces (Hartree/Bohr or radian)
  Cent   Atom   N1       Length/X         N2         Alpha/Y        N3         Beta/Z          J
 -----------------------------------------------------------------------------------------------
      1  C 
      2  C        1   0.000020(     1)
      3  C        1   0.000006(     2)      2   0.000017(    12)
      4  H        1   0.000001(     3)      2  -0.000000(    13)      3  -0.000008(    22)     0
      5  H        2   0.000002(     4)      1  -0.000007(    14)      3   0.000022(    23)     0
      6  H        3   0.000001(     5)      1  -0.000004(    15)      2   0.000069(    24)     0
      7  C        3   0.000008(     6)      1  -0.000007(    16)      6   0.000076(    25)     0
      8  C        2   0.000006(     7)      1   0.000021(    17)      5   0.000018(    26)     0
      9  H        7   0.000005(     8)      3  -0.000004(    18)      1   0.000037(    27)     0
     10  O        7   0.000030(     9)      3  -0.000052(    19)      9   0.000043(    28)     0
     11  H        8   0.000001(    10)      2  -0.000002(    20)      1   0.000002(    29)     0
     12  H        8  -0.000000(    11)      2   0.000001(    21)     11   0.000006(    30)     0
 -----------------------------------------------------------------------------------------------
 Internal  Forces:  Max     0.000076309 RMS     0.000025626

 GradGradGradGradGradGradGradGradGradGradGradGradGradGradGradGradGradGrad
 Berny optimization.
 Search for a saddle point.
 Step number   2 out of a maximum of   40
 All quantities printed in internal units (Hartrees-Bohrs-Radians)
 Swapping is turned off.
 Update second derivatives using D2CorN and points    1    2
 ITU=  0  0
     Eigenvalues ---   -0.77807   0.02580   0.02758   0.04029   0.04159
     Eigenvalues ---    0.04974   0.10756   0.12667   0.14374   0.16583
     Eigenvalues ---    0.18483   0.19840   0.25196   0.27179   0.29500
     Eigenvalues ---    0.32081   0.34670   0.35059   0.35354   0.35702
     Eigenvalues ---    0.36331   0.39564   0.40060   0.43655   0.46328
     Eigenvalues ---    0.52849   0.56591   0.70301   0.92169   2.75412
 Eigenvectors required to have negative eigenvalues:
                          A7        A3        D12       R8        R10
   1                    0.46783   0.42164   0.29266  -0.27524  -0.26673
                          A8        A10       R7        D11       R2
   1                    0.25537   0.24718   0.23267   0.22055   0.19224
 RFO step:  Lambda0=6.658140705D-11 Lambda=-3.81755234D-08.
 Linear search not attempted -- option 19 set.
 Variable       Old X    -DE/DX   Delta X   Delta X   Delta X     New X
                                 (Linear)    (Quad)   (Total)
    R2        2.61497   0.00002   0.00000   0.00003   0.00003   2.61501
    R3        2.65349   0.00001   0.00000  -0.00000  -0.00000   2.65349
    R4        2.05047   0.00000   0.00000   0.00000   0.00000   2.05047
    R5        2.04572   0.00000   0.00000   0.00001   0.00001   2.04573
    R6        2.04308   0.00000   0.00000   0.00000   0.00000   2.04308
    R7        2.65282   0.00001   0.00000   0.00001   0.00001   2.65283
    R8        2.63455   0.00001   0.00000   0.00002   0.00002   2.63457
    R9        2.07343   0.00001   0.00000   0.00001   0.00001   2.07344
   R10        2.39418   0.00003   0.00000   0.00005   0.00005   2.39424
   R11        2.04639   0.00000   0.00000   0.00001   0.00001   2.04639
   R12        2.04362  -0.00000   0.00000  -0.00001  -0.00001   2.04361
    A3        2.10467   0.00002   0.00000   0.00005   0.00005   2.10472
    A4        2.10068  -0.00000   0.00000  -0.00004  -0.00004   2.10064
    A5        2.11567  -0.00001   0.00000  -0.00007  -0.00007   2.11561
    A6        2.08869  -0.00000   0.00000  -0.00002  -0.00002   2.08867
    A7        2.07827  -0.00001   0.00000   0.00006   0.00006   2.07833
    A8        2.04239   0.00002   0.00000   0.00008   0.00008   2.04248
    A9        2.01865  -0.00000   0.00000   0.00006   0.00006   2.01870
   A10        2.24154  -0.00005   0.00000  -0.00008  -0.00008   2.24145
   A11        2.10571  -0.00000   0.00000  -0.00003  -0.00003   2.10568
   A12        2.06402   0.00000   0.00000   0.00002   0.00002   2.06404
    D4       -2.96807  -0.00001   0.00000   0.00011   0.00011  -2.96796
    D5        2.65373   0.00002   0.00000  -0.00017  -0.00017   2.65356
    D6       -3.12495   0.00007   0.00000   0.00019   0.00019  -3.12476
    D7        2.71467   0.00008   0.00000   0.00029   0.00029   2.71496
    D8       -3.00435   0.00002   0.00000  -0.00018  -0.00018  -3.00453
    D9       -2.51647   0.00004   0.00000  -0.00016  -0.00016  -2.51663
   D10        2.99143   0.00004   0.00000   0.00017   0.00017   2.99160
   D11        2.86699   0.00000   0.00000  -0.00007  -0.00007   2.86692
   D12        2.64070   0.00001   0.00000  -0.00004  -0.00004   2.64066
         Item               Value     Threshold  Converged?
 Maximum Force            0.000076     0.000450     YES
 RMS     Force            0.000026     0.000300     YES
 Maximum Displacement     0.000293     0.001800     YES
 RMS     Displacement     0.000098     0.001200     YES
 Predicted change in Energy=-1.905447D-08
 Optimization completed.
    -- Stationary point found.
                       ----------------------------
                       !   Optimized Parameters   !
                       ! (Angstroms and Degrees)  !
 ----------------------                            ----------------------
 !      Name          Value   Derivative information (Atomic Units)     !
 ------------------------------------------------------------------------
 !       R2          1.3838   -DE/DX =    0.0                           !
 !       R3          1.4042   -DE/DX =    0.0                           !
 !       R4          1.0851   -DE/DX =    0.0                           !
 !       R5          1.0825   -DE/DX =    0.0                           !
 !       R6          1.0811   -DE/DX =    0.0                           !
 !       R7          1.4038   -DE/DX =    0.0                           !
 !       R8          1.3941   -DE/DX =    0.0                           !
 !       R9          1.0972   -DE/DX =    0.0                           !
 !       R10         1.2669   -DE/DX =    0.0                           !
 !       R11         1.0829   -DE/DX =    0.0                           !
 !       R12         1.0814   -DE/DX =    0.0                           !
 !       A3        120.5887   -DE/DX =    0.0                           !
 !       A4        120.3604   -DE/DX =    0.0                           !
 !       A5        121.2192   -DE/DX =    0.0                           !
 !       A6        119.6731   -DE/DX =    0.0                           !
 !       A7        119.076    -DE/DX =    0.0                           !
 !       A8        117.0206   -DE/DX =    0.0                           !
 !       A9        115.66     -DE/DX =    0.0                           !
 !       A10       128.4306   -DE/DX =   -0.0001                        !
 !       A11       120.6483   -DE/DX =    0.0                           !
 !       A12       118.2595   -DE/DX =    0.0                           !
 !       D4       -170.0578   -DE/DX =    0.0                           !
 !       D5        152.0474   -DE/DX =    0.0                           !
 !       D6       -179.0464   -DE/DX =    0.0001                        !
 !       D7        155.5389   -DE/DX =    0.0001                        !
 !       D8       -172.1367   -DE/DX =    0.0                           !
 !       D9       -144.183    -DE/DX =    0.0                           !
 !       D10       171.3962   -DE/DX =    0.0                           !
 !       D11       164.2663   -DE/DX =    0.0                           !
 !       D12       151.3008   -DE/DX =    0.0                           !
 ------------------------------------------------------------------------
 GradGradGradGradGradGradGradGradGradGradGradGradGradGradGradGradGradGrad

 ---------------------------------------------------------------------------------------------------
                            Z-MATRIX (ANGSTROMS AND DEGREES)
   CD    Cent   Atom    N1       Length/X        N2       Alpha/Y        N3        Beta/Z          J
 ---------------------------------------------------------------------------------------------------
      1      1  C 
      2      2  C        1   1.383785(     1)
      3      3  C        1   1.404168(     2)      2  120.589(    12)
      4      4  H        1   1.085062(     3)      2  120.360(    13)      3 -170.058(    22)      0
      5      5  H        2   1.082550(     4)      1  121.219(    14)      3  152.047(    23)      0
      6      6  H        3   1.081149(     5)      1  119.673(    15)      2 -179.046(    24)      0
      7      7  C        3   1.403813(     6)      1  119.076(    16)      6  155.539(    25)      0
      8      8  C        2   1.394142(     7)      1  117.021(    17)      5 -172.137(    26)      0
      9      9  H        7   1.097212(     8)      3  115.660(    18)      1 -144.183(    27)      0
     10     10  O        7   1.266946(     9)      3  128.431(    19)      9  171.396(    28)      0
     11     11  H        8   1.082902(    10)      2  120.648(    20)      1  164.266(    29)      0
     12     12  H        8   1.081436(    11)      2  118.259(    21)     11  151.301(    30)      0
 ---------------------------------------------------------------------------------------------------
                         Z-Matrix orientation:                         
 ---------------------------------------------------------------------
 Center     Atomic      Atomic             Coordinates (Angstroms)
 Number     Number       Type             X           Y           Z
 ---------------------------------------------------------------------
      1          6           0        0.000000    0.000000    0.000000
      2          6           0        0.000000    0.000000    1.383785
      3          6           0        1.208767    0.000000   -0.714542
      4          1           0       -0.922200    0.161650   -0.548431
      5          1           0       -0.817780    0.433954    1.944885
      6          1           0        1.191557    0.015634   -1.795441
      7          6           0        2.368561    0.489372   -0.093186
      8          6           0        1.166399   -0.426595    2.017158
      9          1           0        3.065128    1.030279   -0.745940
     10          8           0        2.647397    0.518782    1.142345
     11          1           0        1.332417   -0.218319    3.066794
     12          1           0        1.655939   -1.315689    1.643839
 ---------------------------------------------------------------------
                    Distance matrix (angstroms):
                    1          2          3          4          5
     1  C    0.000000
     2  C    1.383785   0.000000
     3  C    1.404168   2.421589   0.000000
     4  H    1.085062   2.147101   2.143536   0.000000
     5  H    2.153986   1.082550   3.371611   2.510314   0.000000
     6  H    2.154915   3.395222   1.081149   2.458521   4.266435
     7  C    2.420383   2.833904   1.403813   3.338227   3.782800
     8  C    2.368839   1.394142   2.765133   3.360138   2.163964
     9  H    3.318570   3.871978   2.123331   4.085622   4.761629
    10  O    2.929642   2.708531   2.405581   3.965891   3.557910
    11  H    3.350854   2.157665   3.789651   4.277560   2.511471
    12  H    2.678690   2.130915   2.737327   3.692612   3.044859
                    6          7          8          9         10
     6  H    0.000000
     7  C    2.123073   0.000000
     8  C    3.838243   2.595716   0.000000
     9  H    2.375127   1.097212   3.655456   0.000000
    10  O    3.317110   1.266946   1.962750   2.000437   0.000000
    11  H    4.869898   3.399984   1.082902   4.370151   2.444584
    12  H    3.717085   2.604483   1.081436   3.633238   2.144707
                   11         12
    11  H    0.000000
    12  H    1.825839   0.000000
 Symmetry turned off by external request.
 Stoichiometry    C5H6O
 Framework group  C1[X(C5H6O)]
 Deg. of freedom    30
 Full point group                 C1      NOp   1
 Rotational constants (GHZ):           5.5559159           4.6756136           2.7152679
 1\1\GINC-BHC0034\FTS\RB3LYP\def2TZVP\C5H6O1\DHANAWAY\10-Jun-2022\1\\# 
 Opt=(TS, CalcFC, noeigentest, Z-matrix, MaxStep=10) geom=allcheckpoint
  guess=read Field=read NoSymm B3LYP/Def2TZVP freq=noraman pop=none\\ts
 _zmat_initalOpt\\0,1\C\C,1,R2\C,1,R3,2,A3\H,1,R4,2,A4,3,D4,0\H,2,R5,1,
 A5,3,D5,0\H,3,R6,1,A6,2,D6,0\C,3,R7,1,A7,6,D7,0\C,2,R8,1,A8,5,D8,0\H,7
 ,R9,3,A9,1,D9,0\O,7,R10,3,A10,9,D10,0\H,8,R11,2,A11,1,D11,0\H,8,R12,2,
 A12,11,D12,0\\R2=1.38378487\R3=1.40416814\R4=1.08506246\R5=1.08254979\
 R6=1.08114926\R7=1.403813\R8=1.39414216\R9=1.09721154\R10=1.26694587\R
 11=1.08290166\R12=1.08143571\A3=120.58872875\A4=120.36036496\A5=121.21
 916369\A6=119.67310844\A7=119.07595534\A8=117.02056506\A9=115.65995022
 \A10=128.4305848\A11=120.64827134\A12=118.25947256\D4=-170.05775873\D5
 =152.04738216\D6=-179.0463915\D7=155.53891467\D8=-172.13670605\D9=-144
 .18298397\D10=171.39620266\D11=164.26625722\D12=151.30079977\\Version=
 ES64L-G16RevA.03\HF=-269.3960293\RMSD=4.460e-09\RMSF=4.051e-04\Dipole=
 -0.7807825,-0.3019388,-0.3098094\PG=C01 [X(C5H6O1)]\\@


 "I COULD HAVE DONE IT IN A MUCH MORE COMPLICATED WAY"
 SAID THE RED QUEEN, IMMENSELY PROUD.

                                      -- LEWIS CARROLL
 Job cpu time:       0 days  0 hours 38 minutes 18.0 seconds.
 Elapsed time:       0 days  0 hours  3 minutes 38.8 seconds.
 File lengths (MBytes):  RWF=     53 Int=      0 D2E=      0 Chk=     32 Scr=      1
 Normal termination of Gaussian 16 at Fri Jun 10 11:43:45 2022.
 Link1:  Proceeding to internal job step number  2.
 --------------------------------------------------------------------
 #N Geom=AllCheck Guess=TCheck SCRF=Check GenChk RB3LYP/def2TZVP Freq
 --------------------------------------------------------------------
 1/5=1,8=10,10=4,11=1,29=7,30=1,38=1,40=1/1,3;
 2/12=2,15=1,40=1/2;
 3/5=44,7=101,11=2,14=-4,25=1,30=1,70=2,71=2,74=-5,116=1,140=1/1,2,3;
 4/5=101/1;
 5/5=2,38=6,98=1/2;
 8/6=4,10=90,11=11/1;
 11/6=1,8=1,9=11,15=111,16=1,31=1/1,2,10;
 10/6=1,31=1/2;
 7/8=1,10=1,25=1,30=1/1,2,3,16;
 1/5=1,8=10,10=4,11=1,30=1/3;
 99//99;
 Structure from the checkpoint file:  "checkpoint.chk"
 -----------------
 ts_zmat_initalOpt
 -----------------
 Charge =  0 Multiplicity = 1
 Z-Matrix found in chk file.
 C
 C,1,R2
 C,1,R3,2,A3
 H,1,R4,2,A4,3,D4,0
 H,2,R5,1,A5,3,D5,0
 H,3,R6,1,A6,2,D6,0
 C,3,R7,1,A7,6,D7,0
 C,2,R8,1,A8,5,D8,0
 H,7,R9,3,A9,1,D9,0
 O,7,R10,3,A10,9,D10,0
 H,8,R11,2,A11,1,D11,0
 H,8,R12,2,A12,11,D12,0
      Variables:
 R2=1.38378487
 R3=1.40416814
 R4=1.08506246
 R5=1.08254979
 R6=1.08114926
 R7=1.403813
 R8=1.39414216
 R9=1.09721154
 R10=1.26694587
 R11=1.08290166
 R12=1.08143571
 A3=120.58872875
 A4=120.36036496
 A5=121.21916369
 A6=119.67310844
 A7=119.07595534
 A8=117.02056506
 A9=115.65995022
 A10=128.4305848
 A11=120.64827134
 A12=118.25947256
 D4=-170.05775873
 D5=152.04738216
 D6=-179.0463915
 D7=155.53891467
 D8=-172.13670605
 D9=-144.18298397
 D10=171.39620266
 D11=164.26625722
 D12=151.30079977
 Recover connectivity data from disk.

 GradGradGradGradGradGradGradGradGradGradGradGradGradGradGradGradGradGrad
 Berny optimization.
 Initialization pass.
                       ----------------------------
                       !    Initial Parameters    !
                       ! (Angstroms and Degrees)  !
 ----------------------                            ----------------------
 !      Name          Value   Derivative information (Atomic Units)     !
 ------------------------------------------------------------------------
 !       R2          1.3838   calculate D2E/DX2 analytically            !
 !       R3          1.4042   calculate D2E/DX2 analytically            !
 !       R4          1.0851   calculate D2E/DX2 analytically            !
 !       R5          1.0825   calculate D2E/DX2 analytically            !
 !       R6          1.0811   calculate D2E/DX2 analytically            !
 !       R7          1.4038   calculate D2E/DX2 analytically            !
 !       R8          1.3941   calculate D2E/DX2 analytically            !
 !       R9          1.0972   calculate D2E/DX2 analytically            !
 !       R10         1.2669   calculate D2E/DX2 analytically            !
 !       R11         1.0829   calculate D2E/DX2 analytically            !
 !       R12         1.0814   calculate D2E/DX2 analytically            !
 !       A3        120.5887   calculate D2E/DX2 analytically            !
 !       A4        120.3604   calculate D2E/DX2 analytically            !
 !       A5        121.2192   calculate D2E/DX2 analytically            !
 !       A6        119.6731   calculate D2E/DX2 analytically            !
 !       A7        119.076    calculate D2E/DX2 analytically            !
 !       A8        117.0206   calculate D2E/DX2 analytically            !
 !       A9        115.66     calculate D2E/DX2 analytically            !
 !       A10       128.4306   calculate D2E/DX2 analytically            !
 !       A11       120.6483   calculate D2E/DX2 analytically            !
 !       A12       118.2595   calculate D2E/DX2 analytically            !
 !       D4       -170.0578   calculate D2E/DX2 analytically            !
 !       D5        152.0474   calculate D2E/DX2 analytically            !
 !       D6       -179.0464   calculate D2E/DX2 analytically            !
 !       D7        155.5389   calculate D2E/DX2 analytically            !
 !       D8       -172.1367   calculate D2E/DX2 analytically            !
 !       D9       -144.183    calculate D2E/DX2 analytically            !
 !       D10       171.3962   calculate D2E/DX2 analytically            !
 !       D11       164.2663   calculate D2E/DX2 analytically            !
 !       D12       151.3008   calculate D2E/DX2 analytically            !
 ------------------------------------------------------------------------
 Trust Radius=1.00D-01 FncErr=1.00D-07 GrdErr=1.00D-07 EigMax=2.50D+02 EigMin=1.00D-04
 Number of steps in this run=      2 maximum allowed number of steps=      2.
 Search for a saddle point of order  1.
 GradGradGradGradGradGradGradGradGradGradGradGradGradGradGradGradGradGrad

                          Input orientation:                          
 ---------------------------------------------------------------------
 Center     Atomic      Atomic             Coordinates (Angstroms)
 Number     Number       Type             X           Y           Z
 ---------------------------------------------------------------------
      1          6           0        0.000000    0.000000    0.000000
      2          6           0        0.000000    0.000000    1.383785
      3          6           0        1.208767    0.000000   -0.714542
      4          1           0       -0.922200    0.161650   -0.548431
      5          1           0       -0.817780    0.433954    1.944885
      6          1           0        1.191557    0.015634   -1.795441
      7          6           0        2.368561    0.489372   -0.093186
      8          6           0        1.166399   -0.426595    2.017158
      9          1           0        3.065128    1.030279   -0.745940
     10          8           0        2.647397    0.518782    1.142345
     11          1           0        1.332417   -0.218319    3.066794
     12          1           0        1.655939   -1.315689    1.643839
 ---------------------------------------------------------------------
                    Distance matrix (angstroms):
                    1          2          3          4          5
     1  C    0.000000
     2  C    1.383785   0.000000
     3  C    1.404168   2.421589   0.000000
     4  H    1.085062   2.147101   2.143536   0.000000
     5  H    2.153986   1.082550   3.371611   2.510314   0.000000
     6  H    2.154915   3.395222   1.081149   2.458521   4.266435
     7  C    2.420383   2.833904   1.403813   3.338227   3.782800
     8  C    2.368839   1.394142   2.765133   3.360138   2.163964
     9  H    3.318570   3.871978   2.123331   4.085622   4.761629
    10  O    2.929642   2.708531   2.405581   3.965891   3.557910
    11  H    3.350854   2.157665   3.789651   4.277560   2.511471
    12  H    2.678690   2.130915   2.737327   3.692612   3.044859
                    6          7          8          9         10
     6  H    0.000000
     7  C    2.123073   0.000000
     8  C    3.838243   2.595716   0.000000
     9  H    2.375127   1.097212   3.655456   0.000000
    10  O    3.317110   1.266946   1.962750   2.000437   0.000000
    11  H    4.869898   3.399984   1.082902   4.370151   2.444584
    12  H    3.717085   2.604483   1.081436   3.633238   2.144707
                   11         12
    11  H    0.000000
    12  H    1.825839   0.000000
 Symmetry turned off by external request.
 Stoichiometry    C5H6O
 Framework group  C1[X(C5H6O)]
 Deg. of freedom    30
 Full point group                 C1      NOp   1
 Rotational constants (GHZ):           5.5559159           4.6756136           2.7152679
 Standard basis: def2TZVP (5D, 7F)
 The following finite field(s) will be applied:
 An electric field of              0.0051  0.0051  0.0022
   222 basis functions,   354 primitive gaussians,   252 cartesian basis functions
    22 alpha electrons       22 beta electrons
       nuclear repulsion energy       217.9777167663 Hartrees.
 NAtoms=   12 NActive=   12 NUniq=   12 SFac= 1.00D+00 NAtFMM=   60 NAOKFM=F Big=F
 Integral buffers will be    131072 words long.
 Raffenetti 2 integral format.
 Two-electron integral symmetry is turned off.
 One-electron integrals computed using PRISM.
   1 Symmetry operations used in ECPInt.
 ECPInt:  NShTT=    4095 NPrTT=   12396 LenC2=    4074 LenP2D=   10361.
 LDataN:  DoStor=T MaxTD1= 6 Len=  172
 NBasis=   222 RedAO= T EigKep=  1.11D-04  NBF=   222
 NBsUse=   222 1.00D-06 EigRej= -1.00D+00 NBFU=   222
 The nuclear repulsion energy is now       218.6672700901 hartrees.
 Initial guess from the checkpoint file:  "checkpoint.chk"
 B after Tr=     0.000000    0.000000    0.000000
         Rot=    1.000000    0.000000    0.000000    0.000000 Ang=   0.00 deg.
 Keep R1 ints in memory in canonical form, NReq=319363861.
 Requested convergence on RMS density matrix=1.00D-08 within 128 cycles.
 Requested convergence on MAX density matrix=1.00D-06.
 Requested convergence on             energy=1.00D-06.
 No special actions if energy rises.
 SCF Done:  E(RB3LYP) =  -269.396029268     A.U. after    1 cycles
            NFock=  1  Conv=0.27D-08     -V/T= 2.0050
 DoSCS=F DFT=T ScalE2(SS,OS)=  1.000000  1.000000
 Range of M.O.s used for correlation:     1   222
 NBasis=   222 NAE=    22 NBE=    22 NFC=     0 NFV=     0
 NROrb=    222 NOA=    22 NOB=    22 NVA=   200 NVB=   200

 **** Warning!!: The largest alpha MO coefficient is  0.19372783D+02

   1 Symmetry operations used in ECPInt.
 ECPInt:  NShTT=    4095 NPrTT=   12396 LenC2=    4074 LenP2D=   10361.
 LDataN:  DoStor=T MaxTD1= 7 Len=  274
 Symmetrizing basis deriv contribution to polar:
 IMax=3 JMax=2 DiffMx= 0.00D+00
 G2DrvN: will do    13 centers at a time, making    1 passes.
 Calling FoFCou, ICntrl=  3107 FMM=F I1Cent=   0 AccDes= 0.00D+00.
 End of G2Drv F.D. properties file   721 does not exist.
 End of G2Drv F.D. properties file   722 does not exist.
 End of G2Drv F.D. properties file   788 does not exist.
          IDoAtm=111111111111
          Differentiating once with respect to electric field.
                with respect to dipole field.
          Differentiating once with respect to nuclear coordinates.
 Keep R1 ints in memory in canonical form, NReq=319333990.
          There are    39 degrees of freedom in the 1st order CPHF.  IDoFFX=6 NUNeed=     3.
     36 vectors produced by pass  0 Test12= 1.13D-14 2.56D-09 XBig12= 1.12D+02 6.45D+00.
 AX will form    36 AO Fock derivatives at one time.
     36 vectors produced by pass  1 Test12= 1.13D-14 2.56D-09 XBig12= 3.60D+01 9.14D-01.
     36 vectors produced by pass  2 Test12= 1.13D-14 2.56D-09 XBig12= 2.90D-01 5.80D-02.
     36 vectors produced by pass  3 Test12= 1.13D-14 2.56D-09 XBig12= 1.20D-03 4.49D-03.
     36 vectors produced by pass  4 Test12= 1.13D-14 2.56D-09 XBig12= 2.58D-06 2.54D-04.
     30 vectors produced by pass  5 Test12= 1.13D-14 2.56D-09 XBig12= 3.52D-09 9.66D-06.
      8 vectors produced by pass  6 Test12= 1.13D-14 2.56D-09 XBig12= 4.97D-12 2.96D-07.
      3 vectors produced by pass  7 Test12= 1.13D-14 2.56D-09 XBig12= 7.50D-15 1.32D-08.
 InvSVY:  IOpt=1 It=  1 EMax= 5.33D-15
 Solved reduced A of dimension   221 with    39 vectors.
 Isotropic polarizability for W=    0.000000       65.07 Bohr**3.
 End of Minotr F.D. properties file   721 does not exist.
 End of Minotr F.D. properties file   722 does not exist.
 End of Minotr F.D. properties file   788 does not exist.
   1 Symmetry operations used in ECPInt.
 ECPInt:  NShTT=    4095 NPrTT=   12396 LenC2=    4074 LenP2D=   10361.
 LDataN:  DoStor=T MaxTD1= 8 Len=  415
 Calling FoFJK, ICntrl=    100127 FMM=F ISym2X=0 I1Cent= 0 IOpClX= 0 NMat=1 NMatS=1 NMatT=0.
 Full mass-weighted force constant matrix:
 Low frequencies --- -527.3621   -8.3887   -0.0009   -0.0009   -0.0008    9.2294
 Low frequencies ---   15.5164  246.4737  374.0433
 ******    1 imaginary frequencies (negative Signs) ****** 
 Diagonal vibrational polarizability:
        6.5795224       7.8853644       8.3249227
 Harmonic frequencies (cm**-1), IR intensities (KM/Mole), Raman scattering
 activities (A**4/AMU), depolarization ratios for plane and unpolarized
 incident light, reduced masses (AMU), force constants (mDyne/A),
 and normal coordinates:
                      1                      2                      3
                      A                      A                      A
 Frequencies --   -527.3542               246.4594               374.0390
 Red. masses --      5.6664                 2.8870                 2.5692
 Frc consts  --      0.9285                 0.1033                 0.2118
 IR Inten    --     43.1683                 4.9076                10.7884
  Atom  AN      X      Y      Z        X      Y      Z        X      Y      Z
     1   6    -0.03   0.04   0.06    -0.02   0.12   0.02     0.05  -0.08  -0.02
     2   6     0.01  -0.01  -0.07     0.01   0.07   0.03     0.13   0.19  -0.00
     3   6     0.06   0.02  -0.03     0.01  -0.17   0.07     0.03  -0.11  -0.03
     4   1     0.00   0.21   0.06     0.02   0.25   0.00     0.04  -0.16  -0.02
     5   1    -0.06  -0.35   0.07     0.10   0.11   0.13     0.24   0.46  -0.04
     6   1     0.03   0.02  -0.03     0.07  -0.37   0.07     0.02  -0.08  -0.03
     7   6    -0.08  -0.09  -0.03     0.01  -0.07   0.04    -0.11   0.16   0.03
     8   6     0.37   0.21  -0.19     0.02  -0.15  -0.17     0.01  -0.07  -0.00
     9   1     0.19  -0.18   0.24     0.04  -0.22  -0.06    -0.34   0.59   0.14
    10   8    -0.28  -0.12   0.18    -0.05   0.20   0.04    -0.07  -0.10   0.02
    11   1     0.37   0.29  -0.20     0.16  -0.46  -0.13     0.06  -0.14   0.00
    12   1    -0.08  -0.20   0.11    -0.02  -0.03  -0.53    -0.16  -0.15  -0.04
                      4                      5                      6
                      A                      A                      A
 Frequencies --    422.3657               572.5441               590.4263
 Red. masses --      4.2723                 2.8544                 3.5121
 Frc consts  --      0.4490                 0.5513                 0.7214
 IR Inten    --      5.1372                23.2835                 4.5616
  Atom  AN      X      Y      Z        X      Y      Z        X      Y      Z
     1   6    -0.17  -0.18  -0.02    -0.03  -0.15  -0.04    -0.15   0.08  -0.16
     2   6    -0.12   0.08  -0.03     0.15   0.14  -0.01     0.17  -0.08  -0.15
     3   6    -0.05   0.04   0.17    -0.09   0.21  -0.07    -0.13  -0.06  -0.02
     4   1    -0.15  -0.53  -0.15    -0.16  -0.59   0.04    -0.19   0.36  -0.00
     5   1    -0.10   0.01   0.05     0.16   0.16  -0.01     0.35   0.19  -0.08
     6   1     0.05  -0.07   0.17     0.01   0.04  -0.07     0.12   0.05  -0.03
     7   6     0.01   0.06   0.10     0.03  -0.13   0.02    -0.16  -0.06   0.16
     8   6     0.04   0.13  -0.25     0.00  -0.07   0.04     0.09  -0.01   0.04
     9   1    -0.06   0.06   0.03     0.31  -0.50  -0.00    -0.27  -0.04   0.04
    10   8     0.23  -0.07   0.06    -0.07   0.07   0.05     0.13   0.05   0.08
    11   1     0.21  -0.04  -0.25    -0.05  -0.23   0.08    -0.22   0.28   0.03
    12   1    -0.14   0.11  -0.44     0.00  -0.03  -0.07     0.29  -0.04   0.37
                      7                      8                      9
                      A                      A                      A
 Frequencies --    724.4434               793.2091               883.7157
 Red. masses --      1.2551                 1.3822                 2.0360
 Frc consts  --      0.3881                 0.5124                 0.9368
 IR Inten    --     45.3605                24.8340                20.9739
  Atom  AN      X      Y      Z        X      Y      Z        X      Y      Z
     1   6     0.00  -0.07   0.01     0.05  -0.06   0.02    -0.09  -0.02  -0.00
     2   6    -0.05  -0.08   0.03    -0.00   0.04   0.01     0.07   0.09  -0.07
     3   6     0.01   0.03   0.02    -0.00  -0.06  -0.07     0.03  -0.04   0.19
     4   1     0.06   0.25   0.00     0.08   0.19   0.05    -0.02  -0.02  -0.11
     5   1     0.30   0.74  -0.08    -0.15  -0.13  -0.07    -0.01  -0.34   0.15
     6   1    -0.06   0.25   0.02    -0.17   0.81  -0.06    -0.15   0.57   0.20
     7   6     0.05  -0.02  -0.00    -0.04  -0.09   0.04     0.10   0.00  -0.06
     8   6    -0.01  -0.02  -0.04    -0.01   0.05  -0.01    -0.01  -0.09  -0.03
     9   1     0.04  -0.02  -0.01    -0.20   0.10   0.02    -0.01   0.08  -0.10
    10   8    -0.02   0.03  -0.00     0.03   0.03   0.02    -0.05   0.02  -0.04
    11   1     0.25   0.29  -0.15     0.02  -0.24   0.04    -0.20   0.32  -0.08
    12   1    -0.11  -0.11   0.05    -0.01   0.15  -0.24     0.00  -0.26   0.37
                     10                     11                     12
                      A                      A                      A
 Frequencies --    949.6601               960.5478               981.8498
 Red. masses --      1.6418                 1.4486                 1.4209
 Frc consts  --      0.8724                 0.7875                 0.8070
 IR Inten    --     41.5658                12.6645                 6.7649
  Atom  AN      X      Y      Z        X      Y      Z        X      Y      Z
     1   6    -0.02  -0.11   0.03    -0.00  -0.00   0.00    -0.05  -0.12   0.02
     2   6    -0.01   0.08  -0.01    -0.04   0.05   0.02     0.03   0.01  -0.03
     3   6     0.03  -0.02  -0.06    -0.01   0.05  -0.09    -0.00   0.08   0.04
     4   1     0.01   0.54   0.16    -0.01  -0.00   0.02     0.04   0.66   0.11
     5   1    -0.19  -0.23  -0.04    -0.17  -0.25   0.06     0.01  -0.01  -0.04
     6   1     0.04  -0.04  -0.07     0.08  -0.24  -0.09     0.04  -0.34   0.04
     7   6    -0.08   0.12  -0.01     0.04  -0.11   0.01     0.07  -0.04  -0.04
     8   6    -0.02  -0.06   0.02    -0.02  -0.07   0.00     0.01   0.04  -0.01
     9   1     0.36  -0.48  -0.03    -0.35   0.47   0.07    -0.17   0.31  -0.01
    10   8     0.07   0.01   0.02     0.04   0.05   0.03    -0.02  -0.00   0.00
    11   1     0.18   0.14  -0.05     0.40   0.38  -0.15    -0.37  -0.30   0.12
    12   1    -0.22  -0.21   0.10    -0.20  -0.24   0.14     0.06   0.10  -0.04
                     13                     14                     15
                      A                      A                      A
 Frequencies --   1019.3301              1043.6810              1100.8751
 Red. masses --      3.5615                 1.7488                 1.3332
 Frc consts  --      2.1803                 1.1223                 0.9519
 IR Inten    --     10.7234                 6.4272                18.9839
  Atom  AN      X      Y      Z        X      Y      Z        X      Y      Z
     1   6     0.29  -0.02   0.11    -0.04  -0.00  -0.11     0.01  -0.03  -0.02
     2   6     0.05   0.00  -0.09     0.01   0.00  -0.03     0.05   0.02   0.05
     3   6    -0.04   0.13   0.16     0.03   0.04   0.13    -0.01  -0.00  -0.02
     4   1     0.37   0.02   0.01     0.06   0.16  -0.22     0.01   0.18   0.03
     5   1    -0.13  -0.06  -0.33    -0.17  -0.04  -0.26     0.11  -0.19   0.29
     6   1    -0.05  -0.23   0.18     0.33   0.04   0.13     0.11  -0.02  -0.02
     7   6    -0.22  -0.08   0.06    -0.04  -0.02   0.02     0.02   0.01   0.07
     8   6    -0.06  -0.02  -0.12     0.04   0.00   0.15    -0.09  -0.01  -0.04
     9   1    -0.34  -0.26  -0.22    -0.13  -0.06  -0.12     0.06  -0.04   0.06
    10   8     0.01   0.00  -0.06    -0.04  -0.02  -0.07    -0.05  -0.04  -0.03
    11   1    -0.21   0.30  -0.17     0.68  -0.16   0.07     0.16   0.41  -0.17
    12   1    -0.01  -0.08   0.11    -0.10   0.10  -0.28     0.55   0.45  -0.23
                     16                     17                     18
                      A                      A                      A
 Frequencies --   1118.4671              1180.4085              1245.8124
 Red. masses --      1.5770                 1.2246                 1.3547
 Frc consts  --      1.1623                 1.0053                 1.2388
 IR Inten    --      2.2537                14.4281                 3.2505
  Atom  AN      X      Y      Z        X      Y      Z        X      Y      Z
     1   6    -0.02  -0.03  -0.04    -0.03   0.01   0.05    -0.03   0.01   0.04
     2   6    -0.10   0.04   0.10     0.04  -0.03   0.00    -0.09   0.07  -0.00
     3   6     0.09   0.04  -0.02     0.07  -0.00  -0.00     0.03  -0.00  -0.01
     4   1     0.22   0.04  -0.42    -0.36  -0.09   0.57    -0.13  -0.08   0.18
     5   1     0.16   0.03   0.50     0.04  -0.01  -0.03    -0.35   0.24  -0.50
     6   1     0.48   0.10  -0.03     0.64   0.15  -0.01     0.18   0.06  -0.01
     7   6    -0.09  -0.04   0.01    -0.01  -0.01   0.02    -0.01  -0.01  -0.03
     8   6     0.06  -0.02  -0.01    -0.05   0.03  -0.03     0.07  -0.09  -0.00
     9   1    -0.12  -0.10  -0.07    -0.07  -0.00  -0.04    -0.03   0.03  -0.01
    10   8     0.01   0.01  -0.04    -0.01   0.00  -0.05     0.00  -0.00   0.01
    11   1    -0.28  -0.11   0.07    -0.10   0.02  -0.03    -0.05   0.03   0.00
    12   1     0.09  -0.11   0.24    -0.25  -0.07  -0.05     0.62   0.15   0.16
                     19                     20                     21
                      A                      A                      A
 Frequencies --   1340.2417              1407.4528              1438.8588
 Red. masses --      1.3859                 1.8215                 1.8552
 Frc consts  --      1.4667                 2.1259                 2.2630
 IR Inten    --     46.8191                55.3107                64.4718
  Atom  AN      X      Y      Z        X      Y      Z        X      Y      Z
     1   6     0.00  -0.00  -0.00    -0.00   0.01  -0.02     0.09  -0.02  -0.14
     2   6     0.01   0.00   0.03     0.08  -0.02   0.15    -0.07   0.03   0.04
     3   6    -0.05  -0.01   0.01    -0.14  -0.04  -0.04    -0.05  -0.01   0.01
     4   1     0.07   0.06  -0.10     0.19   0.07  -0.34    -0.24   0.09   0.43
     5   1    -0.15  -0.02  -0.18    -0.33  -0.04  -0.42    -0.05  -0.05   0.14
     6   1     0.07  -0.00   0.02     0.36   0.06  -0.05    -0.24  -0.06   0.02
     7   6    -0.01  -0.03   0.09     0.10   0.06   0.04     0.08   0.03   0.14
     8   6     0.03   0.01  -0.02     0.03   0.01  -0.05     0.03   0.03  -0.05
     9   1     0.46   0.20   0.78    -0.12  -0.12  -0.39    -0.14  -0.13  -0.25
    10   8    -0.00   0.02  -0.12    -0.03  -0.02   0.02    -0.03  -0.01  -0.06
    11   1    -0.09  -0.02   0.00    -0.28   0.17  -0.04     0.20  -0.36   0.02
    12   1    -0.08  -0.11   0.09    -0.20  -0.11  -0.06     0.11  -0.19   0.52
                     22                     23                     24
                      A                      A                      A
 Frequencies --   1495.3570              1551.1655              1614.5961
 Red. masses --      1.7197                 2.2086                 5.4014
 Frc consts  --      2.2656                 3.1311                 8.2964
 IR Inten    --      8.1125                21.7045               123.5044
  Atom  AN      X      Y      Z        X      Y      Z        X      Y      Z
     1   6    -0.06   0.00  -0.07    -0.14   0.02   0.10    -0.06  -0.01   0.31
     2   6     0.00  -0.00   0.08     0.13  -0.04   0.05    -0.11   0.03  -0.30
     3   6     0.16   0.04  -0.01     0.15   0.02  -0.06    -0.05  -0.02  -0.14
     4   1    -0.17   0.01   0.10     0.11  -0.04  -0.34     0.31  -0.07  -0.30
     5   1    -0.15   0.03  -0.15    -0.09  -0.01  -0.31     0.22   0.01   0.18
     6   1    -0.57  -0.13  -0.00    -0.25  -0.08  -0.06     0.10  -0.01  -0.16
     7   6    -0.03  -0.02   0.10    -0.02  -0.01   0.06     0.15   0.05   0.30
     8   6     0.07  -0.03   0.03    -0.12   0.06  -0.09     0.11  -0.03   0.09
     9   1    -0.15  -0.08  -0.09    -0.11  -0.07  -0.09    -0.21  -0.18  -0.37
    10   8    -0.01  -0.00  -0.06    -0.00   0.00  -0.03    -0.05  -0.01  -0.15
    11   1    -0.39   0.36   0.01     0.35  -0.39  -0.08    -0.06   0.05   0.12
    12   1    -0.21  -0.00  -0.40     0.17  -0.02   0.51    -0.07  -0.01  -0.24
                     25                     26                     27
                      A                      A                      A
 Frequencies --   3017.6774              3138.8433              3157.4812
 Red. masses --      1.0848                 1.0569                 1.0877
 Frc consts  --      5.8203                 6.1353                 6.3889
 IR Inten    --     57.1647                18.4763                 3.0543
  Atom  AN      X      Y      Z        X      Y      Z        X      Y      Z
     1   6    -0.00   0.00  -0.00    -0.00  -0.00   0.00    -0.07   0.01  -0.04
     2   6    -0.00   0.00  -0.00    -0.00   0.00   0.00     0.02  -0.01  -0.01
     3   6     0.00   0.00  -0.00     0.00   0.00  -0.00     0.00   0.00   0.01
     4   1     0.00   0.00   0.00     0.01   0.00   0.00     0.80  -0.14   0.47
     5   1     0.00  -0.00  -0.00     0.05  -0.02  -0.03    -0.22   0.12   0.15
     6   1    -0.00  -0.00   0.06     0.00   0.00  -0.00    -0.01  -0.00  -0.16
     7   6    -0.06  -0.04   0.04    -0.00  -0.00  -0.00    -0.00  -0.00   0.00
     8   6     0.00   0.00  -0.00    -0.04   0.04  -0.03    -0.00   0.00   0.00
     9   1     0.64   0.49  -0.58    -0.00   0.00   0.00     0.01   0.00  -0.00
    10   8     0.00  -0.00   0.00     0.00  -0.00   0.00    -0.00  -0.00  -0.00
    11   1    -0.00  -0.00  -0.00     0.10   0.14   0.63    -0.01  -0.01  -0.03
    12   1    -0.00  -0.00  -0.00     0.35  -0.61  -0.28     0.02  -0.03  -0.01
                     28                     29                     30
                      A                      A                      A
 Frequencies --   3181.5466              3199.0584              3222.6062
 Red. masses --      1.0930                 1.0918                 1.1175
 Frc consts  --      6.5183                 6.5830                 6.8376
 IR Inten    --      3.3763                 4.7441                 7.0240
  Atom  AN      X      Y      Z        X      Y      Z        X      Y      Z
     1   6    -0.02   0.00  -0.02    -0.02   0.00  -0.01     0.00  -0.00   0.00
     2   6    -0.06   0.03   0.04    -0.00   0.00   0.00     0.01  -0.01  -0.01
     3   6     0.00   0.00   0.01    -0.00  -0.00  -0.08    -0.00  -0.00   0.00
     4   1     0.23  -0.04   0.14     0.16  -0.03   0.09    -0.01   0.00  -0.01
     5   1     0.70  -0.37  -0.48     0.05  -0.03  -0.04    -0.15   0.08   0.10
     6   1    -0.00  -0.00  -0.13     0.02  -0.01   0.97    -0.00   0.00  -0.03
     7   6    -0.00  -0.00   0.00     0.01   0.00  -0.00    -0.00  -0.00   0.00
     8   6     0.01  -0.01  -0.01     0.00  -0.00  -0.00     0.01  -0.05  -0.08
     9   1     0.00   0.00  -0.00    -0.04  -0.03   0.03     0.00   0.00  -0.00
    10   8     0.00   0.00  -0.00     0.00  -0.00   0.00    -0.00   0.00   0.00
    11   1     0.02   0.02   0.10     0.01   0.01   0.03     0.12   0.15   0.72
    12   1    -0.08   0.13   0.06    -0.02   0.03   0.01    -0.30   0.51   0.21

 -------------------
 - Thermochemistry -
 -------------------
 Temperature   298.150 Kelvin.  Pressure   1.00000 Atm.
 Atom     1 has atomic number  6 and mass  12.00000
 Atom     2 has atomic number  6 and mass  12.00000
 Atom     3 has atomic number  6 and mass  12.00000
 Atom     4 has atomic number  1 and mass   1.00783
 Atom     5 has atomic number  1 and mass   1.00783
 Atom     6 has atomic number  1 and mass   1.00783
 Atom     7 has atomic number  6 and mass  12.00000
 Atom     8 has atomic number  6 and mass  12.00000
 Atom     9 has atomic number  1 and mass   1.00783
 Atom    10 has atomic number  8 and mass  15.99491
 Atom    11 has atomic number  1 and mass   1.00783
 Atom    12 has atomic number  1 and mass   1.00783
 Molecular mass:    82.04186 amu.
 Principal axes and moments of inertia in atomic units:
                           1         2         3
     Eigenvalues --   324.83235 385.99024 664.66413
           X            0.93079   0.30883  -0.19561
           Y            0.22274  -0.05481   0.97334
           Z           -0.28987   0.94954   0.11981
 This molecule is an asymmetric top.
 Rotational symmetry number  1.
 Rotational temperatures (Kelvin)      0.26664     0.22439     0.13031
 Rotational constants (GHZ):           5.55592     4.67561     2.71527
    1 imaginary frequencies ignored.
 Zero-point vibrational energy     251052.6 (Joules/Mol)
                                   60.00301 (Kcal/Mol)
 Warning -- explicit consideration of   5 degrees of freedom as
           vibrations may cause significant error
 Vibrational temperatures:    354.60   538.16   607.69   823.76   849.49
          (Kelvin)           1042.31  1141.25  1271.47  1366.35  1382.01
                             1412.66  1466.59  1501.62  1583.91  1609.22
                             1698.34  1792.45  1928.31  2025.01  2070.20
                             2151.49  2231.78  2323.04  4341.76  4516.10
                             4542.91  4577.54  4602.73  4636.61
 
 Zero-point correction=                           0.095621 (Hartree/Particle)
 Thermal correction to Energy=                    0.100458
 Thermal correction to Enthalpy=                  0.101402
 Thermal correction to Gibbs Free Energy=         0.067604
 Sum of electronic and zero-point Energies=           -269.300408
 Sum of electronic and thermal Energies=              -269.295571
 Sum of electronic and thermal Enthalpies=            -269.294627
 Sum of electronic and thermal Free Energies=         -269.328425
 
                     E (Thermal)             CV                S
                      KCal/Mol        Cal/Mol-Kelvin    Cal/Mol-Kelvin
 Total                   63.038             18.185             71.135
 Electronic               0.000              0.000              0.000
 Translational            0.889              2.981             39.128
 Rotational               0.889              2.981             25.925
 Vibrational             61.261             12.223              6.082
 Vibration     1          0.661              1.769              1.756
 Vibration     2          0.745              1.525              1.063
 Vibration     3          0.785              1.422              0.884
 Vibration     4          0.929              1.091              0.499
 Vibration     5          0.948              1.052              0.466
                       Q            Log10(Q)             Ln(Q)
 Total Bot       0.802320D-31        -31.095653        -71.600386
 Total V=0       0.770664D+13         12.886865         29.673103
 Vib (Bot)       0.265813D-43        -43.575424       -100.336122
 Vib (Bot)    1  0.793222D+00         -0.100605         -0.231653
 Vib (Bot)    2  0.485391D+00         -0.313908         -0.722801
 Vib (Bot)    3  0.414975D+00         -0.381978         -0.879537
 Vib (Bot)    4  0.268133D+00         -0.571649         -1.316271
 Vib (Bot)    5  0.255388D+00         -0.592799         -1.364971
 Vib (V=0)       0.255325D+01          0.407093          0.937367
 Vib (V=0)    1  0.143766D+01          0.157655          0.363015
 Vib (V=0)    2  0.119685D+01          0.078041          0.179696
 Vib (V=0)    3  0.114977D+01          0.060612          0.139564
 Vib (V=0)    4  0.106736D+01          0.028310          0.065187
 Vib (V=0)    5  0.106145D+01          0.025898          0.059633
 Electronic      0.100000D+01          0.000000          0.000000
 Translational   0.292084D+08          7.465507         17.189966
 Rotational      0.103339D+06          5.014265         11.545771
 -------------------------------------------------------------------
 Center     Atomic                   Forces (Hartrees/Bohr)
 Number     Number              X              Y              Z
 -------------------------------------------------------------------
      1        6           0.000059492   -0.001977662   -0.000010580
      2        6          -0.000058610    0.000909458    0.000012109
      3        6          -0.000007801    0.001076160   -0.000007674
      4        1          -0.000001463   -0.000004157   -0.000000148
      5        1          -0.000004417   -0.000000636   -0.000001916
      6        1          -0.000001893   -0.000003961   -0.000001205
      7        6           0.000010007    0.000026563   -0.000027148
      8        6           0.000001559   -0.000000178    0.000010972
      9        1           0.000003631   -0.000000606   -0.000005465
     10        8          -0.000002803   -0.000029183    0.000032134
     11        1           0.000000224    0.000002264    0.000000364
     12        1           0.000002073    0.000001937   -0.000001442
 -------------------------------------------------------------------
 Cartesian Forces:  Max     0.001977662 RMS     0.000405086
 -----------------------------------------------------------------------------------------------
                       Internal Coordinate Forces (Hartree/Bohr or radian)
  Cent   Atom   N1       Length/X         N2         Alpha/Y        N3         Beta/Z          J
 -----------------------------------------------------------------------------------------------
      1  C 
      2  C        1   0.000020(     1)
      3  C        1   0.000006(     2)      2   0.000017(    12)
      4  H        1   0.000001(     3)      2  -0.000000(    13)      3  -0.000008(    22)     0
      5  H        2   0.000002(     4)      1  -0.000007(    14)      3   0.000022(    23)     0
      6  H        3   0.000001(     5)      1  -0.000004(    15)      2   0.000069(    24)     0
      7  C        3   0.000008(     6)      1  -0.000007(    16)      6   0.000076(    25)     0
      8  C        2   0.000006(     7)      1   0.000021(    17)      5   0.000018(    26)     0
      9  H        7   0.000005(     8)      3  -0.000004(    18)      1   0.000037(    27)     0
     10  O        7   0.000030(     9)      3  -0.000052(    19)      9   0.000043(    28)     0
     11  H        8   0.000001(    10)      2  -0.000002(    20)      1   0.000002(    29)     0
     12  H        8  -0.000000(    11)      2   0.000001(    21)     11   0.000006(    30)     0
 -----------------------------------------------------------------------------------------------
 Internal  Forces:  Max     0.000076353 RMS     0.000025638

 GradGradGradGradGradGradGradGradGradGradGradGradGradGradGradGradGradGrad
 Berny optimization.
 Search for a saddle point.
 Step number   1 out of a maximum of    2
 All quantities printed in internal units (Hartrees-Bohrs-Radians)
 Swapping is turned off.
 Second derivative matrix not updated -- analytic derivatives used.
 ITU=  0
[...]
                          A7        A3        D12       R8        R10
   1                    0.47377   0.42459   0.28813  -0.27461  -0.26567
                          A10       A8        R7        D11       R2
   1                    0.25806   0.24810   0.23087   0.21747   0.18809
 Angle between quadratic step and forces=  59.17 degrees.
 Linear search not attempted -- option 19 set.
 Variable       Old X    -DE/DX   Delta X   Delta X   Delta X     New X
                                 (Linear)    (Quad)   (Total)
    R2        2.61497   0.00002   0.00000   0.00004   0.00004   2.61501
    R3        2.65349   0.00001   0.00000  -0.00000  -0.00000   2.65349
    R4        2.05047   0.00000   0.00000   0.00000   0.00000   2.05047
    R5        2.04572   0.00000   0.00000   0.00001   0.00001   2.04573
    R6        2.04308   0.00000   0.00000   0.00000   0.00000   2.04308
    R7        2.65282   0.00001   0.00000   0.00002   0.00002   2.65284
    R8        2.63455   0.00001   0.00000   0.00002   0.00002   2.63456
    R9        2.07343   0.00001   0.00000   0.00001   0.00001   2.07344
   R10        2.39418   0.00003   0.00000   0.00005   0.00005   2.39423
   R11        2.04639   0.00000   0.00000   0.00001   0.00001   2.04639
   R12        2.04362  -0.00000   0.00000  -0.00001  -0.00001   2.04361
    A3        2.10467   0.00002   0.00000   0.00005   0.00005   2.10472
    A4        2.10068  -0.00000   0.00000  -0.00004  -0.00004   2.10065
    A5        2.11567  -0.00001   0.00000  -0.00007  -0.00007   2.11561
    A6        2.08869  -0.00000   0.00000  -0.00002  -0.00002   2.08867
    A7        2.07827  -0.00001   0.00000   0.00006   0.00006   2.07832
    A8        2.04239   0.00002   0.00000   0.00008   0.00008   2.04247
    A9        2.01865  -0.00000   0.00000   0.00005   0.00005   2.01870
   A10        2.24154  -0.00005   0.00000  -0.00008  -0.00008   2.24146
   A11        2.10571  -0.00000   0.00000  -0.00002  -0.00002   2.10569
   A12        2.06402   0.00000   0.00000   0.00002   0.00002   2.06404
    D4       -2.96807  -0.00001   0.00000   0.00009   0.00009  -2.96797
    D5        2.65373   0.00002   0.00000  -0.00016  -0.00016   2.65357
    D6       -3.12495   0.00007   0.00000   0.00018   0.00018  -3.12477
    D7        2.71467   0.00008   0.00000   0.00027   0.00027   2.71494
    D8       -3.00435   0.00002   0.00000  -0.00017  -0.00017  -3.00453
    D9       -2.51647   0.00004   0.00000  -0.00014  -0.00014  -2.51661
   D10        2.99143   0.00004   0.00000   0.00017   0.00017   2.99159
   D11        2.86699   0.00000   0.00000  -0.00006  -0.00006   2.86693
   D12        2.64070   0.00001   0.00000  -0.00002  -0.00002   2.64068
         Item               Value     Threshold  Converged?
 Maximum Force            0.000076     0.000450     YES
 RMS     Force            0.000026     0.000300     YES
 Maximum Displacement     0.000272     0.001800     YES
 RMS     Displacement     0.000092     0.001200     YES
 Predicted change in Energy=-1.818636D-08
 Optimization completed.
    -- Stationary point found.
                       ----------------------------
                       !   Optimized Parameters   !
                       ! (Angstroms and Degrees)  !
 ----------------------                            ----------------------
 !      Name          Value   Derivative information (Atomic Units)     !
 ------------------------------------------------------------------------
 !       R2          1.3838   -DE/DX =    0.0                           !
 !       R3          1.4042   -DE/DX =    0.0                           !
 !       R4          1.0851   -DE/DX =    0.0                           !
 !       R5          1.0825   -DE/DX =    0.0                           !
 !       R6          1.0811   -DE/DX =    0.0                           !
 !       R7          1.4038   -DE/DX =    0.0                           !
 !       R8          1.3941   -DE/DX =    0.0                           !
 !       R9          1.0972   -DE/DX =    0.0                           !
 !       R10         1.2669   -DE/DX =    0.0                           !
 !       R11         1.0829   -DE/DX =    0.0                           !
 !       R12         1.0814   -DE/DX =    0.0                           !
 !       A3        120.5887   -DE/DX =    0.0                           !
 !       A4        120.3604   -DE/DX =    0.0                           !
 !       A5        121.2192   -DE/DX =    0.0                           !
 !       A6        119.6731   -DE/DX =    0.0                           !
 !       A7        119.076    -DE/DX =    0.0                           !
 !       A8        117.0206   -DE/DX =    0.0                           !
 !       A9        115.66     -DE/DX =    0.0                           !
 !       A10       128.4306   -DE/DX =   -0.0001                        !
 !       A11       120.6483   -DE/DX =    0.0                           !
 !       A12       118.2595   -DE/DX =    0.0                           !
 !       D4       -170.0578   -DE/DX =    0.0                           !
 !       D5        152.0474   -DE/DX =    0.0                           !
 !       D6       -179.0464   -DE/DX =    0.0001                        !
 !       D7        155.5389   -DE/DX =    0.0001                        !
 !       D8       -172.1367   -DE/DX =    0.0                           !
 !       D9       -144.183    -DE/DX =    0.0                           !
 !       D10       171.3962   -DE/DX =    0.0                           !
 !       D11       164.2663   -DE/DX =    0.0                           !
 !       D12       151.3008   -DE/DX =    0.0                           !
 ------------------------------------------------------------------------
 GradGradGradGradGradGradGradGradGradGradGradGradGradGradGradGradGradGrad


 ----------------------------------------------------------------------

 Electric dipole moment (input orientation):
 (Debye = 10**-18 statcoulomb cm , SI units = C m)
                  (au)            (Debye)         (10**-30 SI)
   Tot        0.892618D+00      0.226881D+01      0.756793D+01
   x         -0.780780D+00     -0.198455D+01     -0.661973D+01
   y         -0.301940D+00     -0.767454D+00     -0.255995D+01
   z         -0.309809D+00     -0.787456D+00     -0.262667D+01

 Dipole polarizability, Alpha (input orientation).
 (esu units = cm**3 , SI units = C**2 m**2 J**-1)
 Alpha(0;0):
               (au)            (10**-24 esu)      (10**-40 SI)
   iso        0.650734D+02      0.964289D+01      0.107292D+02
   aniso      0.358965D+02      0.531932D+01      0.591854D+01
   xx         0.741769D+02      0.109919D+02      0.122301D+02
   yx         0.559081D+01      0.828473D+00      0.921800D+00
   yy         0.435379D+02      0.645165D+01      0.717843D+01
   zx        -0.477670D+01     -0.707833D+00     -0.787571D+00
   zy        -0.498415D+01     -0.738575D+00     -0.821775D+00
   zz         0.775055D+02      0.114851D+02      0.127789D+02

 ----------------------------------------------------------------------

 Dipole orientation:
     6          0.00000000          0.00000000         -0.00000000
     6         -2.28733911          0.88454943         -0.90760303
     6          2.16794492          0.04497265         -1.52938503
     1          0.08655298         -1.01287779          1.78073523
     1         -4.06257138          0.15338149         -0.20125692
     1          3.93408681         -0.68014255         -0.80198535
     6          1.88459982          0.07732988         -4.16683336
     6         -2.20496331          2.51123010         -2.97834236
     1          3.30773531         -0.98614493         -5.23585901
     8          0.05775196          0.93199296         -5.45690280
     1         -3.89088102          2.89093869         -4.07433729
     1         -0.81918506          4.01322024         -2.97434710

 Electric dipole moment (dipole orientation):
 (Debye = 10**-18 statcoulomb cm , SI units = C m)
                  (au)            (Debye)         (10**-30 SI)
   Tot        0.892618D+00      0.226881D+01      0.756793D+01
   x          0.000000D+00      0.000000D+00      0.000000D+00
   y          0.000000D+00      0.000000D+00      0.000000D+00
   z          0.892618D+00      0.226881D+01      0.756793D+01

 Dipole polarizability, Alpha (dipole orientation).
 (esu units = cm**3 , SI units = C**2 m**2 J**-1)
 Alpha(0;0):
               (au)            (10**-24 esu)      (10**-40 SI)
   iso        0.650734D+02      0.964289D+01      0.107292D+02
   aniso      0.358965D+02      0.531932D+01      0.591854D+01
   xx         0.758794D+02      0.112442D+02      0.125108D+02
   yx        -0.130223D+02     -0.192970D+01     -0.214708D+01
   yy         0.490310D+02      0.726564D+01      0.808412D+01
   zx        -0.580191D+01     -0.859754D+00     -0.956606D+00
   zy        -0.505013D+01     -0.748353D+00     -0.832655D+00
   zz         0.703099D+02      0.104188D+02      0.115925D+02

 ----------------------------------------------------------------------
 1\1\GINC-BHC0034\Freq\RB3LYP\def2TZVP\C5H6O1\DHANAWAY\10-Jun-2022\1\\#
 N Geom=AllCheck Guess=TCheck SCRF=Check GenChk RB3LYP/def2TZVP Freq\\t
 s_zmat_initalOpt\\0,1\C\C,1,R2\C,1,R3,2,A3\H,1,R4,2,A4,3,D4,0\H,2,R5,1
 ,A5,3,D5,0\H,3,R6,1,A6,2,D6,0\C,3,R7,1,A7,6,D7,0\C,2,R8,1,A8,5,D8,0\H,
 7,R9,3,A9,1,D9,0\O,7,R10,3,A10,9,D10,0\H,8,R11,2,A11,1,D11,0\H,8,R12,2
 ,A12,11,D12,0\\R2=1.38378487\R3=1.40416814\R4=1.08506246\R5=1.08254979
 \R6=1.08114926\R7=1.403813\R8=1.39414216\R9=1.09721154\R10=1.26694587\
 R11=1.08290166\R12=1.08143571\A3=120.58872875\A4=120.36036496\A5=121.2
 1916369\A6=119.67310844\A7=119.07595534\A8=117.02056506\A9=115.6599502
 2\A10=128.4305848\A11=120.64827134\A12=118.25947256\D4=-170.05775873\D
 5=152.04738216\D6=-179.0463915\D7=155.53891467\D8=-172.13670605\D9=-14
 4.18298397\D10=171.39620266\D11=164.26625722\D12=151.30079977\\Version
 =ES64L-G16RevA.03\HF=-269.3960293\RMSD=2.665e-09\RMSF=4.051e-04\ZeroPo
 int=0.0956209\Thermal=0.1004582\Dipole=-0.7807803,-0.3019398,-0.309809
 2\DipoleDeriv=0.4137134,0.0420841,-0.2941097,0.1364598,-0.0208965,-0.0
 814351,-0.2703001,-0.1845935,0.7245249,-0.1755649,-0.0867942,-0.321672
 7,-0.1056356,-0.2420852,0.2130495,0.0464032,0.1709331,-0.7976601,-0.73
 98411,-0.1840396,0.4283134,-0.1779136,-0.38994,0.0516543,-0.0329073,0.
 0287821,-0.0783661,-0.0217152,0.0133511,-0.0480967,-0.0055025,0.111707
 6,0.0814196,-0.0521705,0.0135916,0.061385,0.0191842,0.0715432,0.006561
 2,0.1034314,0.1305166,-0.133014,0.0474262,-0.028552,0.0323886,0.067870
 5,-0.0221248,0.0185135,-0.0431655,0.1578325,0.0640288,0.0144412,0.0017
 41,-0.0629244,0.6600905,0.306463,-0.008542,0.3290107,0.2565548,-0.0887
 141,0.6525824,0.187612,0.325911,0.5018074,0.0224977,0.5428341,0.092701
 4,0.2615653,-0.0350442,-0.0482199,-0.0414559,0.3435523,-0.0269862,-0.0
 873621,0.1411955,-0.0982284,0.0396917,0.0189942,0.1539627,0.0856382,-0
 .0434084,-0.778401,-0.1163939,-0.4244352,-0.2240611,-0.3695096,-0.0609
 579,-0.5178975,-0.1547552,-0.4560403,0.0764087,-0.0089278,0.0272026,-0
 .0060525,0.0691947,0.0031737,-0.0335673,-0.00195,-0.106279,0.0034338,0
 .0497033,-0.0677639,-0.001044,-0.004632,-0.0331548,0.0402471,-0.076991
 6,0.0569165\Polar=74.176881,5.5908107,43.5378789,-4.776695,-4.9841483,
 77.5055221\PG=C01 [X(C5H6O1)]\NImag=1\\0.66847103,-0.05395725,0.161357
 17,0.04133988,-0.02392045,0.68161924,-0.11446808,0.01952102,0.02754719
 ,0.60284727,0.02094990,-0.06973424,-0.01538231,-0.20695108,0.21377059,
 -0.02841941,0.00879750,-0.33957623,-0.03228713,0.03618178,0.66372552,-
 0.25691657,0.01901531,0.03929337,0.03130299,-0.01402268,0.07583581,0.5
 7256385,0.00275737,-0.05279323,-0.00239736,0.00532476,0.00640596,0.005
 79176,0.09575813,0.14689612,0.11009677,-0.00396202,-0.16694434,0.03033
 323,-0.00401661,-0.03227577,-0.01245356,0.03894134,0.70540597,-0.25433
 110,0.03719255,-0.11918179,0.00558051,-0.00047081,0.00242505,-0.022177
 88,0.00316565,-0.01256329,0.26983736,0.04393644,-0.05007732,0.01065478
 ,0.00486022,0.00573713,0.00646763,-0.01017812,0.00478155,0.00725870,-0
 .04042250,0.03291943,-0.11600636,0.01907921,-0.13086481,-0.02652191,0.
 00711047,-0.00809056,0.01448425,-0.00190883,0.01151642,0.12618037,-0.0
 2468460,0.13379960,0.00267814,-0.00093152,0.00356345,-0.21529813,0.091
 82968,0.10232395,0.00504141,0.00342324,-0.00069345,0.00023715,-0.00165
 651,0.00073748,0.22246074,-0.00340163,0.00091406,0.01250667,0.08797265
 ,-0.07231532,-0.07666677,0.00784970,0.00600321,-0.00047568,-0.00026135
 ,-0.00270426,0.00049094,-0.10322977,0.07377474,0.02674579,-0.01224753,
 -0.01337302,0.10719508,-0.06438753,-0.12882706,-0.00266563,-0.00059203
 ,-0.00467499,-0.00034469,0.00084325,0.00103418,-0.11696858,0.06561544,
 0.13660316,0.00368864,-0.00130464,0.02960221,-0.00398571,0.00024154,0.
 00248364,-0.05467809,-0.00705625,-0.00581537,0.00119510,0.00016232,-0.
 00039502,0.00010495,-0.00000957,0.00119112,0.05754746,0.00072997,-0.00
 060731,0.00280480,-0.00140886,0.00634187,-0.00069272,-0.00639256,-0.02
 921983,0.01080212,-0.00085360,-0.00333699,-0.00066538,0.00028686,0.000
 94445,0.00093769,0.00746605,0.02530944,-0.00196431,0.00109232,-0.01188
 948,0.00263781,-0.00056130,0.00089955,-0.00623595,0.00110149,-0.340395
 08,0.00014244,-0.00024331,0.00078344,-0.00012394,0.00018562,-0.0005719
 9,0.00497125,-0.00262135,0.36022048,-0.06372136,-0.01539689,0.04366038
 ,-0.02493367,0.00772398,-0.04073342,-0.20931453,-0.06659155,-0.0845923
 3,-0.00104799,0.00401853,0.00309505,-0.00203464,-0.00463404,-0.0004021
 5,0.00177368,0.00081438,0.00303561,0.53438586,-0.00667740,-0.00052241,
 0.01164935,-0.00738670,0.00241318,-0.01243428,-0.08521418,-0.09363314,
 -0.03964044,0.00311118,0.00747983,0.00032237,-0.00090327,-0.00235781,-
 0.00034947,0.00459580,-0.00401477,0.00327431,0.19019624,0.28335399,-0.
 02622833,-0.00546939,0.07934423,-0.03660367,0.01661170,-0.06565334,0.0
 0306387,-0.00043701,-0.14935781,0.00480911,0.00309771,-0.00091344,-0.0
 0463510,-0.00861277,-0.00074999,-0.02964473,-0.01009642,-0.01076457,0.
 01108037,-0.05456357,0.67744240,0.02550443,-0.00479876,-0.08768891,-0.
 23054047,0.08007090,-0.03631084,-0.07392296,-0.01522164,0.00567005,-0.
 00037179,-0.00427269,-0.00159797,-0.01036833,0.01901987,-0.01309663,-0
 .00256352,0.00044222,-0.00061108,0.05998198,0.01990212,0.11020361,0.35
 287262,0.00697795,0.00489352,-0.01396910,0.10992998,-0.10738784,0.0505
 8807,-0.01575769,-0.00837176,-0.00334084,-0.00009008,0.00502796,-0.001
 93968,0.01233350,-0.00167513,0.00898586,-0.00051568,-0.00071227,-0.000
 40507,0.01164964,0.00503778,0.03157879,-0.25521575,0.41241671,-0.03767
 135,0.01160158,-0.02204577,-0.11634730,0.03369418,-0.16425827,0.006891
 45,0.00336635,0.00045942,0.00061413,0.00265331,-0.00622290,0.01362646,
 -0.00397252,0.00980462,0.00042509,-0.00105446,0.00046383,0.00370556,0.
 00476901,-0.03249105,0.15871269,0.11146412,0.61990624,0.00071022,-0.00
 466798,-0.00507082,0.00289792,-0.00008054,0.00194509,-0.01864391,-0.01
 605508,0.01404757,-0.00005146,0.00106899,0.00023520,0.00026397,0.00072
 586,0.00004481,-0.00001804,0.00169237,-0.00047270,-0.15268222,-0.08503
 492,0.08836912,-0.00147460,-0.00179085,0.00034805,0.15843239,-0.005176
 06,0.00437396,-0.00162174,-0.00300500,-0.00044060,-0.00201115,-0.00571
 687,0.00150458,0.01168272,-0.00136784,0.00071205,0.00125266,-0.0003268
 1,-0.00084471,0.00007983,0.00091238,-0.00202491,-0.00028587,-0.0933004
 7,-0.11545505,0.05655481,0.00340375,0.00477674,-0.00210419,0.10035769,
 0.09857661,-0.00045863,-0.00077135,-0.00368958,0.00268161,-0.00072428,
 0.00429059,-0.01242198,-0.00403500,0.00816195,-0.00042342,-0.00016777,
 0.00018006,0.00033150,0.00062674,0.00012326,0.00035034,-0.00063659,0.0
 0078216,0.09544498,0.06414296,-0.11431852,-0.01164490,-0.00344538,0.00
 155487,-0.09595618,-0.07739394,0.15319284,-0.00402701,0.00347431,0.022
 41308,-0.04075374,0.00120617,-0.02156063,0.02180616,-0.00668156,-0.043
 82053,0.00088748,0.00286830,0.00083311,-0.00225991,-0.00602052,-0.0001
 4544,-0.00331119,-0.00276531,-0.00136657,-0.13587060,-0.02953027,-0.11
 341985,0.03146111,0.01774231,-0.02866640,0.01085778,0.00347827,0.02061
 311,0.12706509,-0.00763745,-0.00214401,0.01705137,-0.01428803,0.009083
 38,-0.01731608,0.01156212,0.01818262,-0.01755682,0.00002425,-0.0002334
 8,0.00022034,-0.00015525,-0.00058768,-0.00011411,-0.00455095,0.0073270
 2,-0.00155365,-0.02772743,-0.07877259,-0.02327155,0.03040819,-0.020955
 83,-0.00991232,0.00373056,0.00842395,0.02069995,0.02790882,0.07483376,
 0.03685221,0.00432320,-0.07005614,0.04471355,-0.01398437,0.06543319,-0
 .10193203,-0.03740903,-0.03378811,-0.00199937,-0.00616829,-0.00074473,
 0.00378193,0.00902655,0.00084131,-0.00320138,0.00162114,0.00051399,-0.
 03948465,0.01973553,-0.38879146,-0.11280109,-0.02783628,0.00480082,-0.
 00377451,0.01463532,-0.04956402,0.15942004,0.01746552,0.47927773,-0.00
 275691,0.00372518,-0.00439829,0.00675215,-0.00366150,-0.02417630,-0.00
 180730,0.00011875,0.00009184,0.00005258,-0.00066698,-0.00142208,0.0004
 7060,-0.00191748,0.00075777,0.00007196,-0.00008203,-0.00003332,-0.0016
 8263,-0.00013199,0.00198724,-0.06118956,-0.00318417,-0.04117371,-0.000
 19625,0.00012190,0.00030264,0.00330107,0.00164396,0.00516837,0.0521343
 3,0.00487196,0.00355277,-0.00209266,0.00404396,0.00551375,0.01373408,-
 0.00137621,0.00036954,-0.00023322,-0.00012148,-0.00089919,0.00051129,-
 0.00128347,-0.00203291,-0.00015892,-0.00000423,-0.00007415,-0.00001998
 ,-0.00233717,-0.00036224,0.00160209,-0.00392010,-0.06100171,-0.0605370
 8,-0.00030175,0.00040174,0.00050095,0.00320984,0.00010184,0.00568508,0
 .00042731,0.05326315,-0.00480212,-0.00137172,0.00111941,0.00019045,-0.
 00436973,-0.00950653,0.00076249,-0.00016835,0.00065744,0.00033600,0.00
 089429,-0.00062878,0.00025395,0.00159863,0.00064696,0.00003298,0.00010
 163,-0.00004419,0.00000485,-0.00057621,-0.00116194,-0.04347142,-0.0588
 6863,-0.32074564,0.00007926,-0.00007309,-0.00002214,-0.00081120,0.0002
 4501,0.00021088,0.05038132,0.06382758,0.33635607,-0.00483143,-0.001871
 33,0.00892025,-0.01940103,0.02316443,-0.00152580,0.00674683,0.00105817
 ,-0.00030091,0.00019005,0.00028199,0.00037789,-0.00129595,0.00390628,-
 0.00231145,0.00017477,0.00007051,0.00002077,-0.00485389,-0.00292660,-0
 .00898166,-0.08938892,0.11792084,0.03953532,-0.00009582,0.00061907,0.0
 0118093,-0.00915624,-0.02091879,0.01325692,0.00484996,-0.00320866,-0.0
 0295658,0.11706166,-0.00337380,0.00078704,0.00471666,0.00138708,0.0006
 1215,-0.01243982,0.00447304,-0.00012560,0.00054075,0.00009403,0.000593
 29,0.00021122,0.00061332,0.00088137,0.00138751,0.00006323,0.00006744,0
 .00003679,-0.00441523,-0.00316676,-0.00699440,0.13018191,-0.23204818,-
 0.08996797,0.00035565,-0.00000435,0.00120372,-0.01489037,-0.01525898,0
 .01290564,0.00360706,0.00116739,-0.00123942,-0.11809591,0.24649520,0.0
 0051585,0.00284864,-0.00364351,-0.00353892,0.00982800,0.01383890,-0.00
 462208,-0.00225333,0.00123490,0.00000544,-0.00060570,0.00015153,-0.002
 19767,-0.00032283,-0.00085644,-0.00000013,-0.00050045,0.00000185,0.005
 18576,0.00367044,0.00741548,0.03263649,-0.09281186,-0.09122618,0.00020
 512,-0.00071537,-0.00069147,0.00651129,0.01404235,-0.00813346,0.012514
 51,-0.02281921,-0.00688153,-0.04721568,0.08963933,0.08878994\\-0.00005
 949,0.00197766,0.00001058,0.00005861,-0.00090946,-0.00001211,0.0000078
 0,-0.00107616,0.00000767,0.00000146,0.00000416,0.00000015,0.00000442,0
 .00000064,0.00000192,0.00000189,0.00000396,0.00000121,-0.00001001,-0.0
 0002656,0.00002715,-0.00000156,0.00000018,-0.00001097,-0.00000363,0.00
 000061,0.00000547,0.00000280,0.00002918,-0.00003213,-0.00000022,-0.000
 00226,-0.00000036,-0.00000207,-0.00000194,0.00000144\\\@


 EDUCATION WITHOUT COMMON SENSE IS A LOAD OF BOOKS ON THE BACK OF AN ASS.
 Job cpu time:       0 days  0 hours 34 minutes  0.9 seconds.
 Elapsed time:       0 days  0 hours  3 minutes 25.8 seconds.
 File lengths (MBytes):  RWF=     54 Int=      0 D2E=      0 Chk=     32 Scr=      1
 Normal termination of Gaussian 16 at Fri Jun 10 11:47:11 2022.
