 Entering Gaussian System, Link 0=g16
 Input=ts_initalOpt_zmat_sp.gjf
 Output=ts_initalOpt_zmat_sp.out
 Initial command:
 /software/gaussian/g16-a03/l1.exe "/local_scratch/11171780/Gau-13388.inp" -scrdir="/local_scratch/11171780/"
 Entering Link 1 = /software/gaussian/g16-a03/l1.exe PID=     13389.
  
 Copyright (c) 1988,1990,1992,1993,1995,1998,2003,2009,2016,
            Gaussian, Inc.  All Rights Reserved.
  
 This is part of the Gaussian(R) 16 program.  It is based on
 the Gaussian(R) 09 system (copyright 2009, Gaussian, Inc.),
 the Gaussian(R) 03 system (copyright 2003, Gaussian, Inc.),
 the Gaussian(R) 98 system (copyright 1998, Gaussian, Inc.),
 the Gaussian(R) 94 system (copyright 1995, Gaussian, Inc.),
 the Gaussian 92(TM) system (copyright 1992, Gaussian, Inc.),
 the Gaussian 90(TM) system (copyright 1990, Gaussian, Inc.),
 the Gaussian 88(TM) system (copyright 1988, Gaussian, Inc.),
 the Gaussian 86(TM) system (copyright 1986, Carnegie Mellon
 University), and the Gaussian 82(TM) system (copyright 1983,
 Carnegie Mellon University). Gaussian is a federally registered
 trademark of Gaussian, Inc.
  
 This software contains proprietary and confidential information,
 including trade secrets, belonging to Gaussian, Inc.
  
 This software is provided under written license and may be
 used, copied, transmitted, or stored only in accord with that
 written license.
  
 The following legend is applicable only to US Government
 contracts under FAR:
  
                    RESTRICTED RIGHTS LEGEND
  
 Use, reproduction and disclosure by the US Government is
 subject to restrictions as set forth in subparagraphs (a)
 and (c) of the Commercial Computer Software - Restricted
 Rights clause in FAR 52.227-19.
  
 Gaussian, Inc.
 340 Quinnipiac St., Bldg. 40, Wallingford CT 06492
  
  
 ---------------------------------------------------------------
 Warning -- This program may not be used in any manner that
 competes with the business of Gaussian, Inc. or will provide
 assistance to any competitor of Gaussian, Inc.  The licensee
 of this program is prohibited from giving any competitor of
 Gaussian, Inc. access to this program.  By using this program,
 the user acknowledges that Gaussian, Inc. is engaged in the
 business of creating and licensing software in the field of
 computational chemistry and represents and warrants to the
 licensee that it is not a competitor of Gaussian, Inc. and that
 it will not use this program in any manner prohibited above.
 ---------------------------------------------------------------
  

 Cite this work as:
 Gaussian 16, Revision A.03,
 M. J. Frisch, G. W. Trucks, H. B. Schlegel, G. E. Scuseria, 
 M. A. Robb, J. R. Cheeseman, G. Scalmani, V. Barone, 
 G. A. Petersson, H. Nakatsuji, X. Li, M. Caricato, A. V. Marenich, 
 J. Bloino, B. G. Janesko, R. Gomperts, B. Mennucci, H. P. Hratchian, 
 J. V. Ortiz, A. F. Izmaylov, J. L. Sonnenberg, D. Williams-Young, 
 F. Ding, F. Lipparini, F. Egidi, J. Goings, B. Peng, A. Petrone, 
 T. Henderson, D. Ranasinghe, V. G. Zakrzewski, J. Gao, N. Rega, 
 G. Zheng, W. Liang, M. Hada, M. Ehara, K. Toyota, R. Fukuda, 
 J. Hasegawa, M. Ishida, T. Nakajima, Y. Honda, O. Kitao, H. Nakai, 
 T. Vreven, K. Throssell, J. A. Montgomery, Jr., J. E. Peralta, 
 F. Ogliaro, M. J. Bearpark, J. J. Heyd, E. N. Brothers, K. N. Kudin, 
 V. N. Staroverov, T. A. Keith, R. Kobayashi, J. Normand, 
 K. Raghavachari, A. P. Rendell, J. C. Burant, S. S. Iyengar, 
 J. Tomasi, M. Cossi, J. M. Millam, M. Klene, C. Adamo, R. Cammi, 
 J. W. Ochterski, R. L. Martin, K. Morokuma, O. Farkas, 
 J. B. Foresman, and D. J. Fox, Gaussian, Inc., Wallingford CT, 2016.
 
 ******************************************
 Gaussian 16:  ES64L-G16RevA.03 25-Dec-2016
                10-Jun-2022 
 ******************************************
 %nprocshared=12
 Will use up to   12 processors via shared memory.
 %chk=checkpoint.chk
 %mem=12GB
 --------------------------
 # sp B3LYP/Def2TZVP NoSymm
 --------------------------
 1/38=1,172=1/1;
 2/12=2,15=1,17=6,18=5,40=1/2;
 3/5=44,7=101,11=2,25=1,30=1,74=-5/1,2,3;
 4//1;
 5/5=2,38=5/2;
 6/7=2,8=2,9=2,10=2,28=1/1;
 99/5=1,9=1/99;
 ---------------------------
 ts_initalOpt_zmat_AlignedSp
 ---------------------------
 Symbolic Z-matrix:
 Charge =  0 Multiplicity = 1
 C
 C                    1    R2
 C                    1    R3       2    A3
 N                    1    R4       2    A4       3    D4       0
 C                    3    R5       1    A5       2    D5       0
 H                    2    R6       1    A6       3    D6       0
 H                    3    R7       1    A7       5    D7       0
 C                    2    R8       1    A8       6    D8       0
 C                    4    R9       1    A9       2    D9       0
 H                    4    R10      1    A10      9    D10      0
 C                    5    R11      3    A11      1    D11      0
 H                    5    R12      3    A12      11   D12      0
 H                    8    R13      2    A13      1    D13      0
 H                    9    R14      4    A14      1    D14      0
 C                    11   R15      5    A15      3    D15      0
 H                    11   R16      5    A16      15   D16      0
 O                    15   R17      11   A17      5    D17      0
       Variables:
  R2                    1.41561                  
  R3                    1.41638                  
  R4                    1.36115                  
  R5                    1.36916                  
  R6                    1.08329                  
  R7                    1.08165                  
  R8                    1.44402                  
  R9                    1.39127                  
  R10                   1.00598                  
  R11                   1.4159                   
  R12                   1.08422                  
  R13                   1.07683                  
  R14                   1.07689                  
  R15                   1.37596                  
  R16                   1.08553                  
  R17                   1.17946                  
  A3                  125.33964                  
  A4                  107.11247                  
  A5                  117.95383                  
  A6                  120.20679                  
  A7                  121.07605                  
  A8                  106.66957                  
  A9                  110.16664                  
  A10                 124.18827                  
  A11                 127.53786                  
  A12                 117.24586                  
  A13                 126.47033                  
  A14                 120.52344                  
  A15                 127.71795                  
  A16                 118.21837                  
  A17                 144.62153                  
  D4                 -171.07877                  
  D5                  -26.65023                  
  D6                  -44.12211                  
  D7                 -171.0814                   
  D8                 -144.90888                  
  D9                    0.70867                  
  D10                 168.71769                  
  D11                  -0.93794                  
  D12                -174.43414                  
  D13                 178.54653                  
  D14                 178.97264                  
  D15                   1.81544                  
  D16                -166.10212                  
  D17                 179.09517                  
 
                          Input orientation:                          
 ---------------------------------------------------------------------
 Center     Atomic      Atomic             Coordinates (Angstroms)
 Number     Number       Type             X           Y           Z
 ---------------------------------------------------------------------
      1          6           0        0.000000    0.000000    0.000000
      2          6           0        0.000000    0.000000    1.415609
      3          6           0        1.155396    0.000000   -0.819267
      4          7           0       -1.285150    0.201737   -0.400515
      5          6           0        2.304179    0.542476   -0.308748
      6          1           0        0.672057   -0.651772    1.960639
      7          1           0        1.100438   -0.282147   -1.862018
      8          6           0       -1.366183    0.217140    1.829828
      9          6           0       -2.115115    0.348372    0.706419
     10          1           0       -1.557398    0.399041   -1.348647
     11          6           0        2.486388    1.136742    0.963427
     12          1           0        3.159947    0.606639   -0.971384
     13          1           0       -1.729964    0.252718    2.842724
     14          1           0       -3.168461    0.532981    0.579617
     15          6           0        1.559845    1.266609    1.972352
     16          1           0        3.370513    1.745908    1.123506
     17          8           0        1.381984    1.660277    3.069856
 ---------------------------------------------------------------------
                    Distance matrix (angstroms):
                    1          2          3          4          5
     1  C    0.000000
     2  C    1.415609   0.000000
     3  C    1.416382   2.515872   0.000000
     4  N    1.361147   2.233969   2.484415   0.000000
     5  C    2.387225   2.928639   1.369165   3.606634   0.000000
     6  H    2.172688   1.083293   2.895911   3.183424   3.039764
     7  H    2.181211   3.468921   1.081646   2.839219   2.131114
     8  C    2.293878   1.444016   3.663770   2.231868   4.260387
     9  C    2.257011   2.257881   3.625648   1.391275   4.538545
    10  H    2.098468   3.197786   2.792620   1.005983   4.001717
    11  C    2.898707   2.771061   2.498344   4.118140   1.415903
    12  H    3.361080   4.006371   2.099851   4.499858   1.084224
    13  H    3.337322   2.256833   4.668977   3.273997   5.127381
    14  H    3.264838   3.319954   4.575662   2.148776   5.544282
    15  C    2.815597   2.085036   3.092089   3.854666   2.506355
    16  H    3.958639   3.807083   3.424807   5.136371   2.153292
    17  O    3.753720   2.720833   4.234754   4.613504   3.676260
                    6          7          8          9         10
     6  H    0.000000
     7  H    3.864303   0.000000
     8  C    2.219581   4.468023   0.000000
     9  C    3.215849   4.163436   1.356528   0.000000
    10  H    4.126263   2.791354   3.189413   2.130003   0.000000
    11  C    2.735875   3.452137   4.054457   4.675618   4.716152
    12  H    4.045979   2.413452   5.337073   5.541480   4.736957
    13  H    2.714016   5.516507   1.076829   2.172853   4.197473
    14  H    4.249757   4.984928   2.216075   1.076892   2.516280
    15  C    2.113880   4.160780   3.111806   3.993879   4.636692
    16  H    3.705581   4.263755   5.027158   5.676195   5.675376
    17  O    2.660814   5.308075   3.342564   4.420026   5.454709
                   11         12         13         14         15
    11  C    0.000000
    12  H    2.116172   0.000000
    13  H    4.700093   6.211594   0.000000
    14  H    5.699925   6.516116   2.696196   0.000000
    15  C    1.375964   3.414889   3.550825   4.983452   0.000000
    16  H    1.085535   2.393916   5.585713   6.672720   2.056402
    17  O    2.435332   4.539044   3.423015   5.308355   1.179459
                   16         17
    16  H    0.000000
    17  O    2.783857   0.000000
 Symmetry turned off by external request.
 Stoichiometry    C8H7NO
 Framework group  C1[X(C8H7NO)]
 Deg. of freedom    45
 Full point group                 C1      NOp   1
 Rotational constants (GHZ):           2.1586789           1.3713930           0.8800753
 Standard basis: def2TZVP (5D, 7F)
   352 basis functions,   566 primitive gaussians,   402 cartesian basis functions
    35 alpha electrons       35 beta electrons
       nuclear repulsion energy       480.1692800993 Hartrees.
 NAtoms=   17 NActive=   17 NUniq=   17 SFac= 1.00D+00 NAtFMM=   60 NAOKFM=F Big=F
 Integral buffers will be    131072 words long.
 Raffenetti 2 integral format.
 Two-electron integral symmetry is turned off.
 One-electron integrals computed using PRISM.
   1 Symmetry operations used in ECPInt.
 ECPInt:  NShTT=    9591 NPrTT=   29644 LenC2=    9332 LenP2D=   22719.
 LDataN:  DoStor=T MaxTD1= 6 Len=  172
 NBasis=   352 RedAO= T EigKep=  3.58D-05  NBF=   352
 NBsUse=   352 1.00D-06 EigRej= -1.00D+00 NBFU=   352
 ExpMin= 9.52D-02 ExpMax= 2.70D+04 ExpMxC= 9.22D+02 IAcc=3 IRadAn=         5 AccDes= 0.00D+00
 Harris functional with IExCor=  402 and IRadAn=       5 diagonalized for initial guess.
 HarFok:  IExCor=  402 AccDes= 0.00D+00 IRadAn=         5 IDoV= 1 UseB2=F ITyADJ=14
 ICtDFT=  3500011 ScaDFX=  1.000000  1.000000  1.000000  1.000000
 FoFCou: FMM=F IPFlag=           0 FMFlag=      100000 FMFlg1=           0
         NFxFlg=           0 DoJE=T BraDBF=F KetDBF=T FulRan=T
         wScrn=  0.000000 ICntrl=       500 IOpCl=  0 I1Cent=   200000004 NGrid=           0
         NMat0=    1 NMatS0=      1 NMatT0=    0 NMatD0=    1 NMtDS0=    0 NMtDT0=    0
 Symmetry not used in FoFCou.
 Requested convergence on RMS density matrix=1.00D-08 within 128 cycles.
 Requested convergence on MAX density matrix=1.00D-06.
 Requested convergence on             energy=1.00D-06.
 No special actions if energy rises.
 Integral accuracy reduced to 1.0D-05 until final iterations.
 Initial convergence to 1.0D-05 achieved.  Increase integral accuracy.
 SCF Done:  E(RB3LYP) =  -439.135086287     A.U. after   15 cycles
            NFock= 15  Conv=0.76D-08     -V/T= 2.0049

 **********************************************************************

            Population analysis using the SCF density.

 **********************************************************************

 Alpha  occ. eigenvalues --  -19.14303 -14.37915 -10.27785 -10.22925 -10.21405
 Alpha  occ. eigenvalues --  -10.19272 -10.18027 -10.17577 -10.17044 -10.16967
 Alpha  occ. eigenvalues --   -1.07474  -1.00024  -0.83058  -0.79474  -0.75550
 Alpha  occ. eigenvalues --   -0.71101  -0.61853  -0.61368  -0.59807  -0.53842
 Alpha  occ. eigenvalues --   -0.49970  -0.48997  -0.46576  -0.45690  -0.44302
 Alpha  occ. eigenvalues --   -0.43481  -0.41931  -0.40199  -0.39193  -0.38068
 Alpha  occ. eigenvalues --   -0.36778  -0.32321  -0.26700  -0.24716  -0.19268
 Alpha virt. eigenvalues --   -0.05933  -0.02090   0.01907   0.02972   0.05556
 Alpha virt. eigenvalues --    0.06039   0.07350   0.08365   0.09108   0.10872
 Alpha virt. eigenvalues --    0.11328   0.12274   0.12996   0.14630   0.15827
 Alpha virt. eigenvalues --    0.16836   0.18939   0.19443   0.21250   0.21638
 Alpha virt. eigenvalues --    0.22128   0.22833   0.24434   0.25921   0.27021
 Alpha virt. eigenvalues --    0.27469   0.28593   0.29223   0.30786   0.31168
 Alpha virt. eigenvalues --    0.32813   0.33794   0.34566   0.35680   0.36202
 Alpha virt. eigenvalues --    0.37269   0.37519   0.38910   0.40193   0.41552
 Alpha virt. eigenvalues --    0.41877   0.42452   0.43500   0.43971   0.44422
 Alpha virt. eigenvalues --    0.44861   0.45267   0.46818   0.48341   0.48640
 Alpha virt. eigenvalues --    0.50368   0.50966   0.52833   0.53272   0.54692
 Alpha virt. eigenvalues --    0.57202   0.58450   0.60075   0.61521   0.61886
 Alpha virt. eigenvalues --    0.64206   0.64864   0.66354   0.67540   0.68680
 Alpha virt. eigenvalues --    0.70501   0.71039   0.73900   0.74570   0.77343
 Alpha virt. eigenvalues --    0.79676   0.80375   0.81930   0.85271   0.87024
 Alpha virt. eigenvalues --    0.88817   0.89937   0.92127   0.92977   0.94360
 Alpha virt. eigenvalues --    0.97018   0.97489   0.98097   0.99763   1.01663
 Alpha virt. eigenvalues --    1.05122   1.06623   1.08021   1.08055   1.08850
 Alpha virt. eigenvalues --    1.12818   1.14153   1.15599   1.16862   1.20352
 Alpha virt. eigenvalues --    1.21631   1.22909   1.25089   1.27070   1.27960
 Alpha virt. eigenvalues --    1.29128   1.31216   1.32023   1.33757   1.36395
 Alpha virt. eigenvalues --    1.39510   1.39979   1.41905   1.42114   1.44067
 Alpha virt. eigenvalues --    1.45898   1.47759   1.48914   1.49429   1.50278
 Alpha virt. eigenvalues --    1.50843   1.51170   1.54641   1.55342   1.58553
 Alpha virt. eigenvalues --    1.60492   1.60763   1.63439   1.63927   1.65087
 Alpha virt. eigenvalues --    1.65936   1.68470   1.72013   1.74851   1.76464
 Alpha virt. eigenvalues --    1.78958   1.80812   1.81799   1.84040   1.85194
 Alpha virt. eigenvalues --    1.88327   1.91221   1.92893   1.94647   1.98968
 Alpha virt. eigenvalues --    2.00499   2.01154   2.04862   2.04913   2.06113
 Alpha virt. eigenvalues --    2.09131   2.10896   2.13105   2.17415   2.19178
 Alpha virt. eigenvalues --    2.21166   2.22207   2.24379   2.26383   2.27618
 Alpha virt. eigenvalues --    2.31324   2.33460   2.36009   2.37318   2.40937
 Alpha virt. eigenvalues --    2.42307   2.47722   2.49471   2.52028   2.53170
 Alpha virt. eigenvalues --    2.54224   2.55361   2.58035   2.59166   2.59542
 Alpha virt. eigenvalues --    2.61417   2.64158   2.64882   2.65182   2.66896
 Alpha virt. eigenvalues --    2.69740   2.70910   2.72553   2.73536   2.75638
 Alpha virt. eigenvalues --    2.77115   2.77930   2.78319   2.80414   2.83123
 Alpha virt. eigenvalues --    2.84422   2.84808   2.86801   2.87575   2.89863
 Alpha virt. eigenvalues --    2.91590   2.92974   2.93996   2.94756   2.96343
 Alpha virt. eigenvalues --    2.99585   3.00254   3.02879   3.04626   3.05375
 Alpha virt. eigenvalues --    3.06799   3.09594   3.10947   3.11781   3.13056
 Alpha virt. eigenvalues --    3.14215   3.16589   3.17481   3.19482   3.19723
 Alpha virt. eigenvalues --    3.21234   3.22335   3.24186   3.25498   3.26661
 Alpha virt. eigenvalues --    3.27709   3.28969   3.29834   3.31350   3.32140
 Alpha virt. eigenvalues --    3.36675   3.37292   3.40135   3.41046   3.41847
 Alpha virt. eigenvalues --    3.42236   3.45578   3.46352   3.47742   3.49469
 Alpha virt. eigenvalues --    3.49979   3.52034   3.55675   3.58625   3.59757
 Alpha virt. eigenvalues --    3.60717   3.62007   3.65663   3.67212   3.72571
 Alpha virt. eigenvalues --    3.79024   3.79520   3.81528   3.86181   3.89122
 Alpha virt. eigenvalues --    3.90220   3.93461   3.94914   3.97407   4.00708
 Alpha virt. eigenvalues --    4.02421   4.04321   4.09807   4.11936   4.13133
 Alpha virt. eigenvalues --    4.17462   4.18047   4.20810   4.22770   4.24654
 Alpha virt. eigenvalues --    4.27081   4.34834   4.36916   4.38843   4.40917
 Alpha virt. eigenvalues --    4.44304   4.45048   4.52861   4.55500   4.59823
 Alpha virt. eigenvalues --    4.67961   4.68414   4.69917   4.72380   4.75459
 Alpha virt. eigenvalues --    4.79576   4.80910   4.87641   4.93609   4.96275
 Alpha virt. eigenvalues --    4.97983   5.01182   5.03466   5.08999   5.11315
 Alpha virt. eigenvalues --    5.15717   5.17035   5.18526   5.19895   5.27910
 Alpha virt. eigenvalues --    5.30083   5.35406   5.45211   5.55756   5.63535
 Alpha virt. eigenvalues --    5.64790   5.66968   5.87198   5.99071   6.30408
 Alpha virt. eigenvalues --    6.35667   6.43759   6.50147   6.62718   6.81029
 Alpha virt. eigenvalues --    6.95390   7.14014  22.26304  22.39442  22.60696
 Alpha virt. eigenvalues --   22.65213  22.75232  22.76506  23.10693  23.29684
 Alpha virt. eigenvalues --   32.30097  43.92044
          Condensed to atoms (all electrons):
               1          2          3          4          5          6
     1  C    4.922475   0.424042   0.362905   0.404966  -0.071055  -0.064833
     2  C    0.424042   5.289715  -0.076802  -0.061737  -0.021617   0.454847
     3  C    0.362905  -0.076802   5.156187  -0.054034   0.555679   0.006744
     4  N    0.404966  -0.061737  -0.054034   6.338379  -0.002826   0.004417
     5  C   -0.071055  -0.021617   0.555679  -0.002826   4.854380  -0.007085
     6  H   -0.064833   0.454847   0.006744   0.004417  -0.007085   0.534003
     7  H   -0.065913   0.011284   0.420470  -0.000086  -0.031570  -0.000113
     8  C   -0.031423   0.263406   0.019136  -0.098118   0.004776  -0.048284
     9  C   -0.117092  -0.025803   0.001331   0.364798  -0.000301   0.009665
    10  H   -0.046501   0.008056   0.002469   0.376994  -0.000544  -0.000159
    11  C   -0.043990  -0.052810  -0.034602   0.001874   0.395714   0.006360
    12  H    0.012340  -0.000926  -0.044822  -0.000211   0.409537  -0.000270
    13  H    0.008717  -0.044341  -0.000042   0.004286  -0.000078  -0.003006
    14  H    0.006595   0.004991  -0.000666  -0.034732   0.000072  -0.000160
    15  C    0.045994   0.099297  -0.035732   0.001839  -0.016500  -0.022238
    16  H    0.002296   0.008648   0.001072  -0.000044  -0.053581   0.000124
    17  O    0.001376  -0.090007   0.002399   0.000188   0.003927  -0.004692
               7          8          9         10         11         12
     1  C   -0.065913  -0.031423  -0.117092  -0.046501  -0.043990   0.012340
     2  C    0.011284   0.263406  -0.025803   0.008056  -0.052810  -0.000926
     3  C    0.420470   0.019136   0.001331   0.002469  -0.034602  -0.044822
     4  N   -0.000086  -0.098118   0.364798   0.376994   0.001874  -0.000211
     5  C   -0.031570   0.004776  -0.000301  -0.000544   0.395714   0.409537
     6  H   -0.000113  -0.048284   0.009665  -0.000159   0.006360  -0.000270
     7  H    0.560695  -0.001354   0.000381   0.002401   0.007274  -0.008989
     8  C   -0.001354   5.072125   0.545004   0.008579  -0.006594   0.000096
     9  C    0.000381   0.545004   4.937364  -0.040225   0.003175   0.000010
    10  H    0.002401   0.008579  -0.040225   0.473572   0.000091  -0.000030
    11  C    0.007274  -0.006594   0.003175   0.000091   5.247144  -0.046945
    12  H   -0.008989   0.000096   0.000010  -0.000030  -0.046945   0.567916
    13  H    0.000010   0.435108  -0.047572  -0.000099   0.000133  -0.000000
    14  H   -0.000009  -0.023892   0.409878  -0.003267   0.000013  -0.000001
    15  C   -0.000068  -0.002518  -0.000450  -0.000282   0.469054   0.005907
    16  H   -0.000154  -0.000452  -0.000018  -0.000019   0.397369  -0.005988
    17  O    0.000004   0.017693  -0.000686   0.000036  -0.075687  -0.000190
              13         14         15         16         17
     1  C    0.008717   0.006595   0.045994   0.002296   0.001376
     2  C   -0.044341   0.004991   0.099297   0.008648  -0.090007
     3  C   -0.000042  -0.000666  -0.035732   0.001072   0.002399
     4  N    0.004286  -0.034732   0.001839  -0.000044   0.000188
     5  C   -0.000078   0.000072  -0.016500  -0.053581   0.003927
     6  H   -0.003006  -0.000160  -0.022238   0.000124  -0.004692
     7  H    0.000010  -0.000009  -0.000068  -0.000154   0.000004
     8  C    0.435108  -0.023892  -0.002518  -0.000452   0.017693
     9  C   -0.047572   0.409878  -0.000450  -0.000018  -0.000686
    10  H   -0.000099  -0.003267  -0.000282  -0.000019   0.000036
    11  C    0.000133   0.000013   0.469054   0.397369  -0.075687
    12  H   -0.000000  -0.000001   0.005907  -0.005988  -0.000190
    13  H    0.521406  -0.002079  -0.000441  -0.000009   0.002211
    14  H   -0.002079   0.504142   0.000017  -0.000000  -0.000004
    15  C   -0.000441   0.000017   4.611252  -0.026780   0.665715
    16  H   -0.000009  -0.000000  -0.026780   0.564065  -0.000112
    17  O    0.002211  -0.000004   0.665715  -0.000112   7.686126
 Mulliken charges:
               1
     1  C    0.249101
     2  C   -0.190242
     3  C   -0.281694
     4  N   -0.245951
     5  C   -0.018929
     6  H    0.134681
     7  H    0.105737
     8  C   -0.153289
     9  C   -0.039457
    10  H    0.218930
    11  C   -0.267570
    12  H    0.112566
    13  H    0.125796
    14  H    0.139102
    15  C    0.205934
    16  H    0.113584
    17  O   -0.208299
 Sum of Mulliken charges =  -0.00000
 Mulliken charges with hydrogens summed into heavy atoms:
               1
     1  C    0.249101
     2  C   -0.055562
     3  C   -0.175957
     4  N   -0.027021
     5  C    0.093637
     8  C   -0.027493
     9  C    0.099645
    11  C   -0.153986
    15  C    0.205934
    17  O   -0.208299
 Electronic spatial extent (au):  <R**2>=           1584.3843
 Charge=             -0.0000 electrons
 Dipole moment (field-independent basis, Debye):
    X=             -2.1348    Y=             -0.7753    Z=             -3.4298  Tot=              4.1136
 Quadrupole moment (field-independent basis, Debye-Ang):
   XX=            -51.9328   YY=            -63.2883   ZZ=            -62.3248
   XY=             -1.6330   XZ=             -2.4859   YZ=             -5.6558
 Traceless Quadrupole moment (field-independent basis, Debye-Ang):
   XX=              7.2492   YY=             -4.1064   ZZ=             -3.1428
   XY=             -1.6330   XZ=             -2.4859   YZ=             -5.6558
 Octapole moment (field-independent basis, Debye-Ang**2):
  XXX=            -77.6257  YYY=            -98.0684  ZZZ=           -173.1503  XYY=            -23.9221
  XXY=            -19.5027  XXZ=            -55.3192  XZZ=            -42.1935  YZZ=            -50.0068
  YYZ=            -56.2396  XYZ=             -4.9922
 Hexadecapole moment (field-independent basis, Debye-Ang**3):
 XXXX=           -934.4796 YYYY=           -297.3244 ZZZZ=           -904.0260 XXXY=           -105.5431
 XXXZ=            -80.6005 YYYX=           -124.7183 YYYZ=           -165.3841 ZZZX=           -123.3009
 ZZZY=           -217.1011 XXYY=           -218.4942 XXZZ=           -309.2799 YYZZ=           -220.4537
 XXYZ=            -51.2946 YYXZ=            -22.6701 ZZXY=            -69.1772
 N-N= 4.801692800993D+02 E-N=-1.982878174599D+03  KE= 4.369871412606D+02
 1\1\GINC-BHC0011\SP\RB3LYP\def2TZVP\C8H7N1O1\DHANAWAY\10-Jun-2022\0\\#
  sp B3LYP/Def2TZVP NoSymm\\ts_initalOpt_zmat_AlignedSp\\0,1\C\C,1,1.41
 560941\C,1,1.41638221,2,125.33964482\N,1,1.3611471,2,107.11247349,3,-1
 71.07876681,0\C,3,1.36916462,1,117.95383127,2,-26.650234,0\H,2,1.08329
 337,1,120.20679282,3,-44.12211203,0\H,3,1.08164578,1,121.07605033,5,-1
 71.08139766,0\C,2,1.44401568,1,106.66956521,6,-144.90888171,0\C,4,1.39
 127487,1,110.16664068,2,0.70867235,0\H,4,1.00598274,1,124.18826987,9,1
 68.71769194,0\C,5,1.41590314,3,127.53786294,1,-0.93794327,0\H,5,1.0842
 2433,3,117.24586125,11,-174.43413945,0\H,8,1.07682917,2,126.47032565,1
 ,178.54653234,0\H,9,1.0768922,4,120.52343789,1,178.97263519,0\C,11,1.3
 7596407,5,127.71795328,3,1.81543874,0\H,11,1.08553481,5,118.21836886,1
 5,-166.10211955,0\O,15,1.17945944,11,144.62153333,5,179.09517094,0\\Ve
 rsion=ES64L-G16RevA.03\HF=-439.1350863\RMSD=7.552e-09\Dipole=-0.839877
 1,-0.3050276,-1.3493765\Quadrupole=5.3895823,-3.0529752,-2.3366071,-1.
 2140668,-1.8482053,-4.204935\PG=C01 [X(C8H7N1O1)]\\@


 THE CHYMISTS ARE A STRANGE CLASS OF MORTALS IMPELLED
 BY AN ALMOST INSANE IMPULSE TO SEEK THEIR PLEASURE
 AMONG SMOKE AND VAPOR, SOOT AND FLAME, POISONS AND
 POVERTY; YET AMONG ALL THESE EVILS I SEEM TO LIVE
 SO SWEETLY, THAT I MAY DIE IF I WOULD CHANGE PLACES
 WITH THE PERSIAN KING.
   --  JOHANN JOACHIM BECHER, 1635-1682
 ACTA LABORATORII CHYMICA MONACENSIS, 1669
 Job cpu time:       0 days  0 hours 17 minutes 41.5 seconds.
 Elapsed time:       0 days  0 hours  1 minutes 28.7 seconds.
 File lengths (MBytes):  RWF=     71 Int=      0 D2E=      0 Chk=     32 Scr=      1
 Normal termination of Gaussian 16 at Fri Jun 10 11:15:33 2022.
