 Entering Gaussian System, Link 0=g16
 Input=int_zmat_field_N25.gjf
 Output=int_zmat_field_N25.out
 Initial command:
 /software/gaussian/g16-a03/l1.exe "/local_scratch/11171875/Gau-17355.inp" -scrdir="/local_scratch/11171875/"
 Entering Link 1 = /software/gaussian/g16-a03/l1.exe PID=     17356.
  
 Copyright (c) 1988,1990,1992,1993,1995,1998,2003,2009,2016,
            Gaussian, Inc.  All Rights Reserved.
  
 This is part of the Gaussian(R) 16 program.  It is based on
 the Gaussian(R) 09 system (copyright 2009, Gaussian, Inc.),
 the Gaussian(R) 03 system (copyright 2003, Gaussian, Inc.),
 the Gaussian(R) 98 system (copyright 1998, Gaussian, Inc.),
 the Gaussian(R) 94 system (copyright 1995, Gaussian, Inc.),
 the Gaussian 92(TM) system (copyright 1992, Gaussian, Inc.),
 the Gaussian 90(TM) system (copyright 1990, Gaussian, Inc.),
 the Gaussian 88(TM) system (copyright 1988, Gaussian, Inc.),
 the Gaussian 86(TM) system (copyright 1986, Carnegie Mellon
 University), and the Gaussian 82(TM) system (copyright 1983,
 Carnegie Mellon University). Gaussian is a federally registered
 trademark of Gaussian, Inc.
  
 This software contains proprietary and confidential information,
 including trade secrets, belonging to Gaussian, Inc.
  
 This software is provided under written license and may be
 used, copied, transmitted, or stored only in accord with that
 written license.
  
 The following legend is applicable only to US Government
 contracts under FAR:
  
                    RESTRICTED RIGHTS LEGEND
  
 Use, reproduction and disclosure by the US Government is
 subject to restrictions as set forth in subparagraphs (a)
 and (c) of the Commercial Computer Software - Restricted
 Rights clause in FAR 52.227-19.
  
 Gaussian, Inc.
 340 Quinnipiac St., Bldg. 40, Wallingford CT 06492
  
  
 ---------------------------------------------------------------
 Warning -- This program may not be used in any manner that
 competes with the business of Gaussian, Inc. or will provide
 assistance to any competitor of Gaussian, Inc.  The licensee
 of this program is prohibited from giving any competitor of
 Gaussian, Inc. access to this program.  By using this program,
 the user acknowledges that Gaussian, Inc. is engaged in the
 business of creating and licensing software in the field of
 computational chemistry and represents and warrants to the
 licensee that it is not a competitor of Gaussian, Inc. and that
 it will not use this program in any manner prohibited above.
 ---------------------------------------------------------------
  

 Cite this work as:
 Gaussian 16, Revision A.03,
 M. J. Frisch, G. W. Trucks, H. B. Schlegel, G. E. Scuseria, 
 M. A. Robb, J. R. Cheeseman, G. Scalmani, V. Barone, 
 G. A. Petersson, H. Nakatsuji, X. Li, M. Caricato, A. V. Marenich, 
 J. Bloino, B. G. Janesko, R. Gomperts, B. Mennucci, H. P. Hratchian, 
 J. V. Ortiz, A. F. Izmaylov, J. L. Sonnenberg, D. Williams-Young, 
 F. Ding, F. Lipparini, F. Egidi, J. Goings, B. Peng, A. Petrone, 
 T. Henderson, D. Ranasinghe, V. G. Zakrzewski, J. Gao, N. Rega, 
 G. Zheng, W. Liang, M. Hada, M. Ehara, K. Toyota, R. Fukuda, 
 J. Hasegawa, M. Ishida, T. Nakajima, Y. Honda, O. Kitao, H. Nakai, 
 T. Vreven, K. Throssell, J. A. Montgomery, Jr., J. E. Peralta, 
 F. Ogliaro, M. J. Bearpark, J. J. Heyd, E. N. Brothers, K. N. Kudin, 
 V. N. Staroverov, T. A. Keith, R. Kobayashi, J. Normand, 
 K. Raghavachari, A. P. Rendell, J. C. Burant, S. S. Iyengar, 
 J. Tomasi, M. Cossi, J. M. Millam, M. Klene, C. Adamo, R. Cammi, 
 J. W. Ochterski, R. L. Martin, K. Morokuma, O. Farkas, 
 J. B. Foresman, and D. J. Fox, Gaussian, Inc., Wallingford CT, 2016.
 
 ******************************************
 Gaussian 16:  ES64L-G16RevA.03 25-Dec-2016
                10-Jun-2022 
 ******************************************
 %nprocshared=12
 Will use up to   12 processors via shared memory.
 %chk=checkpoint.chk
 %mem=12GB
 ----------------------------------------------------------------------
 # Opt=(Z-matrix, MaxStep=10) B3LYP/Def2TZVP Field=read NoSymm freq=nor
 aman pop=none
 ----------------------------------------------------------------------
 1/8=10,10=7,18=40,26=3,38=1/1,3;
 2/12=2,15=1,17=6,18=5,29=3,40=1/2;
 3/5=44,7=101,11=2,14=-6,25=1,30=1,71=1,74=-5/1,2,3;
 4//1;
 5/5=2,38=5/2;
 7/29=1,30=1/1,2,3,16;
 1/8=10,10=7,18=40,26=3/3(2);
 2/15=1,29=3/2;
 99//99;
 2/15=1,29=3/2;
 3/5=44,7=101,11=2,14=-2,25=1,30=1,71=1,74=-5/1,2,3;
 4/5=5,16=3,69=1/1;
 5/5=2,38=5/2;
 7/30=1/1,2,3,16;
 1/8=10,18=40,26=3/3(-5);
 2/15=1,29=3/2;
 99/9=1/99;
 ------------------
 int_zmat_initalOpt
 ------------------
 Symbolic Z-matrix:
 Charge =  0 Multiplicity = 1
 C
 C                    1    R2
 S                    1    R3       2    A3
 C                    1    R4       2    A4       3    D4       0
 C                    3    R5       1    A5       2    D5       0
 O                    3    R6       1    A6       5    D6       0
 H                    2    R7       1    A7       3    D7       0
 C                    2    R8       1    A8       7    D8       0
 C                    4    R9       1    A9       2    D9       0
 H                    4    R10      1    A10      9    D10      0
 C                    5    R11      3    A11      1    D11      0
 H                    5    R12      3    A12      11   D12      0
 H                    5    R13      3    A13      11   D13      0
 H                    8    R14      2    A14      1    D14      0
 C                    8    R15      2    A15      14   D15      0
 H                    9    R16      4    A16      1    D16      0
 C                    11   R17      5    A17      3    D17      0
 H                    11   R18      5    A18      17   D18      0
 H                    15   R19      8    A19      2    D19      0
 H                    17   R20      11   A20      5    D20      0
 H                    17   R21      11   A21      20   D21      0
       Variables:
  R2                    1.38802                  
  R3                    1.81135                  
  R4                    1.39146                  
  R5                    1.86676                  
  R6                    1.48703                  
  R7                    1.0826                   
  R8                    1.39103                  
  R9                    1.38935                  
  R10                   1.08412                  
  R11                   1.48822                  
  R12                   1.09182                  
  R13                   1.09061                  
  R14                   1.08278                  
  R15                   1.39065                  
  R16                   1.08267                  
  R17                   1.3277                   
  R18                   1.08613                  
  R19                   1.08259                  
  R20                   1.08227                  
  R21                   1.08347                  
  A3                  118.73852                  
  A4                  121.05277                  
  A5                   96.14581                  
  A6                  107.36598                  
  A7                  119.02066                  
  A8                  119.20479                  
  A9                  119.37287                  
  A10                 120.46358                  
  A11                 110.4441                   
  A12                 105.88221                  
  A13                 105.21721                  
  A14                 119.71012                  
  A15                 120.23244                  
  A16                 119.83431                  
  A17                 124.13459                  
  A18                 116.32674                  
  A19                 120.00912                  
  A20                 121.41414                  
  A21                 121.60453                  
  D4                  176.64623                  
  D5                 -102.41807                  
  D6                  109.24512                  
  D7                    1.35255                  
  D8                 -179.29005                  
  D9                    1.49875                  
  D10                -179.29549                  
  D11                -176.70702                  
  D12                 121.94605                  
  D13                -121.77701                  
  D14                -179.96805                  
  D15                -179.71078                  
  D16                 179.87053                  
  D17                -103.84195                  
  D18                 178.40323                  
  D19                 179.73005                  
  D20                 179.00183                  
  D21                -179.75955                  
 

 GradGradGradGradGradGradGradGradGradGradGradGradGradGradGradGradGradGrad
 Berny optimization.
 Initialization pass.
                       ----------------------------
                       !    Initial Parameters    !
                       ! (Angstroms and Degrees)  !
 ----------------------                            ----------------------
 !      Name          Value   Derivative information (Atomic Units)     !
 ------------------------------------------------------------------------
 !       R2          1.388    estimate D2E/DX2                          !
 !       R3          1.8114   estimate D2E/DX2                          !
 !       R4          1.3915   estimate D2E/DX2                          !
 !       R5          1.8668   estimate D2E/DX2                          !
 !       R6          1.487    estimate D2E/DX2                          !
 !       R7          1.0826   estimate D2E/DX2                          !
 !       R8          1.391    estimate D2E/DX2                          !
 !       R9          1.3893   estimate D2E/DX2                          !
 !       R10         1.0841   estimate D2E/DX2                          !
 !       R11         1.4882   estimate D2E/DX2                          !
 !       R12         1.0918   estimate D2E/DX2                          !
 !       R13         1.0906   estimate D2E/DX2                          !
 !       R14         1.0828   estimate D2E/DX2                          !
 !       R15         1.3906   estimate D2E/DX2                          !
 !       R16         1.0827   estimate D2E/DX2                          !
 !       R17         1.3277   estimate D2E/DX2                          !
 !       R18         1.0861   estimate D2E/DX2                          !
 !       R19         1.0826   estimate D2E/DX2                          !
 !       R20         1.0823   estimate D2E/DX2                          !
 !       R21         1.0835   estimate D2E/DX2                          !
 !       A3        118.7385   estimate D2E/DX2                          !
 !       A4        121.0528   estimate D2E/DX2                          !
 !       A5         96.1458   estimate D2E/DX2                          !
 !       A6        107.366    estimate D2E/DX2                          !
 !       A7        119.0207   estimate D2E/DX2                          !
 !       A8        119.2048   estimate D2E/DX2                          !
 !       A9        119.3729   estimate D2E/DX2                          !
 !       A10       120.4636   estimate D2E/DX2                          !
 !       A11       110.4441   estimate D2E/DX2                          !
 !       A12       105.8822   estimate D2E/DX2                          !
 !       A13       105.2172   estimate D2E/DX2                          !
 !       A14       119.7101   estimate D2E/DX2                          !
 !       A15       120.2324   estimate D2E/DX2                          !
 !       A16       119.8343   estimate D2E/DX2                          !
 !       A17       124.1346   estimate D2E/DX2                          !
 !       A18       116.3267   estimate D2E/DX2                          !
 !       A19       120.0091   estimate D2E/DX2                          !
 !       A20       121.4141   estimate D2E/DX2                          !
 !       A21       121.6045   estimate D2E/DX2                          !
 !       D4        176.6462   estimate D2E/DX2                          !
 !       D5       -102.4181   estimate D2E/DX2                          !
 !       D6        109.2451   estimate D2E/DX2                          !
 !       D7          1.3525   estimate D2E/DX2                          !
 !       D8       -179.29     estimate D2E/DX2                          !
 !       D9          1.4987   estimate D2E/DX2                          !
 !       D10      -179.2955   estimate D2E/DX2                          !
 !       D11      -176.707    estimate D2E/DX2                          !
 !       D12       121.9461   estimate D2E/DX2                          !
 !       D13      -121.777    estimate D2E/DX2                          !
 !       D14      -179.9681   estimate D2E/DX2                          !
 !       D15      -179.7108   estimate D2E/DX2                          !
 !       D16       179.8705   estimate D2E/DX2                          !
 !       D17      -103.8419   estimate D2E/DX2                          !
 !       D18       178.4032   estimate D2E/DX2                          !
 !       D19       179.73     estimate D2E/DX2                          !
 !       D20       179.0018   estimate D2E/DX2                          !
 !       D21      -179.7596   estimate D2E/DX2                          !
 ------------------------------------------------------------------------
 Trust Radius=1.00D-01 FncErr=1.00D-07 GrdErr=1.00D-06 EigMax=2.50D+02 EigMin=1.00D-04
 Number of steps in this run=     67 maximum allowed number of steps=    114.
 GradGradGradGradGradGradGradGradGradGradGradGradGradGradGradGradGradGrad

 ---------------------------------------------------------------------------------------------------
                            Z-MATRIX (ANGSTROMS AND DEGREES)
   CD    Cent   Atom    N1       Length/X        N2       Alpha/Y        N3        Beta/Z          J
 ---------------------------------------------------------------------------------------------------
      1      1  C 
      2      2  C        1   1.388020(     1)
      3      3  S        1   1.811350(     2)      2  118.739(    21)
      4      4  C        1   1.391464(     3)      2  121.053(    22)      3  176.646(    40)      0
      5      5  C        3   1.866756(     4)      1   96.146(    23)      2 -102.418(    41)      0
      6      6  O        3   1.487029(     5)      1  107.366(    24)      5  109.245(    42)      0
      7      7  H        2   1.082597(     6)      1  119.021(    25)      3    1.353(    43)      0
      8      8  C        2   1.391027(     7)      1  119.205(    26)      7 -179.290(    44)      0
      9      9  C        4   1.389349(     8)      1  119.373(    27)      2    1.499(    45)      0
     10     10  H        4   1.084119(     9)      1  120.464(    28)      9 -179.295(    46)      0
     11     11  C        5   1.488219(    10)      3  110.444(    29)      1 -176.707(    47)      0
     12     12  H        5   1.091816(    11)      3  105.882(    30)     11  121.946(    48)      0
     13     13  H        5   1.090611(    12)      3  105.217(    31)     11 -121.777(    49)      0
     14     14  H        8   1.082783(    13)      2  119.710(    32)      1 -179.968(    50)      0
     15     15  C        8   1.390647(    14)      2  120.232(    33)     14 -179.711(    51)      0
     16     16  H        9   1.082665(    15)      4  119.834(    34)      1  179.871(    52)      0
     17     17  C       11   1.327696(    16)      5  124.135(    35)      3 -103.842(    53)      0
     18     18  H       11   1.086129(    17)      5  116.327(    36)     17  178.403(    54)      0
     19     19  H       15   1.082591(    18)      8  120.009(    37)      2  179.730(    55)      0
     20     20  H       17   1.082269(    19)     11  121.414(    38)      5  179.002(    56)      0
     21     21  H       17   1.083465(    20)     11  121.605(    39)     20 -179.760(    57)      0
 ---------------------------------------------------------------------------------------------------
                         Z-Matrix orientation:                         
 ---------------------------------------------------------------------
 Center     Atomic      Atomic             Coordinates (Angstroms)
 Number     Number       Type             X           Y           Z
 ---------------------------------------------------------------------
      1          6           0        0.000000    0.000000    0.000000
      2          6           0        0.000000    0.000000    1.388020
      3         16           0        1.588234    0.000000   -0.870921
      4          6           0       -1.190015   -0.069737   -0.717755
      5          6           0        1.571564    1.812604   -1.316976
      6          8           0        2.654956   -0.168710    0.151280
      7          1           0        0.946407    0.022345    1.913214
      8          6           0       -1.213415   -0.043699    2.066747
      9          6           0       -2.397924   -0.108800   -0.032393
     10          1           0       -1.177140   -0.104969   -1.801225
     11          6           0        2.758399    2.154566   -2.147205
     12          1           0        0.631214    1.981632   -1.845401
     13          1           0        1.560251    2.341949   -0.363509
     14          1           0       -1.222978   -0.043518    3.149488
     15          6           0       -2.409836   -0.093525    1.359644
     16          1           0       -3.328413   -0.160974   -0.583422
     17          6           0        3.826210    2.798366   -1.691048
     18          1           0        2.734573    1.823085   -3.181240
     19          1           0       -3.351957   -0.131849    1.891567
     20          1           0        4.672927    3.010637   -2.330828
     21          1           0        3.891804    3.131514   -0.662162
 ---------------------------------------------------------------------
                    Distance matrix (angstroms):
                    1          2          3          4          5
     1  C    0.000000
     2  C    1.388020   0.000000
     3  S    1.811350   2.761394   0.000000
     4  C    1.391464   2.419770   2.783342   0.000000
     5  C    2.736745   3.615570   1.866756   3.395378   0.000000
     6  O    2.664609   2.933731   1.487029   3.943200   2.693533
     7  H    2.134614   1.082597   2.857245   3.390396   3.745661
     8  C    2.397025   1.391027   4.059684   2.784722   4.759364
     9  C    2.400610   2.789167   4.074852   1.389349   4.593342
    10  H    2.154319   3.401170   2.919551   1.084119   3.386290
    11  C    4.106265   4.974810   2.764117   4.751928   1.488219
    12  H    2.780432   3.844516   2.406733   2.965902   1.091816
    13  H    2.837472   3.314658   2.396450   3.675008   1.090611
    14  H    3.378881   2.144840   4.905964   3.867472   5.586049
    15  C    2.768517   2.411817   4.579162   2.409173   5.162283
    16  H    3.382991   3.871799   4.927675   2.144555   5.333188
    17  C    5.032929   5.652556   3.675867   5.859678   2.488992
    18  H    4.574038   5.628469   3.158371   5.005390   2.197313
    19  H    3.851107   3.392132   5.661644   3.389161   6.190049
    20  H    6.027681   6.688049   4.550890   6.816509   3.475864
    21  H    5.038947   5.399608   3.893122   6.006329   2.748057
                    6          7          8          9         10
     6  O    0.000000
     7  H    2.461718   0.000000
     8  C    4.318442   2.166280   0.000000
     9  C    5.056573   3.871323   2.411159   0.000000
    10  H    4.301314   4.280505   3.868627   2.149208   0.000000
    11  C    3.269762   4.931195   6.193954   6.015224   4.551227
    12  H    3.564581   4.250334   4.775931   4.102753   2.761521
    13  H    2.786897   3.307693   4.392116   4.667222   3.943062
    14  H    4.903396   2.497787   1.082783   3.392510   4.951306
    15  C    5.207487   3.403562   1.390647   1.392172   3.392752
    16  H    6.028313   4.953876   3.392693   1.082665   2.472682
    17  C    3.683686   5.384260   6.898998   7.067007   5.785758
    18  H    3.883204   5.691543   6.827361   6.323761   4.574204
    19  H    6.254036   4.301184   2.147515   2.147634   4.285705
    20  H    4.510134   6.389736   7.957176   8.062917   6.649118
    21  H    3.617037   4.997485   6.602438   7.103305   6.120988
                   11         12         13         14         15
    11  C    0.000000
    12  H    2.155437   0.000000
    13  H    2.156905   1.785760   0.000000
    14  H    6.981252   5.699839   5.077200   0.000000
    15  C    6.637963   4.881247   4.966123   2.148179   0.000000
    16  H    6.697494   4.675682   5.496546   4.287338   2.150311
    17  C    1.327696   3.301344   2.665567   7.549926   7.520507
    18  H    1.086129   2.496743   3.096427   7.695748   7.124463
    19  H    7.673059   5.856397   5.944311   2.474413   1.082591
    20  H    2.105230   4.198801   3.742491   8.609495   8.568602
    21  H    2.108172   3.654276   2.479667   7.125342   7.362014
                   16         17         18         19         20
    16  H    0.000000
    17  C    7.821327   0.000000
    18  H    6.888030   2.088903   0.000000
    19  H    2.475272   8.540923   8.160944   0.000000
    20  H    8.782596   1.082269   2.427075   9.597010   0.000000
    21  H    7.935882   1.083465   3.065441   8.345248   1.846404
                   21
    21  H    0.000000
 Symmetry turned off by external request.
 Stoichiometry    C9H10OS
 Framework group  C1[X(C9H10OS)]
 Deg. of freedom    57
 Full point group                 C1      NOp   1
 Rotational constants (GHZ):           2.3336997           0.5236720           0.4879734
 Standard basis: def2TZVP (5D, 7F)
 The following finite field(s) will be applied:
 An electric field of             -0.0024  0.0005 -0.0001
   407 basis functions,   659 primitive gaussians,   462 cartesian basis functions
    44 alpha electrons       44 beta electrons
       nuclear repulsion energy       664.5411601114 Hartrees.
 NAtoms=   21 NActive=   21 NUniq=   21 SFac= 1.00D+00 NAtFMM=   60 NAOKFM=F Big=F
 Integral buffers will be    131072 words long.
 Raffenetti 2 integral format.
 Two-electron integral symmetry is turned off.
 One-electron integrals computed using PRISM.
   1 Symmetry operations used in ECPInt.
 ECPInt:  NShTT=   13366 NPrTT=   41614 LenC2=   12471 LenP2D=   29244.
 LDataN:  DoStor=T MaxTD1= 6 Len=  172
 NBasis=   407 RedAO= T EigKep=  8.65D-06  NBF=   407
 NBsUse=   407 1.00D-06 EigRej= -1.00D+00 NBFU=   407
 The nuclear repulsion energy is now       664.3284584326 hartrees.
 ExpMin= 9.52D-02 ExpMax= 6.07D+04 ExpMxC= 2.07D+03 IAcc=3 IRadAn=         5 AccDes= 0.00D+00
 Harris functional with IExCor=  402 and IRadAn=       5 diagonalized for initial guess.
 HarFok:  IExCor=  402 AccDes= 0.00D+00 IRadAn=         5 IDoV= 1 UseB2=F ITyADJ=14
 ICtDFT=  3500011 ScaDFX=  1.000000  1.000000  1.000000  1.000000
 FoFCou: FMM=F IPFlag=           0 FMFlag=      100000 FMFlg1=           0
         NFxFlg=           0 DoJE=T BraDBF=F KetDBF=T FulRan=T
         wScrn=  0.000000 ICntrl=       500 IOpCl=  0 I1Cent=   200000004 NGrid=           0
         NMat0=    1 NMatS0=      1 NMatT0=    0 NMatD0=    1 NMtDS0=    0 NMtDT0=    0
 Symmetry not used in FoFCou.
 Requested convergence on RMS density matrix=1.00D-08 within 128 cycles.
 Requested convergence on MAX density matrix=1.00D-06.
 Requested convergence on             energy=1.00D-06.
 No special actions if energy rises.
 Integral accuracy reduced to 1.0D-05 until final iterations.
 Problem detected with inexpensive integrals.
 Switching to full accuracy and repeating last cycle.
 SCF Done:  E(RB3LYP) =  -822.529565698     A.U. after   17 cycles
            NFock= 17  Conv=0.26D-08     -V/T= 2.0035
   1 Symmetry operations used in ECPInt.
 ECPInt:  NShTT=   13366 NPrTT=   41614 LenC2=   12471 LenP2D=   29244.
 LDataN:  DoStor=T MaxTD1= 7 Len=  274
 Calling FoFJK, ICntrl=      2127 FMM=F ISym2X=0 I1Cent= 0 IOpClX= 0 NMat=1 NMatS=1 NMatT=0.
 -------------------------------------------------------------------
 Center     Atomic                   Forces (Hartrees/Bohr)
 Number     Number              X              Y              Z
 -------------------------------------------------------------------
      1        6          -0.000115784    0.000396025   -0.000136543
      2        6          -0.000377943   -0.000049021    0.000054244
      3       16           0.002901479   -0.000629382    0.000796769
      4        6          -0.000348477    0.000096596    0.000356716
      5        6          -0.000196733    0.000181793    0.000087603
      6        8          -0.002243310    0.000266520   -0.001155813
      7        1           0.000179414   -0.000071429   -0.000061542
      8        6          -0.000069115    0.000035934    0.000109559
      9        6           0.000181932    0.000063864    0.000107701
     10        1           0.000217253   -0.000053555   -0.000009187
     11        6           0.000158114    0.000119938   -0.000328939
     12        1          -0.000231316    0.000019874   -0.000126399
     13        1           0.000122867   -0.000005076    0.000106233
     14        1           0.000113695   -0.000060834    0.000050807
     15        6           0.000047281    0.000092743   -0.000112054
     16        1          -0.000208296   -0.000092776   -0.000165115
     17        6          -0.000230616    0.000190688   -0.000049363
     18        1           0.000082511   -0.000146801    0.000063751
     19        1          -0.000149739   -0.000092745    0.000192698
     20        1          -0.000020478   -0.000136778    0.000193533
     21        1           0.000187261   -0.000125575    0.000025340
 -------------------------------------------------------------------
 Cartesian Forces:  Max     0.002901479 RMS     0.000525355
 -----------------------------------------------------------------------------------------------
                       Internal Coordinate Forces (Hartree/Bohr or radian)
  Cent   Atom   N1       Length/X         N2         Alpha/Y        N3         Beta/Z          J
 -----------------------------------------------------------------------------------------------
      1  C 
      2  C        1   0.000234(     1)
      3  S        1   0.000651(     2)      2  -0.001918(    21)
      4  C        1  -0.000016(     3)      2  -0.000192(    22)      3  -0.000167(    40)     0
      5  C        3   0.000103(     4)      1   0.000342(    23)      2   0.000099(    41)     0
      6  O        3  -0.002434(     5)      1  -0.002016(    24)      5  -0.000043(    42)     0
      7  H        2   0.000126(     6)      1  -0.000286(    25)      3   0.000063(    43)     0
      8  C        2   0.000169(     7)      1   0.001215(    26)      7   0.000198(    44)     0
      9  C        4  -0.000005(     8)      1   0.000241(    27)      2   0.000047(    45)     0
     10  H        4   0.000014(     9)      1  -0.000440(    28)      9   0.000109(    46)     0
     11  C        5   0.000172(    10)      3  -0.000737(    29)      1  -0.000119(    47)     0
     12  H        5   0.000263(    11)      3  -0.000044(    30)     11  -0.000003(    48)     0
     13  H        5   0.000089(    12)      3  -0.000117(    31)     11   0.000245(    49)     0
     14  H        8   0.000050(    13)      2  -0.000229(    32)      1  -0.000123(    50)     0
     15  C        8   0.000047(    14)      2   0.000508(    33)     14  -0.000008(    51)     0
     16  H        9   0.000268(    15)      4  -0.000073(    34)      1   0.000142(    52)     0
     17  C       11  -0.000028(    16)      5  -0.000366(    35)      3   0.000177(    53)     0
     18  H       11  -0.000018(    17)      5   0.000010(    36)     17  -0.000330(    54)     0
     19  H       15   0.000228(    18)      8  -0.000189(    37)      2  -0.000154(    55)     0
     20  H       17  -0.000157(    19)     11   0.000157(    38)      5   0.000057(    56)     0
     21  H       17  -0.000003(    20)     11   0.000241(    39)     20   0.000338(    57)     0
 -----------------------------------------------------------------------------------------------
 Internal  Forces:  Max     0.002433999 RMS     0.000562595

 GradGradGradGradGradGradGradGradGradGradGradGradGradGradGradGradGradGrad
 Berny optimization.
 Search for a local minimum.
 Step number   1 out of a maximum of   67
 All quantities printed in internal units (Hartrees-Bohrs-Radians)
 Second derivative matrix not updated -- first step.
 ITU=  0
     Eigenvalues ---    0.02596   0.03717   0.03869   0.03969   0.04171
     Eigenvalues ---    0.05128   0.05423   0.07308   0.08722   0.09392
     Eigenvalues ---    0.12949   0.14338   0.14738   0.16734   0.16796
     Eigenvalues ---    0.18988   0.20557   0.21118   0.21492   0.22699
     Eigenvalues ---    0.23248   0.24835   0.24991   0.25243   0.26442
     Eigenvalues ---    0.29786   0.30183   0.30729   0.33645   0.34604
     Eigenvalues ---    0.34742   0.35264   0.35501   0.35579   0.35660
     Eigenvalues ---    0.35674   0.35682   0.35683   0.35721   0.35877
     Eigenvalues ---    0.37445   0.37966   0.44318   0.47128   0.47243
     Eigenvalues ---    0.47462   0.48374   0.48903   0.49705   0.55214
     Eigenvalues ---    0.60053   0.60178   0.70479   0.81138   2.88045
     Eigenvalues ---    4.20969  26.34514
 RFO step:  Lambda=-4.27444284D-05 EMin= 2.59564891D-02
 Linear search not attempted -- first point.
 Variable       Old X    -DE/DX   Delta X   Delta X   Delta X     New X
                                 (Linear)    (Quad)   (Total)
    R2        2.62298   0.00023   0.00000   0.00008   0.00008   2.62305
    R3        3.42296   0.00065   0.00000   0.00258   0.00258   3.42553
    R4        2.62949  -0.00002   0.00000  -0.00012  -0.00012   2.62937
    R5        3.52766   0.00010   0.00000   0.00048   0.00048   3.52814
    R6        2.81008  -0.00243   0.00000  -0.00299  -0.00299   2.80709
    R7        2.04581   0.00013   0.00000   0.00035   0.00035   2.04616
    R8        2.62866   0.00017   0.00000   0.00002   0.00002   2.62868
    R9        2.62549  -0.00000   0.00000   0.00033   0.00033   2.62582
   R10        2.04869   0.00001   0.00000   0.00004   0.00004   2.04873
   R11        2.81233   0.00017   0.00000   0.00051   0.00051   2.81283
   R12        2.06323   0.00026   0.00000   0.00076   0.00076   2.06400
   R13        2.06096   0.00009   0.00000   0.00026   0.00026   2.06121
   R14        2.04616   0.00005   0.00000   0.00014   0.00014   2.04630
   R15        2.62794   0.00005   0.00000   0.00018   0.00018   2.62812
   R16        2.04594   0.00027   0.00000   0.00075   0.00075   2.04669
   R17        2.50898  -0.00003   0.00000  -0.00005  -0.00005   2.50893
   R18        2.05249  -0.00002   0.00000  -0.00005  -0.00005   2.05244
   R19        2.04580   0.00023   0.00000   0.00064   0.00064   2.04644
   R20        2.04519  -0.00016   0.00000  -0.00044  -0.00044   2.04476
   R21        2.04745  -0.00000   0.00000  -0.00001  -0.00001   2.04744
    A3        2.07238  -0.00192   0.00000  -0.00303  -0.00303   2.06935
    A4        2.11277  -0.00019   0.00000  -0.00073  -0.00073   2.11204
    A5        1.67806   0.00034   0.00000   0.00102   0.00102   1.67908
    A6        1.87389  -0.00202   0.00000  -0.00764  -0.00764   1.86625
    A7        2.07730  -0.00029   0.00000  -0.00132  -0.00132   2.07598
    A8        2.08052   0.00122   0.00000   0.00086   0.00086   2.08138
    A9        2.08345   0.00024   0.00000   0.00032   0.00032   2.08377
   A10        2.10249  -0.00044   0.00000  -0.00156  -0.00156   2.10093
   A11        1.92761  -0.00074   0.00000  -0.00232  -0.00232   1.92530
   A12        1.84799  -0.00004   0.00000   0.00112   0.00112   1.84911
   A13        1.83639  -0.00012   0.00000  -0.00061  -0.00061   1.83578
   A14        2.08934  -0.00023   0.00000  -0.00059  -0.00059   2.08875
   A15        2.09845   0.00051   0.00000  -0.00028  -0.00028   2.09817
   A16        2.09150  -0.00007   0.00000  -0.00029  -0.00029   2.09121
   A17        2.16656  -0.00037   0.00000  -0.00073  -0.00073   2.16583
   A18        2.03028   0.00001   0.00000   0.00030   0.00030   2.03059
   A19        2.09455  -0.00019   0.00000  -0.00049  -0.00049   2.09406
   A20        2.11908   0.00016   0.00000  -0.00010  -0.00010   2.11897
   A21        2.12240   0.00024   0.00000   0.00089   0.00089   2.12329
    D4        3.08306  -0.00017   0.00000  -0.00318  -0.00318   3.07987
    D5       -1.78753   0.00010   0.00000   0.00030   0.00030  -1.78723
    D6        1.90669  -0.00004   0.00000  -0.00146  -0.00146   1.90523
    D7        0.02361   0.00006   0.00000   0.00161   0.00161   0.02521
    D8       -3.12920   0.00020   0.00000   0.00226   0.00226  -3.12695
    D9        0.02616   0.00005   0.00000  -0.00097  -0.00097   0.02519
   D10       -3.12930   0.00011   0.00000   0.00250   0.00250  -3.12680
   D11       -3.08412  -0.00012   0.00000  -0.00237  -0.00237  -3.08649
   D12        2.12836  -0.00000   0.00000   0.00090   0.00090   2.12926
   D13       -2.12541   0.00025   0.00000   0.00237   0.00237  -2.12304
   D14       -3.14104  -0.00012   0.00000  -0.00194  -0.00194  -3.14297
   D15       -3.13654  -0.00001   0.00000   0.00196   0.00196  -3.13459
   D16        3.13933   0.00014   0.00000   0.00270   0.00270   3.14203
   D17       -1.81238   0.00018   0.00000   0.00537   0.00537  -1.80702
   D18        3.11372  -0.00033   0.00000  -0.00407  -0.00407   3.10965
   D19        3.13688  -0.00015   0.00000  -0.00255  -0.00255   3.13433
   D20        3.12417   0.00006   0.00000  -0.00325  -0.00325   3.12092
   D21       -3.13740   0.00034   0.00000   0.00403   0.00403  -3.13336
         Item               Value     Threshold  Converged?
 Maximum Force            0.002434     0.000450     NO 
 RMS     Force            0.000563     0.000300     NO 
 Maximum Displacement     0.007643     0.001800     NO 
 RMS     Displacement     0.002028     0.001200     NO 
 Predicted change in Energy=-2.137722D-05
 GradGradGradGradGradGradGradGradGradGradGradGradGradGradGradGradGradGrad

 ---------------------------------------------------------------------------------------------------
                            Z-MATRIX (ANGSTROMS AND DEGREES)
   CD    Cent   Atom    N1       Length/X        N2       Alpha/Y        N3        Beta/Z          J
 ---------------------------------------------------------------------------------------------------
      1      1  C 
      2      2  C        1   1.388060(     1)
      3      3  S        1   1.812713(     2)      2  118.565(    21)
      4      4  C        1   1.391402(     3)      2  121.011(    22)      3  176.464(    40)      0
      5      5  C        3   1.867011(     4)      1   96.204(    23)      2 -102.401(    41)      0
      6      6  O        3   1.485446(     5)      1  106.928(    24)      5  109.162(    42)      0
      7      7  H        2   1.082782(     6)      1  118.945(    25)      3    1.445(    43)      0
      8      8  C        2   1.391037(     7)      1  119.254(    26)      7 -179.161(    44)      0
      9      9  C        4   1.389524(     8)      1  119.391(    27)      2    1.443(    45)      0
     10     10  H        4   1.084139(     9)      1  120.374(    28)      9 -179.152(    46)      0
     11     11  C        5   1.488488(    10)      3  110.311(    29)      1 -176.843(    47)      0
     12     12  H        5   1.092219(    11)      3  105.946(    30)     11  121.998(    48)      0
     13     13  H        5   1.090746(    12)      3  105.182(    31)     11 -121.641(    49)      0
     14     14  H        8   1.082857(    13)      2  119.676(    32)      1 -180.079(    50)      0
     15     15  C        8   1.390742(    14)      2  120.216(    33)     14 -179.599(    51)      0
     16     16  H        9   1.083062(    15)      4  119.818(    34)      1  180.025(    52)      0
     17     17  C       11   1.327670(    16)      5  124.093(    35)      3 -103.534(    53)      0
     18     18  H       11   1.086105(    17)      5  116.344(    36)     17  178.170(    54)      0
     19     19  H       15   1.082930(    18)      8  119.981(    37)      2  179.584(    55)      0
     20     20  H       17   1.082039(    19)     11  121.408(    38)      5  178.816(    56)      0
     21     21  H       17   1.083459(    20)     11  121.656(    39)     20 -179.529(    57)      0
 ---------------------------------------------------------------------------------------------------
                         Z-Matrix orientation:                         
 ---------------------------------------------------------------------
 Center     Atomic      Atomic             Coordinates (Angstroms)
 Number     Number       Type             X           Y           Z
 ---------------------------------------------------------------------
      1          6           0        0.000000    0.000000    0.000000
      2          6           0        0.000000    0.000000    1.388060
      3         16           0        1.592064    0.000000   -0.866754
      4          6           0       -1.190255   -0.073554   -0.716857
      5          6           0        1.578692    1.812773   -1.313303
      6          8           0        2.646704   -0.167298    0.165861
      7          1           0        0.947226    0.023888    1.912093
      8          6           0       -1.212661   -0.048363    2.067837
      9          6           0       -2.397850   -0.117626   -0.030893
     10          1           0       -1.176309   -0.110151   -1.800289
     11          6           0        2.771539    2.150819   -2.136976
     12          1           0        0.640879    1.983568   -1.846481
     13          1           0        1.564819    2.341816   -0.359549
     14          1           0       -1.220585   -0.049977    3.150664
     15          6           0       -2.409368   -0.102859    1.361377
     16          1           0       -3.328451   -0.175345   -0.581960
     17          6           0        3.840142    2.787597   -1.672962
     18          1           0        2.752915    1.819177   -3.171041
     19          1           0       -3.350951   -0.147207    1.894475
     20          1           0        4.692412    2.994791   -2.306613
     21          1           0        3.903027    3.116847   -0.642660
 ---------------------------------------------------------------------
                    Distance matrix (angstroms):
                    1          2          3          4          5
     1  C    0.000000
     2  C    1.388060   0.000000
     3  S    1.812713   2.760227   0.000000
     4  C    1.391402   2.419254   2.787324   0.000000
     5  C    2.739193   3.616044   1.867011   3.403093   0.000000
     6  O    2.657168   2.920069   1.485446   3.938304   2.692444
     7  H    2.133988   1.082782   2.852783   3.389645   3.741929
     8  C    2.397673   1.391037   4.059636   2.784898   4.763148
     9  C    2.400932   2.788718   4.078224   1.389524   4.602597
    10  H    2.153341   3.400206   2.923613   1.084139   3.394823
    11  C    4.107812   4.973261   2.762363   4.760292   1.488488
    12  H    2.784737   3.848054   2.408144   2.976718   1.092219
    13  H    2.839373   3.314649   2.396268   3.681319   1.090746
    14  H    3.379203   2.144551   4.904400   3.867712   5.588631
    15  C    2.769293   2.411711   4.581114   2.409596   5.169930
    16  H    3.383491   3.871732   4.931868   2.144864   5.344860
    17  C    5.031519   5.646879   3.670766   5.865595   2.488733
    18  H    4.576401   5.627908   3.157011   5.015380   2.197733
    19  H    3.852217   3.392196   5.663872   3.390146   6.199414
    20  H    6.025609   6.681176   4.544681   6.822597   3.475498
    21  H    5.036007   5.391862   3.886580   6.010464   2.748255
                    6          7          8          9         10
     6  O    0.000000
     7  H    2.444198   0.000000
     8  C    4.304226   2.166700   0.000000
     9  C    5.048635   3.871014   2.411252   0.000000
    10  H    4.299354   4.278918   3.868790   2.150112   0.000000
    11  C    3.269909   4.924115   6.196023   6.025281   4.561891
    12  H    3.563577   4.249832   4.783956   4.116461   2.772718
    13  H    2.782478   3.303721   4.395402   4.675427   3.949893
    14  H    4.886588   2.497783   1.082857   3.393057   4.951516
    15  C    5.195891   3.403833   1.390742   1.392396   3.393614
    16  H    6.021776   4.953928   3.393245   1.083062   2.473922
    17  C    3.679262   5.372119   6.896888   7.074550   5.794647
    18  H    3.884878   5.685229   6.830764   6.335781   4.586946
    19  H    6.241825   4.301617   2.147582   2.148562   4.287390
    20  H    4.505203   6.375748   7.954023   8.070803   6.658747
    21  H    3.608000   4.982963   6.598152   7.108947   6.128073
                   11         12         13         14         15
    11  C    0.000000
    12  H    2.156867   0.000000
    13  H    2.156826   1.786890   0.000000
    14  H    6.981382   5.707172   5.079444   0.000000
    15  C    6.645249   4.893622   4.973147   2.148849   0.000000
    16  H    6.711110   4.692068   5.507237   4.288507   2.150936
    17  C    1.327670   3.303310   2.664745   7.545207   7.524515
    18  H    1.086105   2.498436   3.096645   7.697168   7.133457
    19  H    7.682343   5.871086   5.953205   2.475060   1.082930
    20  H    2.104951   4.201097   3.741560   8.603257   8.572332
    21  H    2.108662   3.657201   2.479524   7.118250   7.364034
                   16         17         18         19         20
    16  H    0.000000
    17  C    7.833137   0.000000
    18  H    6.903946   2.089053   0.000000
    19  H    2.476697   8.547017   8.172105   0.000000
    20  H    8.795365   1.082039   2.427128   9.602967   0.000000
    21  H    7.945847   1.083459   3.065847   8.349329   1.845744
                   21
    21  H    0.000000
 Symmetry turned off by external request.
 Stoichiometry    C9H10OS
 Framework group  C1[X(C9H10OS)]
 Deg. of freedom    57
 Full point group                 C1      NOp   1
 Rotational constants (GHZ):           2.3430293           0.5233273           0.4877257
 Standard basis: def2TZVP (5D, 7F)
 The following finite field(s) will be applied:
 An electric field of             -0.0024  0.0005 -0.0001
   407 basis functions,   659 primitive gaussians,   462 cartesian basis functions
    44 alpha electrons       44 beta electrons
       nuclear repulsion energy       664.6145865203 Hartrees.
 NAtoms=   21 NActive=   21 NUniq=   21 SFac= 1.00D+00 NAtFMM=   60 NAOKFM=F Big=F
 Integral buffers will be    131072 words long.
 Raffenetti 2 integral format.
 Two-electron integral symmetry is turned off.
 One-electron integrals computed using PRISM.
   1 Symmetry operations used in ECPInt.
 ECPInt:  NShTT=   13366 NPrTT=   41614 LenC2=   12466 LenP2D=   29239.
 LDataN:  DoStor=T MaxTD1= 6 Len=  172
 NBasis=   407 RedAO= T EigKep=  8.67D-06  NBF=   407
 NBsUse=   407 1.00D-06 EigRej= -1.00D+00 NBFU=   407
 The nuclear repulsion energy is now       664.4001946000 hartrees.
 Initial guess from the checkpoint file:  "checkpoint.chk"
 B after Tr=     0.004369   -0.006412    0.006602
         Rot=    0.999999   -0.000229    0.001204    0.000165 Ang=  -0.14 deg.
 Requested convergence on RMS density matrix=1.00D-08 within 128 cycles.
 Requested convergence on MAX density matrix=1.00D-06.
 Requested convergence on             energy=1.00D-06.
 No special actions if energy rises.
 SCF Done:  E(RB3LYP) =  -822.529590456     A.U. after    9 cycles
            NFock=  9  Conv=0.97D-08     -V/T= 2.0035
   1 Symmetry operations used in ECPInt.
 ECPInt:  NShTT=   13366 NPrTT=   41614 LenC2=   12466 LenP2D=   29239.
 LDataN:  DoStor=T MaxTD1= 7 Len=  274
 Calling FoFJK, ICntrl=      2127 FMM=F ISym2X=0 I1Cent= 0 IOpClX= 0 NMat=1 NMatS=1 NMatT=0.
 -------------------------------------------------------------------
 Center     Atomic                   Forces (Hartrees/Bohr)
 Number     Number              X              Y              Z
 -------------------------------------------------------------------
      1        6          -0.000381551    0.000357025   -0.000382827
      2        6          -0.000133039   -0.000102011    0.000122304
      3       16           0.001058259   -0.000273201    0.000937433
      4        6          -0.000156670    0.000032261    0.000270608
      5        6          -0.000169830    0.000105389   -0.000079312
      6        8          -0.000364689   -0.000005594   -0.000622794
      7        1           0.000008756   -0.000045555   -0.000048159
      8        6           0.000000866    0.000027532   -0.000029034
      9        6          -0.000001458   -0.000001214    0.000034868
     10        1           0.000015487    0.000000231   -0.000019743
     11        6           0.000031577    0.000062188   -0.000155289
     12        1           0.000011868   -0.000006280   -0.000005961
     13        1           0.000013284   -0.000055005    0.000002166
     14        1           0.000031049   -0.000013157   -0.000007402
     15        6          -0.000016117    0.000020753   -0.000096443
     16        1           0.000002326   -0.000012405   -0.000005727
     17        6          -0.000093111    0.000034390    0.000009087
     18        1           0.000028682   -0.000008618    0.000019330
     19        1           0.000004062   -0.000020732    0.000000825
     20        1           0.000079574   -0.000067054    0.000052708
     21        1           0.000030675   -0.000028944    0.000003362
 -------------------------------------------------------------------
 Cartesian Forces:  Max     0.001058259 RMS     0.000228199
 -----------------------------------------------------------------------------------------------
                       Internal Coordinate Forces (Hartree/Bohr or radian)
  Cent   Atom   N1       Length/X         N2         Alpha/Y        N3         Beta/Z          J
 -----------------------------------------------------------------------------------------------
      1  C 
      2  C        1  -0.000058(     1)
      3  S        1   0.000473(     2)      2  -0.001179(    21)
      4  C        1  -0.000025(     3)      2  -0.000843(    22)      3   0.000008(    40)     0
      5  C        3   0.000072(     4)      1   0.000323(    23)      2  -0.000010(    41)     0
      6  O        3  -0.000691(     5)      1   0.000525(    24)      5   0.000243(    42)     0
      7  H        2  -0.000017(     6)      1  -0.000094(    25)      3  -0.000077(    43)     0
      8  C        2  -0.000082(     7)      1  -0.000410(    26)      7   0.000005(    44)     0
      9  C        4   0.000014(     8)      1  -0.000054(    27)      2  -0.000033(    45)     0
     10  H        4   0.000020(     9)      1  -0.000031(    28)      9  -0.000000(    46)     0
     11  C        5   0.000099(    10)      3  -0.000326(    29)      1  -0.000160(    47)     0
     12  H        5  -0.000008(    11)      3  -0.000005(    30)     11  -0.000024(    48)     0
     13  H        5  -0.000025(    12)      3  -0.000101(    31)     11   0.000025(    49)     0
     14  H        8  -0.000008(    13)      2  -0.000062(    32)      1  -0.000028(    50)     0
     15  C        8   0.000059(    14)      2  -0.000196(    33)     14  -0.000002(    51)     0
     16  H        9   0.000002(    15)      4  -0.000012(    34)      1   0.000022(    52)     0
     17  C       11   0.000007(    16)      5  -0.000188(    35)      3   0.000175(    53)     0
     18  H       11  -0.000016(    17)      5   0.000040(    36)     17  -0.000046(    54)     0
     19  H       15  -0.000002(    18)      8  -0.000005(    37)      2  -0.000037(    55)     0
     20  H       17   0.000019(    19)     11   0.000097(    38)      5  -0.000115(    56)     0
     21  H       17  -0.000004(    20)     11   0.000034(    39)     20   0.000068(    57)     0
 -----------------------------------------------------------------------------------------------
 Internal  Forces:  Max     0.001179076 RMS     0.000256378

 GradGradGradGradGradGradGradGradGradGradGradGradGradGradGradGradGradGrad
 Berny optimization.
 Search for a local minimum.
 Step number   2 out of a maximum of   67
 All quantities printed in internal units (Hartrees-Bohrs-Radians)
 Update second derivatives using D2CorN and points    1    2
 DE= -2.48D-05 DEPred=-2.14D-05 R= 1.16D+00
 TightC=F SS=  1.41D+00  RLast= 1.53D-02 DXNew= 1.6818D-01 4.5927D-02
 Trust test= 1.16D+00 RLast= 1.53D-02 DXMaxT set to 1.00D-01
 ITU=  1  0
     Eigenvalues ---    0.01897   0.03356   0.03890   0.03908   0.04046
     Eigenvalues ---    0.05129   0.05411   0.07315   0.08687   0.09338
     Eigenvalues ---    0.12926   0.14337   0.14738   0.16754   0.17298
     Eigenvalues ---    0.18828   0.20577   0.21114   0.21475   0.22690
     Eigenvalues ---    0.23293   0.24603   0.24842   0.25031   0.27462
     Eigenvalues ---    0.29787   0.30184   0.30732   0.33624   0.34602
     Eigenvalues ---    0.34745   0.35263   0.35499   0.35579   0.35651
     Eigenvalues ---    0.35661   0.35681   0.35684   0.35724   0.35775
     Eigenvalues ---    0.37320   0.37817   0.44261   0.47128   0.47246
     Eigenvalues ---    0.47464   0.48376   0.48885   0.49702   0.55210
     Eigenvalues ---    0.60050   0.60067   0.69470   0.80416   2.88038
     Eigenvalues ---    4.20969  26.34530
 RFO step:  Lambda=-1.38273395D-05 EMin= 1.89690684D-02
 Quartic linear search produced a step of  0.18343.
 Variable       Old X    -DE/DX   Delta X   Delta X   Delta X     New X
                                 (Linear)    (Quad)   (Total)
    R2        2.62305  -0.00006   0.00001   0.00003   0.00005   2.62310
    R3        3.42553   0.00047   0.00047   0.00260   0.00307   3.42861
    R4        2.62937  -0.00003  -0.00002   0.00000  -0.00002   2.62935
    R5        3.52814   0.00007   0.00009   0.00047   0.00056   3.52870
    R6        2.80709  -0.00069  -0.00055  -0.00082  -0.00137   2.80571
    R7        2.04616  -0.00002   0.00006  -0.00011  -0.00004   2.04612
    R8        2.62868  -0.00008   0.00000  -0.00010  -0.00010   2.62858
    R9        2.62582   0.00001   0.00006  -0.00016  -0.00010   2.62572
   R10        2.04873   0.00002   0.00001   0.00008   0.00009   2.04881
   R11        2.81283   0.00010   0.00009   0.00039   0.00048   2.81332
   R12        2.06400  -0.00001   0.00014  -0.00011   0.00003   2.06402
   R13        2.06121  -0.00002   0.00005  -0.00014  -0.00009   2.06112
   R14        2.04630  -0.00001   0.00003  -0.00005  -0.00002   2.04628
   R15        2.62812   0.00006   0.00003   0.00010   0.00013   2.62825
   R16        2.04669   0.00000   0.00014  -0.00007   0.00006   2.04676
   R17        2.50893   0.00001  -0.00001   0.00002   0.00001   2.50894
   R18        2.05244  -0.00002  -0.00001  -0.00006  -0.00007   2.05238
   R19        2.04644  -0.00000   0.00012  -0.00008   0.00004   2.04648
   R20        2.04476   0.00002  -0.00008   0.00013   0.00005   2.04481
   R21        2.04744  -0.00000  -0.00000  -0.00002  -0.00002   2.04742
    A3        2.06935  -0.00118  -0.00056  -0.00252  -0.00308   2.06627
    A4        2.11204  -0.00084  -0.00013  -0.00007  -0.00020   2.11184
    A5        1.67908   0.00032   0.00019   0.00177   0.00196   1.68104
    A6        1.86625   0.00052  -0.00140   0.00380   0.00240   1.86865
    A7        2.07598  -0.00009  -0.00024  -0.00029  -0.00053   2.07545
    A8        2.08138  -0.00041   0.00016  -0.00020  -0.00004   2.08134
    A9        2.08377  -0.00005   0.00006   0.00027   0.00033   2.08410
   A10        2.10093  -0.00003  -0.00029  -0.00017  -0.00046   2.10047
   A11        1.92530  -0.00033  -0.00042  -0.00102  -0.00145   1.92385
   A12        1.84911  -0.00001   0.00021   0.00162   0.00183   1.85094
   A13        1.83578  -0.00010  -0.00011  -0.00163  -0.00174   1.83404
   A14        2.08875  -0.00006  -0.00011  -0.00029  -0.00039   2.08835
   A15        2.09817  -0.00020  -0.00005   0.00015   0.00009   2.09826
   A16        2.09121  -0.00001  -0.00005   0.00005  -0.00000   2.09121
   A17        2.16583  -0.00019  -0.00013  -0.00037  -0.00051   2.16532
   A18        2.03059   0.00004   0.00006   0.00028   0.00033   2.03092
   A19        2.09406  -0.00000  -0.00009   0.00001  -0.00008   2.09398
   A20        2.11897   0.00010  -0.00002   0.00012   0.00010   2.11907
   A21        2.12329   0.00003   0.00016   0.00015   0.00031   2.12361
    D4        3.07987   0.00001  -0.00058  -0.00018  -0.00076   3.07911
    D5       -1.78723  -0.00001   0.00006  -0.00588  -0.00582  -1.79305
    D6        1.90523   0.00024  -0.00027   0.00309   0.00282   1.90805
    D7        0.02521  -0.00008   0.00029  -0.00054  -0.00024   0.02497
    D8       -3.12695   0.00001   0.00041   0.00128   0.00169  -3.12526
    D9        0.02519  -0.00003  -0.00018  -0.00148  -0.00166   0.02353
   D10       -3.12680  -0.00000   0.00046   0.00158   0.00204  -3.12476
   D11       -3.08649  -0.00016  -0.00043  -0.00491  -0.00535  -3.09184
   D12        2.12926  -0.00002   0.00017   0.00172   0.00189   2.13115
   D13       -2.12304   0.00003   0.00043   0.00224   0.00268  -2.12037
   D14       -3.14297  -0.00003  -0.00036  -0.00139  -0.00175  -3.14472
   D15       -3.13459  -0.00000   0.00036   0.00205   0.00241  -3.13218
   D16        3.14203   0.00002   0.00050   0.00202   0.00252   3.14455
   D17       -1.80702   0.00018   0.00098   0.01073   0.01171  -1.79530
   D18        3.10965  -0.00005  -0.00075  -0.00469  -0.00543   3.10422
   D19        3.13433  -0.00004  -0.00047  -0.00206  -0.00252   3.13180
   D20        3.12092  -0.00012  -0.00060  -0.00579  -0.00638   3.11454
   D21       -3.13336   0.00007   0.00074   0.00374   0.00448  -3.12888
         Item               Value     Threshold  Converged?
 Maximum Force            0.001179     0.000450     NO 
 RMS     Force            0.000256     0.000300     YES
 Maximum Displacement     0.011714     0.001800     NO 
 RMS     Displacement     0.002587     0.001200     NO 
 Predicted change in Energy=-6.750172D-06
 GradGradGradGradGradGradGradGradGradGradGradGradGradGradGradGradGradGrad

 ---------------------------------------------------------------------------------------------------
                            Z-MATRIX (ANGSTROMS AND DEGREES)
   CD    Cent   Atom    N1       Length/X        N2       Alpha/Y        N3        Beta/Z          J
 ---------------------------------------------------------------------------------------------------
      1      1  C 
      2      2  C        1   1.388085(     1)
      3      3  S        1   1.814340(     2)      2  118.388(    21)
      4      4  C        1   1.391392(     3)      2  121.000(    22)      3  176.420(    40)      0
      5      5  C        3   1.867308(     4)      1   96.316(    23)      2 -102.734(    41)      0
      6      6  O        3   1.484720(     5)      1  107.066(    24)      5  109.323(    42)      0
      7      7  H        2   1.082760(     6)      1  118.914(    25)      3    1.431(    43)      0
      8      8  C        2   1.390985(     7)      1  119.252(    26)      7 -179.064(    44)      0
      9      9  C        4   1.389472(     8)      1  119.410(    27)      2    1.348(    45)      0
     10     10  H        4   1.084185(     9)      1  120.348(    28)      9 -179.036(    46)      0
     11     11  C        5   1.488743(    10)      3  110.228(    29)      1 -177.149(    47)      0
     12     12  H        5   1.092233(    11)      3  106.051(    30)     11  122.106(    48)      0
     13     13  H        5   1.090698(    12)      3  105.083(    31)     11 -121.488(    49)      0
     14     14  H        8   1.082847(    13)      2  119.654(    32)      1 -180.179(    50)      0
     15     15  C        8   1.390812(    14)      2  120.222(    33)     14 -179.461(    51)      0
     16     16  H        9   1.083097(    15)      4  119.818(    34)      1  180.170(    52)      0
     17     17  C       11   1.327676(    16)      5  124.064(    35)      3 -102.863(    53)      0
     18     18  H       11   1.086070(    17)      5  116.363(    36)     17  177.859(    54)      0
     19     19  H       15   1.082952(    18)      8  119.976(    37)      2  179.439(    55)      0
     20     20  H       17   1.082066(    19)     11  121.414(    38)      5  178.450(    56)      0
     21     21  H       17   1.083448(    20)     11  121.674(    39)     20 -179.272(    57)      0
 ---------------------------------------------------------------------------------------------------
                         Z-Matrix orientation:                         
 ---------------------------------------------------------------------
 Center     Atomic      Atomic             Coordinates (Angstroms)
 Number     Number       Type             X           Y           Z
 ---------------------------------------------------------------------
      1          6           0        0.000000    0.000000    0.000000
      2          6           0        0.000000    0.000000    1.388085
      3         16           0        1.596157    0.000000   -0.862620
      4          6           0       -1.190332   -0.074469   -0.716614
      5          6           0        1.582380    1.810319   -1.320215
      6          8           0        2.649842   -0.162859    0.170635
      7          1           0        0.947490    0.023666    1.911603
      8          6           0       -1.212572   -0.050118    2.067787
      9          6           0       -2.397840   -0.121477   -0.030797
     10          1           0       -1.176062   -0.111402   -1.800076
     11          6           0        2.782411    2.144322   -2.135520
     12          1           0        0.648390    1.978005   -1.861063
     13          1           0        1.561780    2.343381   -0.368877
     14          1           0       -1.220045   -0.053373    3.150603
     15          6           0       -2.409263   -0.107142    1.361361
     16          1           0       -3.328229   -0.182288   -0.581957
     17          6           0        3.851087    2.774254   -1.662402
     18          1           0        2.771197    1.811127   -3.169156
     19          1           0       -3.350608   -0.155212    1.894599
     20          1           0        4.711131    2.973754   -2.288014
     21          1           0        3.908242    3.101877   -0.631259
 ---------------------------------------------------------------------
                    Distance matrix (angstroms):
                    1          2          3          4          5
     1  C    0.000000
     2  C    1.388085   0.000000
     3  S    1.814340   2.759237   0.000000
     4  C    1.391392   2.419131   2.791305   0.000000
     5  C    2.743018   3.621611   1.867308   3.406566   0.000000
     6  O    2.660320   2.920679   1.484720   3.942329   2.693611
     7  H    2.133665   1.082760   2.849148   3.389313   3.746981
     8  C    2.397621   1.390985   4.059404   2.784597   4.769858
     9  C    2.401113   2.788838   4.081507   1.389472   4.608317
    10  H    2.153092   3.399986   2.928554   1.084185   3.395921
    11  C    4.111006   4.975512   2.761447   4.766446   1.488743
    12  H    2.792216   3.858740   2.409908   2.983842   1.092233
    13  H    2.840186   3.319263   2.395078   3.679815   1.090698
    14  H    3.379003   2.144255   4.903040   3.867389   5.595994
    15  C    2.769355   2.411792   4.582680   2.409324   5.176941
    16  H    3.383638   3.871873   4.935744   2.144845   5.350662
    17  C    5.029009   5.642059   3.663447   5.867337   2.488633
    18  H    4.582932   5.632776   3.159274   5.026345   2.198152
    19  H    3.852294   3.392229   5.665406   3.389948   6.207472
    20  H    6.022705   6.674704   4.536301   6.825557   3.475529
    21  H    5.029363   5.382727   3.875682   6.007655   2.748166
                    6          7          8          9         10
     6  O    0.000000
     7  H    2.442082   0.000000
     8  C    4.304665   2.166958   0.000000
     9  C    5.051869   3.871075   2.411225   0.000000
    10  H    4.303939   4.278350   3.868522   2.150161   0.000000
    11  C    3.264814   4.923751   6.200262   6.033134   4.568404
    12  H    3.566077   4.259333   4.797117   4.127616   2.774521
    13  H    2.784994   3.310441   4.400364   4.676367   3.945892
    14  H    4.885511   2.497852   1.082847   3.393103   4.951215
    15  C    5.197641   3.404066   1.390812   1.392278   3.393448
    16  H    6.025288   4.953991   3.393319   1.083097   2.473997
    17  C    3.664649   5.363779   6.894348   7.077887   5.798119
    18  H    3.881438   5.686391   6.838146   6.348481   4.599060
    19  H    6.243197   4.301852   2.147612   2.148500   4.287329
    20  H    4.486893   6.364338   7.950288   8.075454   6.664481
    21  H    3.589583   4.970673   6.591105   7.107548   6.127107
                   11         12         13         14         15
    11  C    0.000000
    12  H    2.158016   0.000000
    13  H    2.156523   1.787288   0.000000
    14  H    6.985171   5.721394   5.086229   0.000000
    15  C    6.652123   4.907249   4.976742   2.149074   0.000000
    16  H    6.720609   4.702815   5.507866   4.288714   2.150960
    17  C    1.327676   3.306168   2.664542   7.541676   7.525793
    18  H    1.086070   2.499054   3.096377   7.703619   7.144404
    19  H    7.690490   5.886221   5.958007   2.475322   1.082952
    20  H    2.105036   4.204720   3.741507   8.597727   8.573790
    21  H    2.108841   3.660894   2.479929   7.110374   7.360653
                   16         17         18         19         20
    16  H    0.000000
    17  C    7.839073   0.000000
    18  H    6.918837   2.089039   0.000000
    19  H    2.476805   8.549762   8.184412   0.000000
    20  H    8.803553   1.082066   2.427232   9.606056   0.000000
    21  H    7.946992   1.083448   3.065914   8.347425   1.845503
                   21
    21  H    0.000000
 Symmetry turned off by external request.
 Stoichiometry    C9H10OS
 Framework group  C1[X(C9H10OS)]
 Deg. of freedom    57
 Full point group                 C1      NOp   1
 Rotational constants (GHZ):           2.3503040           0.5229788           0.4871818
 Standard basis: def2TZVP (5D, 7F)
 The following finite field(s) will be applied:
 An electric field of             -0.0024  0.0005 -0.0001
   407 basis functions,   659 primitive gaussians,   462 cartesian basis functions
    44 alpha electrons       44 beta electrons
       nuclear repulsion energy       664.5498022942 Hartrees.
 NAtoms=   21 NActive=   21 NUniq=   21 SFac= 1.00D+00 NAtFMM=   60 NAOKFM=F Big=F
 Integral buffers will be    131072 words long.
 Raffenetti 2 integral format.
 Two-electron integral symmetry is turned off.
 One-electron integrals computed using PRISM.
   1 Symmetry operations used in ECPInt.
 ECPInt:  NShTT=   13366 NPrTT=   41614 LenC2=   12466 LenP2D=   29242.
 LDataN:  DoStor=T MaxTD1= 6 Len=  172
 NBasis=   407 RedAO= T EigKep=  8.67D-06  NBF=   407
 NBsUse=   407 1.00D-06 EigRej= -1.00D+00 NBFU=   407
 The nuclear repulsion energy is now       664.3337980003 hartrees.
 Initial guess from the checkpoint file:  "checkpoint.chk"
 B after Tr=     0.005015   -0.003905    0.002125
         Rot=    0.999999    0.000552    0.000858    0.000208 Ang=   0.12 deg.
 Requested convergence on RMS density matrix=1.00D-08 within 128 cycles.
 Requested convergence on MAX density matrix=1.00D-06.
 Requested convergence on             energy=1.00D-06.
 No special actions if energy rises.
 SCF Done:  E(RB3LYP) =  -822.529595133     A.U. after    9 cycles
            NFock=  9  Conv=0.68D-08     -V/T= 2.0035
   1 Symmetry operations used in ECPInt.
 ECPInt:  NShTT=   13366 NPrTT=   41614 LenC2=   12466 LenP2D=   29242.
 LDataN:  DoStor=T MaxTD1= 7 Len=  274
 Calling FoFJK, ICntrl=      2127 FMM=F ISym2X=0 I1Cent= 0 IOpClX= 0 NMat=1 NMatS=1 NMatT=0.
 -------------------------------------------------------------------
 Center     Atomic                   Forces (Hartrees/Bohr)
 Number     Number              X              Y              Z
 -------------------------------------------------------------------
      1        6           0.000251525    0.000671899   -0.000038600
      2        6          -0.000256339   -0.000170380    0.000036125
      3       16           0.000153183   -0.000737099   -0.000395229
      4        6           0.000155240   -0.000080854   -0.000072623
      5        6           0.000020267    0.000199898    0.000298051
      6        8          -0.000293749    0.000203149    0.000050156
      7        1          -0.000006425    0.000028881    0.000038196
      8        6           0.000004172   -0.000107159    0.000029398
      9        6           0.000029659   -0.000021841    0.000012702
     10        1          -0.000028435    0.000030461   -0.000001475
     11        6          -0.000011021   -0.000179034   -0.000055546
     12        1           0.000038744   -0.000117169    0.000055796
     13        1          -0.000049740    0.000124766   -0.000035155
     14        1          -0.000025522    0.000041215    0.000006503
     15        6           0.000000023   -0.000012742    0.000054854
     16        1           0.000028683    0.000046110    0.000004355
     17        6           0.000049344   -0.000110739    0.000042939
     18        1          -0.000025025    0.000068461   -0.000013284
     19        1           0.000013082    0.000039903   -0.000005060
     20        1          -0.000006980    0.000050830   -0.000004105
     21        1          -0.000040684    0.000031444   -0.000008000
 -------------------------------------------------------------------
 Cartesian Forces:  Max     0.000737099 RMS     0.000167093
 -----------------------------------------------------------------------------------------------
                       Internal Coordinate Forces (Hartree/Bohr or radian)
  Cent   Atom   N1       Length/X         N2         Alpha/Y        N3         Beta/Z          J
 -----------------------------------------------------------------------------------------------
      1  C 
      2  C        1   0.000160(     1)
      3  S        1  -0.000115(     2)      2  -0.000149(    21)
      4  C        1  -0.000128(     3)      2   0.000231(    22)      3   0.000044(    40)     0
      5  C        3  -0.000002(     4)      1  -0.000357(    23)      2  -0.000002(    41)     0
      6  O        3  -0.000196(     5)      1  -0.000660(    24)      5  -0.000512(    42)     0
      7  H        2   0.000013(     6)      1   0.000074(    25)      3   0.000010(    43)     0
      8  C        2   0.000050(     7)      1   0.000235(    26)      7  -0.000042(    44)     0
      9  C        4  -0.000043(     8)      1  -0.000094(    27)      2  -0.000007(    45)     0
     10  H        4   0.000000(     9)      1   0.000056(    28)      9  -0.000056(    46)     0
     11  C        5  -0.000038(    10)      3  -0.000222(    29)      1   0.000038(    47)     0
     12  H        5  -0.000079(    11)      3  -0.000227(    30)     11   0.000010(    48)     0
     13  H        5   0.000031(    12)      3   0.000260(    31)     11  -0.000097(    49)     0
     14  H        8   0.000007(    13)      2   0.000049(    32)      1   0.000016(    50)     0
     15  C        8  -0.000038(    14)      2   0.000100(    33)     14  -0.000059(    51)     0
     16  H        9  -0.000029(    15)      4  -0.000023(    34)      1  -0.000079(    52)     0
     17  C       11  -0.000001(    16)      5  -0.000145(    35)      3   0.000121(    53)     0
     18  H       11  -0.000008(    17)      5   0.000014(    36)     17   0.000135(    54)     0
     19  H       15  -0.000016(    18)      8  -0.000006(    37)      2   0.000069(    55)     0
     20  H       17   0.000006(    19)     11   0.000033(    38)      5   0.000004(    56)     0
     21  H       17  -0.000000(    20)     11  -0.000049(    39)     20  -0.000080(    57)     0
 -----------------------------------------------------------------------------------------------
 Internal  Forces:  Max     0.000659762 RMS     0.000154483

 GradGradGradGradGradGradGradGradGradGradGradGradGradGradGradGradGradGrad
 Berny optimization.
 Search for a local minimum.
 Step number   3 out of a maximum of   67
 All quantities printed in internal units (Hartrees-Bohrs-Radians)
 Update second derivatives using D2CorN and points    1    2    3
 DE= -4.68D-06 DEPred=-6.75D-06 R= 6.93D-01
 TightC=F SS=  1.41D+00  RLast= 1.95D-02 DXNew= 1.6818D-01 5.8600D-02
 Trust test= 6.93D-01 RLast= 1.95D-02 DXMaxT set to 1.00D-01
 ITU=  1  1  0
     Eigenvalues ---    0.01939   0.03511   0.03880   0.03923   0.04092
     Eigenvalues ---    0.05144   0.05434   0.07324   0.08747   0.09378
     Eigenvalues ---    0.12914   0.14337   0.14737   0.16757   0.17855
     Eigenvalues ---    0.18880   0.20582   0.21109   0.21471   0.22678
     Eigenvalues ---    0.23314   0.24539   0.24852   0.25075   0.27595
     Eigenvalues ---    0.29789   0.30185   0.30736   0.33626   0.34611
     Eigenvalues ---    0.34745   0.35263   0.35497   0.35578   0.35617
     Eigenvalues ---    0.35661   0.35680   0.35683   0.35720   0.35736
     Eigenvalues ---    0.37318   0.37828   0.44231   0.47134   0.47246
     Eigenvalues ---    0.47464   0.48377   0.48884   0.49699   0.55208
     Eigenvalues ---    0.60017   0.60055   0.69276   0.80262   2.88033
     Eigenvalues ---    4.20969  26.34533
 RFO step:  Lambda=-3.68627359D-06 EMin= 1.93898901D-02
 Quartic linear search produced a step of -0.25603.
 Variable       Old X    -DE/DX   Delta X   Delta X   Delta X     New X
                                 (Linear)    (Quad)   (Total)
    R2        2.62310   0.00016  -0.00001   0.00023   0.00021   2.62331
    R3        3.42861  -0.00012  -0.00079   0.00053  -0.00026   3.42835
    R4        2.62935  -0.00013   0.00001  -0.00027  -0.00027   2.62908
    R5        3.52870  -0.00000  -0.00014   0.00016   0.00002   3.52872
    R6        2.80571  -0.00020   0.00035  -0.00063  -0.00027   2.80544
    R7        2.04612   0.00001   0.00001   0.00002   0.00003   2.04615
    R8        2.62858   0.00005   0.00003  -0.00002   0.00001   2.62859
    R9        2.62572  -0.00004   0.00003  -0.00003  -0.00000   2.62572
   R10        2.04881   0.00000  -0.00002   0.00003   0.00000   2.04882
   R11        2.81332  -0.00004  -0.00012   0.00004  -0.00008   2.81323
   R12        2.06402  -0.00008  -0.00001  -0.00021  -0.00021   2.06381
   R13        2.06112   0.00003   0.00002   0.00005   0.00008   2.06120
   R14        2.04628   0.00001   0.00001   0.00001   0.00001   2.04630
   R15        2.62825  -0.00004  -0.00003  -0.00002  -0.00005   2.62820
   R16        2.04676  -0.00003  -0.00002  -0.00006  -0.00008   2.04668
   R17        2.50894  -0.00000  -0.00000   0.00000  -0.00000   2.50894
   R18        2.05238  -0.00001   0.00002  -0.00004  -0.00002   2.05235
   R19        2.04648  -0.00002  -0.00001  -0.00003  -0.00004   2.04644
   R20        2.04481   0.00001  -0.00001   0.00003   0.00002   2.04483
   R21        2.04742  -0.00000   0.00001  -0.00001  -0.00000   2.04742
    A3        2.06627  -0.00015   0.00079  -0.00131  -0.00052   2.06575
    A4        2.11184   0.00023   0.00005   0.00028   0.00033   2.11218
    A5        1.68104  -0.00036  -0.00050  -0.00119  -0.00169   1.67935
    A6        1.86865  -0.00066  -0.00061  -0.00179  -0.00240   1.86625
    A7        2.07545   0.00007   0.00014   0.00009   0.00023   2.07568
    A8        2.08134   0.00023   0.00001  -0.00009  -0.00008   2.08126
    A9        2.08410  -0.00009  -0.00009  -0.00029  -0.00037   2.08373
   A10        2.10047   0.00006   0.00012   0.00023   0.00034   2.10082
   A11        1.92385  -0.00022   0.00037  -0.00117  -0.00080   1.92305
   A12        1.85094  -0.00023  -0.00047  -0.00028  -0.00075   1.85019
   A13        1.83404   0.00026   0.00044   0.00066   0.00111   1.83515
   A14        2.08835   0.00005   0.00010   0.00010   0.00020   2.08856
   A15        2.09826   0.00010  -0.00002  -0.00013  -0.00015   2.09811
   A16        2.09121  -0.00002   0.00000  -0.00018  -0.00018   2.09104
   A17        2.16532  -0.00014   0.00013  -0.00052  -0.00039   2.16493
   A18        2.03092   0.00001  -0.00008   0.00032   0.00023   2.03115
   A19        2.09398  -0.00001   0.00002  -0.00005  -0.00003   2.09395
   A20        2.11907   0.00003  -0.00002   0.00022   0.00019   2.11926
   A21        2.12361  -0.00005  -0.00008  -0.00013  -0.00021   2.12340
    D4        3.07911   0.00004   0.00020   0.00031   0.00050   3.07962
    D5       -1.79305  -0.00000   0.00149  -0.00268  -0.00119  -1.79425
    D6        1.90805  -0.00051  -0.00072  -0.00223  -0.00295   1.90510
    D7        0.02497   0.00001   0.00006  -0.00021  -0.00014   0.02483
    D8       -3.12526  -0.00004  -0.00043   0.00013  -0.00030  -3.12555
    D9        0.02353  -0.00001   0.00042   0.00004   0.00047   0.02400
   D10       -3.12476  -0.00006  -0.00052  -0.00040  -0.00092  -3.12569
   D11       -3.09184   0.00004   0.00137  -0.00135   0.00002  -3.09182
   D12        2.13115   0.00001  -0.00048  -0.00010  -0.00058   2.13057
   D13       -2.12037  -0.00010  -0.00069   0.00017  -0.00052  -2.12088
   D14       -3.14472   0.00002   0.00045  -0.00005   0.00039  -3.14433
   D15       -3.13218  -0.00006  -0.00062  -0.00035  -0.00097  -3.13315
   D16        3.14455  -0.00008  -0.00064  -0.00052  -0.00117   3.14338
   D17       -1.79530   0.00012  -0.00300   0.00547   0.00247  -1.79283
   D18        3.10422   0.00013   0.00139  -0.00167  -0.00028   3.10395
   D19        3.13180   0.00007   0.00065   0.00049   0.00114   3.13294
   D20        3.11454   0.00000   0.00163  -0.00189  -0.00025   3.11428
   D21       -3.12888  -0.00008  -0.00115   0.00064  -0.00051  -3.12939
         Item               Value     Threshold  Converged?
 Maximum Force            0.000660     0.000450     NO 
 RMS     Force            0.000154     0.000300     YES
 Maximum Displacement     0.002951     0.001800     NO 
 RMS     Displacement     0.000783     0.001200     YES
 Predicted change in Energy=-2.993938D-06
 GradGradGradGradGradGradGradGradGradGradGradGradGradGradGradGradGradGrad

 ---------------------------------------------------------------------------------------------------
                            Z-MATRIX (ANGSTROMS AND DEGREES)
   CD    Cent   Atom    N1       Length/X        N2       Alpha/Y        N3        Beta/Z          J
 ---------------------------------------------------------------------------------------------------
      1      1  C 
      2      2  C        1   1.388198(     1)
      3      3  S        1   1.814204(     2)      2  118.359(    21)
      4      4  C        1   1.391251(     3)      2  121.019(    22)      3  176.449(    40)      0
      5      5  C        3   1.867318(     4)      1   96.219(    23)      2 -102.803(    41)      0
      6      6  O        3   1.484575(     5)      1  106.928(    24)      5  109.154(    42)      0
      7      7  H        2   1.082776(     6)      1  118.928(    25)      3    1.423(    43)      0
      8      8  C        2   1.390989(     7)      1  119.247(    26)      7 -179.081(    44)      0
      9      9  C        4   1.389469(     8)      1  119.389(    27)      2    1.375(    45)      0
     10     10  H        4   1.084188(     9)      1  120.368(    28)      9 -179.089(    46)      0
     11     11  C        5   1.488700(    10)      3  110.182(    29)      1 -177.148(    47)      0
     12     12  H        5   1.092120(    11)      3  106.008(    30)     11  122.072(    48)      0
     13     13  H        5   1.090738(    12)      3  105.146(    31)     11 -121.518(    49)      0
     14     14  H        8   1.082854(    13)      2  119.666(    32)      1 -180.157(    50)      0
     15     15  C        8   1.390784(    14)      2  120.213(    33)     14 -179.516(    51)      0
     16     16  H        9   1.083055(    15)      4  119.808(    34)      1  180.103(    52)      0
     17     17  C       11   1.327675(    16)      5  124.041(    35)      3 -102.722(    53)      0
     18     18  H       11   1.086057(    17)      5  116.376(    36)     17  177.843(    54)      0
     19     19  H       15   1.082929(    18)      8  119.974(    37)      2  179.504(    55)      0
     20     20  H       17   1.082078(    19)     11  121.425(    38)      5  178.435(    56)      0
     21     21  H       17   1.083447(    20)     11  121.662(    39)     20 -179.301(    57)      0
 ---------------------------------------------------------------------------------------------------
                         Z-Matrix orientation:                         
 ---------------------------------------------------------------------
 Center     Atomic      Atomic             Coordinates (Angstroms)
 Number     Number       Type             X           Y           Z
 ---------------------------------------------------------------------
      1          6           0        0.000000    0.000000    0.000000
      2          6           0        0.000000    0.000000    1.388198
      3         16           0        1.596484    0.000000   -0.861728
      4          6           0       -1.190010   -0.073847   -0.716940
      5          6           0        1.579115    1.810177   -1.319804
      6          8           0        2.647337   -0.157117    0.175086
      7          1           0        0.947387    0.023527    1.911942
      8          6           0       -1.212651   -0.049586    2.067808
      9          6           0       -2.397540   -0.119672   -0.031086
     10          1           0       -1.175788   -0.110357   -1.800419
     11          6           0        2.778905    2.145240   -2.134950
     12          1           0        0.645044    1.974899   -1.861194
     13          1           0        1.556768    2.344513   -0.369175
     14          1           0       -1.220445   -0.052479    3.150631
     15          6           0       -2.409210   -0.105383    1.361117
     16          1           0       -3.327905   -0.178901   -0.582377
     17          6           0        3.847482    2.774564   -1.660802
     18          1           0        2.767770    1.813288   -3.168973
     19          1           0       -3.350716   -0.151980    1.894156
     20          1           0        4.707763    2.974955   -2.285824
     21          1           0        3.904027    3.101196   -0.629313
 ---------------------------------------------------------------------
                    Distance matrix (angstroms):
                    1          2          3          4          5
     1  C    0.000000
     2  C    1.388198   0.000000
     3  S    1.814204   2.758791   0.000000
     4  C    1.391251   2.419335   2.791230   0.000000
     5  C    2.740844   3.619892   1.867318   3.403093   0.000000
     6  O    2.657768   2.916285   1.484575   3.940542   2.691847
     7  H    2.133921   1.082776   2.848707   3.389538   3.746383
     8  C    2.397668   1.390989   4.059049   2.784946   4.767452
     9  C    2.400726   2.788707   4.081239   1.389469   4.604226
    10  H    2.153176   3.400285   2.928961   1.084188   3.392482
    11  C    4.108817   4.973624   2.760664   4.763128   1.488700
    12  H    2.789328   3.856793   2.409231   2.978942   1.092120
    13  H    2.838407   3.317925   2.396023   3.676165   1.090738
    14  H    3.379159   2.144390   4.902741   3.867749   5.593908
    15  C    2.769123   2.411666   4.582328   2.409516   5.173340
    16  H    3.383212   3.871708   4.935549   2.144700   5.345940
    17  C    5.025892   5.638947   3.661109   5.863501   2.488335
    18  H    4.581589   5.631730   3.159637   5.023721   2.198258
[...]
 6829,-0.00321688,-0.00036530,0.00021224,0.00092790,-0.00024444,-0.0001
 6225,0.00393313,-0.01013431,-0.32944240,-0.00049732,0.00034671,-0.0001
 2283,-0.00028362,0.00026184,-0.00014067,0.00048375,0.00006153,-0.00061
 616,-0.00003731,0.00002824,0.00072232,-0.00205038,-0.00023442,-0.01191
 495,-0.00244797,0.01097827,0.35268521,0.00071944,-0.00007928,0.0009477
 5,0.00012711,0.00020837,0.00000440,-0.00234342,-0.02227229,0.00626398,
 0.00032256,0.00017134,-0.00051915,-0.16552220,-0.00808091,0.05478903,-
 0.00136784,0.00201275,-0.00192440,-0.00011204,0.00000355,0.00013145,-0
 .00007857,-0.00002299,0.00016846,0.00013057,-0.00013422,-0.00002840,-0
 .00003715,0.00015248,0.00005847,0.63659729,0.00089231,-0.00655340,0.00
 196427,-0.00114343,0.00004042,0.00012065,-0.02349346,-0.01247702,0.015
 39492,-0.00031494,0.00030873,0.00055274,-0.02855447,-0.07037968,0.0101
 2748,-0.00002598,0.00167830,-0.00101034,-0.00002019,-0.00042693,0.0000
 3176,-0.00014242,0.00067338,0.00014493,-0.00000688,0.00048975,-0.00008
 644,-0.00003712,-0.00030080,-0.00019832,0.24854397,0.31223673,0.000579
 19,-0.00025676,0.00072103,-0.00014613,0.00001093,-0.00014468,0.0022955
 1,0.01247560,-0.00640280,-0.00060573,-0.00012674,0.00042214,0.06216293
 ,-0.00041071,-0.13549371,0.00153001,-0.00088506,0.00216331,0.00007721,
 -0.00014038,-0.00007118,-0.00046653,0.00011340,0.00012840,0.00045721,-
 0.00015048,-0.00044230,0.00009608,0.00022875,0.00010852,0.05394102,0.1
 6495711,0.61226175,-0.00015030,-0.00030100,0.00060246,0.00015796,-0.00
 021752,-0.00042483,-0.00023358,0.00181391,-0.00032789,-0.00045685,-0.0
 0041996,0.00030608,-0.23465121,0.03299160,-0.11394858,0.00034567,-0.00
 049586,0.00028919,0.00000357,0.00000685,0.00001130,-0.00023370,-0.0000
 1222,0.00006548,0.00007214,-0.00014302,-0.00001410,-0.00005697,-0.0001
 1954,0.00025187,-0.02226130,0.00223076,-0.01337299,0.25720586,0.000079
 30,0.00056543,-0.00080694,-0.00037193,0.00013510,0.00052538,0.01881654
 ,-0.00186323,0.01256606,-0.00005389,0.00031154,0.00054380,0.03935608,-
 0.04514599,0.01667990,0.00212266,-0.00860225,0.00314521,0.00014581,-0.
 00001383,-0.00012733,0.00054504,-0.00011567,-0.00004276,-0.00056557,0.
 00003638,0.00014004,-0.00027474,-0.00046709,-0.00012006,-0.01065618,0.
 00114778,-0.00444678,-0.03434406,0.04951254,-0.00003171,-0.00024200,0.
 00018703,0.00020808,-0.00001879,-0.00040545,-0.00464297,-0.00049357,-0
 .00501202,0.00008315,-0.00016384,0.00005897,-0.11329990,0.01578152,-0.
 11457959,-0.00081328,0.00329373,0.00019370,-0.00008269,-0.00005081,0.0
 0012037,-0.00030164,0.00005879,0.00004509,0.00040361,-0.00016457,-0.00
 017274,-0.00001631,0.00015193,0.00023226,0.01770571,-0.00347516,0.0110
 2203,0.12083546,-0.02229178,0.12006167,-0.00007763,-0.00032753,-0.0007
 6548,0.00013992,0.00014929,0.00012100,0.00098432,0.00098893,0.00000593
 ,-0.00045670,-0.00004583,-0.00017730,-0.04954357,0.00127813,0.00261162
 ,-0.00050870,-0.00015038,0.00040991,0.00009602,-0.00007393,-0.00002476
 ,-0.00018086,0.00005128,0.00008108,0.00002143,-0.00001297,-0.00005578,
 0.00008464,0.00001326,0.00012911,0.00037092,0.01312438,0.02388348,0.00
 143853,-0.01446802,-0.02112119,0.04966550,0.00205490,0.00224368,-0.000
 49282,-0.00019235,0.00020081,0.00012273,-0.00406354,-0.03110558,-0.019
 86907,-0.00068265,0.00032547,0.00007419,0.00449470,-0.10298314,-0.1220
 4696,0.00061175,0.00808959,0.00260976,0.00005104,-0.00007779,0.0000987
 4,-0.00039456,-0.00010921,0.00019991,0.00035564,-0.00026426,-0.0004346
 3,0.00005228,0.00004301,-0.00002381,-0.00153760,0.00444266,0.00800760,
 -0.00042136,0.00415021,0.00602121,0.00077141,0.11408916,-0.00080985,0.
 00016121,0.00120864,-0.00028159,-0.00015890,0.00016846,0.00068664,0.00
 788493,0.00424410,-0.00010883,-0.00008915,-0.00004616,0.00265155,-0.11
 469623,-0.24897798,0.00107702,-0.00209934,0.00065239,0.00000794,0.0000
 4851,-0.00001423,0.00015609,-0.00002571,-0.00001047,-0.00003295,-0.000
 01603,0.00011915,0.00000936,0.00007918,0.00002186,0.00094362,-0.008136
 37,-0.01656025,0.00131890,-0.00746532,-0.01116338,-0.00714137,0.123466
 63,0.26828255,-0.00423449,-0.00053515,0.00305136,0.00348116,0.00012157
 ,0.02878667,0.00036530,-0.00002036,0.00149639,-0.00130410,-0.00004678,
 -0.00004473,-0.00007684,0.00011200,0.00007206,-0.00007866,-0.00000095,
 -0.00060731,0.00113648,0.00018790,-0.00059148,-0.05946820,-0.00090512,
 0.00171181,-0.00438993,-0.00052697,-0.00238094,0.00012283,0.00006437,0
 .00000257,0.00002525,-0.00010597,-0.00005534,-0.00000365,-0.00000443,0
 .00000527,0.00000390,-0.00003497,-0.00000266,0.05868075,-0.00047664,0.
 00730803,-0.00016634,-0.00019591,0.00286926,0.00144727,-0.00019681,0.0
 0010271,-0.00002195,0.00021655,-0.00066640,0.00007314,0.00006661,0.000
 03724,-0.00006222,0.00002800,0.00011825,-0.00004631,0.00009321,-0.0039
 0693,-0.00008776,-0.00078990,-0.03624145,0.00086426,-0.00056296,0.0075
 1899,-0.00017325,0.00008110,-0.00131528,0.00004031,0.00001045,0.000003
 71,0.00002188,0.00002893,-0.00001443,0.00000046,-0.00002487,-0.0000084
 6,0.00001722,0.00135647,0.02543615,0.00306339,0.00020920,0.00030099,-0
 .00130550,-0.00004467,-0.01163634,-0.00062875,-0.00003094,-0.00060905,
 0.00006126,0.00002334,0.00071989,0.00006808,-0.00009056,-0.00005748,0.
 00017628,0.00001626,0.00033606,0.00003785,-0.00003550,0.00081205,0.001
 48912,0.00050214,-0.33542207,-0.00316963,-0.00015262,0.00063571,0.0000
 0206,-0.00000676,-0.00006697,-0.00004120,0.00009370,0.00005536,0.00000
 185,0.00000220,-0.00000102,0.00000193,0.00001423,0.00000216,-0.0021914
 6,-0.00061876,0.35651954,-0.01667127,-0.00049203,-0.02911099,-0.058964
 11,-0.00278596,0.02315950,0.00020317,0.00002763,-0.00050608,0.03072519
 ,0.00172625,0.03002042,-0.00055051,0.00075491,-0.00004716,-0.00026312,
 -0.00044126,0.00031205,-0.00244081,-0.00042071,0.00330332,-0.27677062,
 -0.00997931,-0.12038920,-0.12872287,-0.00375975,0.03380584,-0.00452546
 ,-0.00058224,0.00318031,0.00018177,-0.00026628,0.00011325,0.00008713,-
 0.00013859,0.00014668,0.00004394,0.00014846,-0.00011901,0.00472043,0.0
 0014232,0.00247122,0.71636414,-0.00106503,-0.00634240,-0.00160076,-0.0
 0291142,0.00638744,0.00119136,0.00017994,-0.00078369,-0.00037667,0.002
 26692,0.00571584,0.00093721,-0.00016936,0.00008593,0.00010305,0.000072
 60,0.00000848,0.00021102,-0.00026814,0.00714837,0.00035382,-0.01019143
 ,-0.05953941,-0.00568274,-0.00432006,-0.05791961,-0.00068723,-0.000679
 15,0.00762626,-0.00019098,-0.00000878,-0.00009602,0.00002502,0.0000266
 7,-0.00003839,0.00004258,0.00000161,-0.00000478,0.00001847,0.00017944,
 0.00219315,0.00014301,0.02789503,0.12885707,-0.03128509,-0.00276127,-0
 .05164073,-0.02373833,-0.00074395,0.06510649,0.00039224,0.00084109,-0.
 00366826,0.07859839,0.00293863,-0.02721846,0.00051447,0.00014945,0.000
 08772,0.00010713,-0.00051064,0.00099083,0.00336318,0.00024192,-0.00106
 206,-0.05546919,-0.00195290,-0.18268156,-0.03117673,-0.00473024,-0.325
 96024,0.00213845,-0.00003820,0.00089431,0.00000380,0.00027589,0.000475
 88,0.00013132,-0.00046741,0.00022654,0.00010566,0.00041628,-0.00007045
 ,-0.02845316,-0.00127868,-0.01177290,-0.03483802,0.00184787,0.67367200
 ,-0.00352308,-0.00049212,0.00390349,0.00015584,0.00007745,0.00087295,0
 .00060427,-0.00008573,-0.00100544,-0.01961248,-0.00140237,-0.01589355,
 -0.00007717,0.00003108,0.00009776,-0.00085676,0.00010843,-0.00014549,-
 0.00005445,0.00007643,-0.00004807,0.00173618,-0.00034459,0.00044085,-0
 .26157268,-0.01398435,-0.12000336,0.00107029,0.00025107,0.00016024,0.0
 0008412,-0.00010986,-0.00005825,-0.00000717,-0.00003011,0.00001367,-0.
 00000585,-0.00000582,0.00000265,0.00002661,-0.00001442,0.00021970,0.00
 375533,0.00018529,0.00196862,0.27756579,-0.00026704,0.00755814,0.00037
 175,0.00018044,-0.00076252,-0.00018234,0.00004857,0.00048042,-0.000173
 82,-0.00110319,0.00159174,-0.00067825,-0.00004248,0.00004520,-0.000001
 02,-0.00012014,-0.00025157,0.00011489,0.00003487,-0.00112887,-0.000010
 31,-0.00032477,0.00736927,-0.00012986,-0.01409491,-0.03474383,-0.00831
 236,0.00022658,-0.00380571,0.00020063,-0.00000755,-0.00003648,-0.00001
 272,0.00001663,0.00003409,0.00001593,0.00000631,-0.00000442,-0.0000270
 2,-0.00005650,0.00022105,0.00000051,-0.00021794,0.00138741,0.00016335,
 0.01549237,0.02552337,0.00320754,0.00003340,-0.00052614,0.00087111,0.0
 0001195,-0.00080365,0.00019032,0.00000873,0.00048696,0.01473712,0.0009
 2295,0.01132004,-0.00002561,0.00000099,-0.00003635,0.00042589,-0.00004
 497,0.00004458,-0.00003291,0.00000376,0.00006880,0.00141689,-0.0000678
 2,-0.00566648,-0.12002427,-0.00788612,-0.13069964,-0.00059742,0.000086
 67,0.00092520,-0.00001170,0.00000254,-0.00000584,-0.00000383,0.0000373
 2,-0.00000846,-0.00000125,0.00000192,-0.00000383,-0.00139526,-0.000035
 93,-0.00063156,-0.02912097,-0.00181202,-0.01088667,0.12989512,0.008648
 23,0.13531178,-0.00001701,-0.00035144,-0.00034542,0.00013152,-0.000204
 35,-0.00026505,-0.00331095,0.00641217,-0.00247684,-0.00014501,-0.00015
 345,0.00023080,-0.03135950,-0.02322196,-0.00185317,0.00252798,-0.00009
 921,0.00112376,0.00001696,-0.00001605,-0.00001636,-0.00018014,0.000044
 17,-0.00004311,0.00011454,0.00004294,-0.00006412,0.00003376,0.00004955
 ,0.00004701,-0.37924166,-0.18953097,-0.12385763,-0.00224503,-0.0005119
 8,0.00148224,0.00138337,0.00062234,-0.00188294,-0.00001113,0.00002182,
 0.00001383,0.00000283,0.00000705,0.00014991,-0.00002569,0.00000002,-0.
 00000230,0.69522699,0.00014753,0.00017772,0.00013605,-0.00010055,-0.00
 004763,0.00003173,0.00026274,0.00170437,-0.00057690,-0.00001937,-0.000
 03309,0.00005700,-0.01217970,-0.00102367,-0.00125853,-0.00025027,-0.00
 031704,-0.00013757,0.00000886,-0.00000618,-0.00003058,-0.00002087,0.00
 002207,-0.00001258,0.00003101,-0.00002280,-0.00001177,0.00002390,0.000
 02485,-0.00000850,-0.18742398,-0.16481984,-0.09161369,0.00059316,0.000
 62576,0.00067704,0.00057297,0.00004770,0.00034050,-0.00000960,0.000002
 97,0.00001251,-0.00002327,0.00000727,0.00003951,-0.00001670,-0.0000063
 3,-0.00000412,0.26499740,0.27845574,-0.00059092,0.00127919,-0.00031387
 ,0.00029515,-0.00006429,-0.00002971,0.00361509,0.00184600,-0.00017068,
 0.00011178,-0.00005888,-0.00016124,0.01441134,0.00645807,0.01278008,-0
 .00084455,-0.00062895,-0.00085016,0.00001828,0.00011329,0.00001671,0.0
 0005508,-0.00016232,-0.00000415,-0.00013552,-0.00003765,0.00005892,-0.
 00002501,-0.00000812,-0.00001325,-0.12101692,-0.09159790,-0.16895682,0
 .00377998,0.00155938,-0.00170887,0.00071502,0.00127842,0.00133421,0.00
 003486,0.00000836,-0.00004276,0.00010478,0.00000663,-0.00014641,0.0000
 3909,0.00000726,0.00000448,0.00043479,0.15483181,0.63167356,-0.0001271
 2,-0.00018858,-0.00019897,0.00001642,-0.00001524,-0.00003881,-0.000039
 09,0.00076782,0.00016494,0.00007500,-0.00000134,0.00011924,0.00043832,
 0.00752416,0.02511568,0.00024614,-0.00007073,0.00002036,-0.00000713,0.
 00002546,-0.00002756,0.00003779,-0.00000898,-0.00006865,-0.00002606,0.
 00002019,0.00002294,-0.00001340,-0.00002950,-0.00000866,-0.05325279,-0
 .00646144,0.00215160,0.00111494,0.00049780,-0.00081856,-0.00346634,-0.
 00218879,0.00291991,0.00000171,-0.00000221,0.00000489,-0.00004959,0.00
 000550,-0.00001662,-0.00001654,0.00000003,0.00000115,0.00221947,-0.010
 21947,-0.02723691,0.05459510,-0.00005828,0.00005653,-0.00023542,0.0000
 8720,-0.00003212,0.00002340,0.00012267,0.00094994,-0.00004962,0.000052
 69,0.00001868,-0.00006564,-0.00050490,0.00421719,0.00748557,0.00027081
 ,-0.00019068,0.00001129,-0.00001465,0.00001832,0.00000602,0.00005431,-
 0.00001461,-0.00004451,-0.00000235,-0.00001330,0.00004741,-0.00001698,
 0.00000588,0.00001421,-0.00704045,-0.06853302,-0.08072475,-0.00020274,
 0.00001681,-0.00028843,-0.00144975,0.00087352,0.00035677,0.00001380,0.
 00000247,-0.00001070,-0.00002474,0.00000061,-0.00004065,0.00001480,0.0
 0000647,-0.00000202,-0.00153724,0.00053181,-0.01704979,0.01330639,0.06
 001947,0.00011215,0.00049114,0.00028775,-0.00010436,0.00001126,0.00004
 218,0.00041431,-0.00118346,-0.00037584,-0.00002351,-0.00000012,-0.0000
 7379,-0.00063868,-0.00538445,-0.01346572,-0.00030089,0.00025436,-0.000
 07609,0.00000166,-0.00000545,0.00001167,-0.00000410,-0.00003827,0.0000
 6183,0.00000365,-0.00002724,-0.00000891,0.00001543,0.00001473,-0.00000
 622,-0.00082284,-0.08091812,-0.29993883,0.00048616,0.00023420,0.000760
 17,0.00233381,0.00082226,-0.00011720,-0.00000822,-0.00000136,0.0000008
 6,0.00002771,0.00000092,0.00000334,0.00000982,-0.00000391,0.00000010,0
 .00068423,-0.00446949,-0.00920995,-0.00087977,0.09130606,0.31973405,0.
 00023894,0.00002157,-0.00100388,-0.00327043,-0.00049213,-0.00403957,-0
 .00003040,0.00010315,-0.00015064,0.00177448,-0.00036903,-0.00026590,0.
 00001213,0.00000398,0.00001258,-0.00010731,-0.00000077,0.00023099,-0.0
 0071854,-0.00004024,0.00084695,-0.01908132,-0.00106229,0.01609119,0.00
 318666,0.00011089,-0.00181190,0.00002011,-0.00001239,-0.00019512,0.000
 03156,-0.00002438,-0.00002584,-0.00000207,-0.00000399,0.00000292,0.000
 00106,0.00001536,-0.00000292,0.00101296,0.00021921,-0.00028628,-0.2671
 0667,-0.01120357,0.11745855,0.00076625,0.00023399,0.00047119,-0.000011
 21,-0.00001275,0.00001741,-0.00000756,0.00000547,0.00000379,0.28329613
 ,0.00028186,-0.00103889,-0.00015174,-0.00069731,0.00765319,-0.00002313
 ,-0.00021193,-0.00071093,-0.00011999,-0.00032928,0.00755219,-0.0002194
 2,-0.00014914,-0.00002700,0.00013635,-0.00001239,-0.00007160,0.0000870
 3,0.00003926,0.00011908,0.00002151,-0.00069658,0.00176617,0.00092650,0
 .00039224,0.00132238,-0.00036923,0.00003071,0.00014334,-0.00007272,0.0
 0002899,-0.00009124,0.00000012,0.00001284,-0.00001572,0.00001814,-0.00
 000591,0.00001726,0.00000868,0.00020443,-0.00366418,-0.00001639,-0.011
 59626,-0.03469552,0.00561724,0.00022769,-0.00348571,0.00009609,-0.0000
 0945,-0.00000557,0.00001781,-0.00000147,0.00000410,0.00000419,0.012497
 68,0.02522072,-0.00096920,-0.00004964,-0.00092408,-0.00329386,-0.00009
 901,-0.00079846,-0.00019819,-0.00001924,-0.00002938,-0.00099905,-0.000
 23800,-0.00563468,-0.00003341,0.00002810,-0.00002545,0.00013551,0.0000
 0640,0.00017980,-0.00065251,-0.00003537,0.00039831,-0.01496743,-0.0007
 4253,0.01190137,0.02930531,0.00156809,-0.01057918,0.00137717,0.0000506
 5,-0.00064008,-0.00000751,0.00000106,0.00003244,0.00001138,-0.00003522
 ,0.00002123,0.00001334,0.00000976,-0.00000235,0.00057667,0.00002332,0.
 00085070,0.11750543,0.00547044,-0.12636752,-0.00046643,0.00001263,0.00
 110725,0.00001328,0.00000583,-0.00001185,-0.00000112,-0.00000293,-0.00
 000041,-0.12735323,-0.00595409,0.13052143,0.00012052,-0.00048757,0.000
 08851,-0.00009508,-0.00002706,-0.00002695,-0.00148468,0.00047998,-0.00
 007916,-0.00004164,0.00000888,0.00010483,0.00030904,-0.00572526,-0.001
 00527,0.00038819,0.00006555,0.00024950,0.00000690,-0.00002992,-0.00001
 237,-0.00003075,0.00005234,-0.00000550,0.00003085,0.00003608,-0.000023
 97,0.00000945,-0.00000821,-0.00001458,-0.01620207,-0.00491199,0.016542
 61,0.00004025,-0.00004865,0.00004361,0.00022197,0.00007384,-0.00020442
 ,-0.00001327,0.00000272,0.00001586,-0.00003623,-0.00000522,0.00005768,
 -0.00002031,-0.00000416,-0.00000128,-0.22971708,-0.04733677,0.13176382
 ,-0.00025546,0.00300604,-0.00099748,-0.00000870,-0.00000730,0.00000451
 ,0.24246576,-0.00017861,0.00050071,0.00001777,0.00011926,-0.00000656,-
 0.00007078,0.00162485,0.00071208,-0.00051321,0.00005953,-0.00008000,-0
 .00007596,-0.00553204,0.00851154,-0.00538511,-0.00010261,-0.00028764,0
 .00007129,-0.00000738,0.00004246,0.00000801,-0.00002080,-0.00006417,0.
 00001157,0.00002277,-0.00005743,0.00000823,0.00000912,0.00006158,0.000
 04412,-0.01345098,0.00154783,0.00978094,-0.00187016,-0.00097634,0.0011
 4783,-0.00003618,0.00000481,0.00037541,0.00000879,0.00000065,-0.000009
 51,0.00005471,0.00001169,-0.00001940,0.00001560,0.00000559,-0.00000073
 ,-0.04577334,-0.04969480,0.02351317,0.00316712,-0.00569886,0.00208770,
 0.00000373,0.00001265,0.00000189,0.05521232,0.04104451,0.00009778,-0.0
 0036032,0.00007024,-0.00006864,-0.00000072,0.00000359,-0.00104588,0.00
 019031,0.00001935,-0.00002698,0.00001158,0.00004133,-0.00021973,-0.004
 13786,0.00092734,0.00029301,0.00025163,0.00017297,-0.00000486,-0.00004
 033,0.00000681,-0.00000799,0.00004741,0.00000689,0.00001251,0.00002873
 ,-0.00000990,-0.00000034,-0.00001713,-0.00001137,-0.01151705,-0.004056
 95,0.00968862,0.00014343,0.00040786,-0.00001270,-0.00032542,0.00002949
 ,0.00021985,-0.00000714,-0.00000216,0.00000621,-0.00002380,-0.00000361
 ,0.00002581,-0.00000566,-0.00000267,0.00000055,0.13593008,0.02617593,-
 0.15474575,-0.00076681,0.00220326,0.00066767,0.00000051,-0.00000688,0.
 00000006,-0.14384052,-0.02583298,0.15394808,-0.00005243,0.00019118,0.0
 0006647,0.00001346,0.00001251,-0.00000126,0.00055487,-0.00018043,-0.00
 000527,0.00001349,-0.00001414,-0.00004642,0.00070321,0.00294900,-0.002
 92696,-0.00024442,0.00005963,-0.00006016,0.00000065,-0.00000560,0.0000
 1354,-0.00000399,-0.00001382,0.00002079,-0.00000551,-0.00001230,0.0000
 0738,0.00000192,0.00000866,0.00000585,0.00182846,-0.00964166,-0.025241
 66,-0.00016423,-0.00009109,0.00019784,-0.00021585,0.00026992,0.0008128
 8,0.00000288,-0.00000369,-0.00000449,0.00001733,0.00000210,-0.00001227
 ,0.00000748,-0.00000112,0.00000047,-0.05539302,-0.00902430,-0.00554664
 ,-0.00148382,-0.00608211,-0.00031288,0.00000393,0.00000132,-0.00000067
 ,0.00431236,0.00667431,0.02138348,0.05010324,0.00016400,-0.00040793,0.
 00000640,-0.00003868,0.00000866,0.00000814,-0.00191123,-0.00005082,-0.
 00054271,-0.00000942,0.00002885,-0.00001740,0.00318302,-0.00612322,0.0
 0264541,0.00095483,0.00050900,0.00048980,-0.00003083,-0.00004045,0.000
 02705,0.00000511,0.00004084,0.00000244,0.00001462,0.00003715,0.0000112
 9,-0.00000925,-0.00002395,-0.00001112,-0.00041670,0.00114513,-0.016853
 28,0.00082609,0.00071728,-0.00002022,-0.00036220,0.00002976,-0.0000434
 4,-0.00000197,0.00000251,-0.00000069,-0.00002099,-0.00000971,0.0000121
 2,0.00000586,0.00000270,-0.00000080,-0.01078802,-0.06562331,-0.0813114
 8,-0.00612672,0.00776076,-0.00319493,0.00000649,-0.00000472,-0.0000021
 5,-0.00034563,0.00440969,0.00511539,0.01490163,0.05759178,-0.00000611,
 0.00002791,0.00009585,-0.00000790,-0.00000805,-0.00000263,0.00014469,0
 .00013661,-0.00015072,0.00002963,-0.00001074,-0.00002503,0.00052466,0.
 00284040,0.00049341,0.00008595,0.00013927,0.00003150,-0.00000035,0.000
 00911,0.00000380,0.00000190,-0.00000204,0.00000840,-0.00000172,-0.0000
 0229,0.00001174,0.00000421,0.00000455,0.00000349,0.00093148,-0.0041874
 7,-0.00906308,-0.00014262,-0.00003774,0.00013517,-0.00079934,-0.000305
 87,0.00071293,0.00000006,-0.00000150,0.00000063,0.00000471,0.00000260,
 -0.00000767,0.00000228,-0.00000090,-0.00000115,-0.00930299,-0.08418419
 ,-0.30950250,-0.00045828,-0.00293952,0.00170333,-0.00000080,-0.0000000
 8,0.00000086,-0.00265942,-0.00516026,-0.01102565,0.01164997,0.09368018
 ,0.32657731\\-0.00034900,-0.00051759,0.00001683,0.00035523,0.00016638,
 -0.00001338,0.00001498,0.00042454,0.00006605,-0.00002135,-0.00000078,0
 .00000352,-0.00002979,-0.00007899,-0.00005630,0.00001815,-0.00002736,-
 0.00001777,0.00000112,-0.00000962,-0.00000358,-0.00000951,0.00000702,-
 0.00000127,-0.00000003,0.00000559,-0.00000022,0.00000573,-0.00000952,-
 0.00000056,-0.00001323,0.00007691,0.00000462,0.00000027,0.00003801,-0.
 00000576,0.00001296,-0.00002285,0.00001272,0.00000112,-0.00000675,-0.0
 0000076,0.00000223,-0.00000098,-0.00000444,-0.00000357,0.00000014,0.00
 000050,-0.00002235,0.00002571,-0.00001364,0.00002072,-0.00003911,0.000
 00552,-0.00000221,-0.00000114,0.00000181,0.00000798,-0.00002066,0.0000
 0327,0.00001055,-0.00000894,0.00000284\\\@


 A CHEMICAL PHYSICIST MAKES PRECISE MEASUREMENTS ON IMPURE COMPOUNDS.
 A THEORETICAL PHYSICAL CHEMIST MAKES IMPRECISE
     MEASUREMENTS ON PURE COMPOUNDS.
 AN EXPERIMENTAL PHYSICAL CHEMIST MAKES IMPRECISE
     MEASUREMENTS ON IMPURE COMPOUNDS.
 Job cpu time:       0 days  3 hours  8 minutes 14.6 seconds.
 Elapsed time:       0 days  0 hours 15 minutes 41.8 seconds.
 File lengths (MBytes):  RWF=    290 Int=      0 D2E=      0 Chk=     32 Scr=      1
 Normal termination of Gaussian 16 at Fri Jun 10 11:56:05 2022.
