 Entering Gaussian System, Link 0=g16
 Input=ts.gjf
 Output=ts.out
 Initial command:
 /software/gaussian/g16-a03/l1.exe "/local_scratch/11171213/Gau-14654.inp" -scrdir="/local_scratch/11171213/"
 Entering Link 1 = /software/gaussian/g16-a03/l1.exe PID=     14655.
  
 Copyright (c) 1988,1990,1992,1993,1995,1998,2003,2009,2016,
            Gaussian, Inc.  All Rights Reserved.
  
 This is part of the Gaussian(R) 16 program.  It is based on
 the Gaussian(R) 09 system (copyright 2009, Gaussian, Inc.),
 the Gaussian(R) 03 system (copyright 2003, Gaussian, Inc.),
 the Gaussian(R) 98 system (copyright 1998, Gaussian, Inc.),
 the Gaussian(R) 94 system (copyright 1995, Gaussian, Inc.),
 the Gaussian 92(TM) system (copyright 1992, Gaussian, Inc.),
 the Gaussian 90(TM) system (copyright 1990, Gaussian, Inc.),
 the Gaussian 88(TM) system (copyright 1988, Gaussian, Inc.),
 the Gaussian 86(TM) system (copyright 1986, Carnegie Mellon
 University), and the Gaussian 82(TM) system (copyright 1983,
 Carnegie Mellon University). Gaussian is a federally registered
 trademark of Gaussian, Inc.
  
 This software contains proprietary and confidential information,
 including trade secrets, belonging to Gaussian, Inc.
  
 This software is provided under written license and may be
 used, copied, transmitted, or stored only in accord with that
 written license.
  
 The following legend is applicable only to US Government
 contracts under FAR:
  
                    RESTRICTED RIGHTS LEGEND
  
 Use, reproduction and disclosure by the US Government is
 subject to restrictions as set forth in subparagraphs (a)
 and (c) of the Commercial Computer Software - Restricted
 Rights clause in FAR 52.227-19.
  
 Gaussian, Inc.
 340 Quinnipiac St., Bldg. 40, Wallingford CT 06492
  
  
 ---------------------------------------------------------------
 Warning -- This program may not be used in any manner that
 competes with the business of Gaussian, Inc. or will provide
 assistance to any competitor of Gaussian, Inc.  The licensee
 of this program is prohibited from giving any competitor of
 Gaussian, Inc. access to this program.  By using this program,
 the user acknowledges that Gaussian, Inc. is engaged in the
 business of creating and licensing software in the field of
 computational chemistry and represents and warrants to the
 licensee that it is not a competitor of Gaussian, Inc. and that
 it will not use this program in any manner prohibited above.
 ---------------------------------------------------------------
  

 Cite this work as:
 Gaussian 16, Revision A.03,
 M. J. Frisch, G. W. Trucks, H. B. Schlegel, G. E. Scuseria, 
 M. A. Robb, J. R. Cheeseman, G. Scalmani, V. Barone, 
 G. A. Petersson, H. Nakatsuji, X. Li, M. Caricato, A. V. Marenich, 
 J. Bloino, B. G. Janesko, R. Gomperts, B. Mennucci, H. P. Hratchian, 
 J. V. Ortiz, A. F. Izmaylov, J. L. Sonnenberg, D. Williams-Young, 
 F. Ding, F. Lipparini, F. Egidi, J. Goings, B. Peng, A. Petrone, 
 T. Henderson, D. Ranasinghe, V. G. Zakrzewski, J. Gao, N. Rega, 
 G. Zheng, W. Liang, M. Hada, M. Ehara, K. Toyota, R. Fukuda, 
 J. Hasegawa, M. Ishida, T. Nakajima, Y. Honda, O. Kitao, H. Nakai, 
 T. Vreven, K. Throssell, J. A. Montgomery, Jr., J. E. Peralta, 
 F. Ogliaro, M. J. Bearpark, J. J. Heyd, E. N. Brothers, K. N. Kudin, 
 V. N. Staroverov, T. A. Keith, R. Kobayashi, J. Normand, 
 K. Raghavachari, A. P. Rendell, J. C. Burant, S. S. Iyengar, 
 J. Tomasi, M. Cossi, J. M. Millam, M. Klene, C. Adamo, R. Cammi, 
 J. W. Ochterski, R. L. Martin, K. Morokuma, O. Farkas, 
 J. B. Foresman, and D. J. Fox, Gaussian, Inc., Wallingford CT, 2016.
 
 ******************************************
 Gaussian 16:  ES64L-G16RevA.03 25-Dec-2016
                10-Jun-2022 
 ******************************************
 %nprocshared=12
 Will use up to   12 processors via shared memory.
 %chk=checkpoint.chk
 %mem=12GB
 --------------------------------------------------------------------
 # Opt=(TS, CalcFC, noeigentest) B3LYP/Def2TZVP freq=noraman pop=none
 --------------------------------------------------------------------
 1/5=1,10=4,11=1,18=20,26=3,38=1/1,3;
 2/9=110,12=2,17=6,18=5,40=1/2;
 3/5=44,7=101,11=2,25=1,30=1,71=2,74=-5,140=1/1,2,3;
 4//1;
 5/5=2,38=5/2;
 8/6=4,10=90,11=11/1;
 11/6=1,8=1,9=11,15=111,16=1/1,2,10;
 10/6=1,13=1/2;
 7/10=1,18=20,25=1/1,2,3,16;
 1/5=1,10=4,11=1,18=20,26=3/3(2);
 2/9=110/2;
 99//99;
 2/9=110/2;
 3/5=44,7=101,11=2,25=1,30=1,71=1,74=-5/1,2,3;
 4/5=5,16=3,69=1/1;
 5/5=2,38=5/2;
 7//1,2,3,16;
 1/5=1,11=1,18=20,26=3/3(-5);
 2/9=110/2;
 99/9=1/99;
 ------------
 ts_initalOpt
 ------------
 Symbolic Z-matrix:
 Charge =  0 Multiplicity = 1
 6                    -0.0238    0.70566   0.51229 
 6                    -0.24136   1.40843  -0.68524 
 1                    -0.39322   2.48123  -0.69484 
 6                    -0.14239   0.69238  -1.86139 
 6                     0.14239  -0.69238  -1.86139 
 1                    -0.24486   1.20401  -2.81038 
 1                     0.24486  -1.20401  -2.81038 
 6                     0.24136  -1.40843  -0.68524 
 1                     0.39322  -2.48123  -0.69484 
 6                     0.0238   -0.70566   0.51229 
 6                    -0.24136  -1.11319   1.85053 
 1                    -1.15558  -0.77392   2.31041 
 6                     0.24136   1.11319   1.85053 
 1                     0.19686  -2.00327   2.29763 
 1                     1.15558   0.77392   2.31041 
 1                    -0.19686   2.00327   2.29763 
 

 GradGradGradGradGradGradGradGradGradGradGradGradGradGradGradGradGradGrad
 Berny optimization.
 Initialization pass.
                           ----------------------------
                           !    Initial Parameters    !
                           ! (Angstroms and Degrees)  !
 --------------------------                            --------------------------
 ! Name  Definition              Value          Derivative Info.                !
 --------------------------------------------------------------------------------
 ! R1    R(1,2)                  1.4055         calculate D2E/DX2 analytically  !
 ! R2    R(1,10)                 1.4121         calculate D2E/DX2 analytically  !
 ! R3    R(1,13)                 1.4238         calculate D2E/DX2 analytically  !
 ! R4    R(2,3)                  1.0835         calculate D2E/DX2 analytically  !
 ! R5    R(2,4)                  1.3805         calculate D2E/DX2 analytically  !
 ! R6    R(4,5)                  1.4137         calculate D2E/DX2 analytically  !
 ! R7    R(4,6)                  1.083          calculate D2E/DX2 analytically  !
 ! R8    R(5,7)                  1.083          calculate D2E/DX2 analytically  !
 ! R9    R(5,8)                  1.3805         calculate D2E/DX2 analytically  !
 ! R10   R(8,9)                  1.0835         calculate D2E/DX2 analytically  !
 ! R11   R(8,10)                 1.4055         calculate D2E/DX2 analytically  !
 ! R12   R(10,11)                1.4238         calculate D2E/DX2 analytically  !
 ! R13   R(11,12)                1.0781         calculate D2E/DX2 analytically  !
 ! R14   R(11,14)                1.0882         calculate D2E/DX2 analytically  !
 ! R15   R(13,15)                1.0781         calculate D2E/DX2 analytically  !
 ! R16   R(13,16)                1.0882         calculate D2E/DX2 analytically  !
 ! A1    A(2,1,10)             120.3294         calculate D2E/DX2 analytically  !
 ! A2    A(2,1,13)             133.3575         calculate D2E/DX2 analytically  !
 ! A3    A(10,1,13)            106.2471         calculate D2E/DX2 analytically  !
 ! A4    A(1,2,3)              121.6232         calculate D2E/DX2 analytically  !
 ! A5    A(1,2,4)              117.0947         calculate D2E/DX2 analytically  !
 ! A6    A(3,2,4)              121.0665         calculate D2E/DX2 analytically  !
 ! A7    A(2,4,5)              121.4993         calculate D2E/DX2 analytically  !
 ! A8    A(2,4,6)              119.6523         calculate D2E/DX2 analytically  !
 ! A9    A(5,4,6)              118.8029         calculate D2E/DX2 analytically  !
 ! A10   A(4,5,7)              118.8029         calculate D2E/DX2 analytically  !
 ! A11   A(4,5,8)              121.4993         calculate D2E/DX2 analytically  !
 ! A12   A(7,5,8)              119.6523         calculate D2E/DX2 analytically  !
 ! A13   A(5,8,9)              121.0665         calculate D2E/DX2 analytically  !
 ! A14   A(5,8,10)             117.0947         calculate D2E/DX2 analytically  !
 ! A15   A(9,8,10)             121.6232         calculate D2E/DX2 analytically  !
 ! A16   A(1,10,8)             120.3294         calculate D2E/DX2 analytically  !
 ! A17   A(1,10,11)            106.2471         calculate D2E/DX2 analytically  !
 ! A18   A(8,10,11)            133.3575         calculate D2E/DX2 analytically  !
 ! A19   A(10,11,12)           117.9538         calculate D2E/DX2 analytically  !
 ! A20   A(10,11,14)           123.0438         calculate D2E/DX2 analytically  !
 ! A21   A(12,11,14)           115.0627         calculate D2E/DX2 analytically  !
 ! A22   A(1,13,15)            117.9538         calculate D2E/DX2 analytically  !
 ! A23   A(1,13,16)            123.0438         calculate D2E/DX2 analytically  !
 ! A24   A(15,13,16)           115.0627         calculate D2E/DX2 analytically  !
 ! D1    D(10,1,2,3)           172.991          calculate D2E/DX2 analytically  !
 ! D2    D(10,1,2,4)           -12.292          calculate D2E/DX2 analytically  !
 ! D3    D(13,1,2,3)           -10.4118         calculate D2E/DX2 analytically  !
 ! D4    D(13,1,2,4)           164.3052         calculate D2E/DX2 analytically  !
 ! D5    D(2,1,10,8)            18.3799         calculate D2E/DX2 analytically  !
 ! D6    D(2,1,10,11)         -159.0437         calculate D2E/DX2 analytically  !
 ! D7    D(13,1,10,8)         -159.0437         calculate D2E/DX2 analytically  !
 ! D8    D(13,1,10,11)          23.5327         calculate D2E/DX2 analytically  !
 ! D9    D(2,1,13,15)         -120.9422         calculate D2E/DX2 analytically  !
 ! D10   D(2,1,13,16)           35.5922         calculate D2E/DX2 analytically  !
 ! D11   D(10,1,13,15)          55.9989         calculate D2E/DX2 analytically  !
 ! D12   D(10,1,13,16)        -147.4666         calculate D2E/DX2 analytically  !
 ! D13   D(1,2,4,5)              1.0691         calculate D2E/DX2 analytically  !
 ! D14   D(1,2,4,6)           -176.4442         calculate D2E/DX2 analytically  !
 ! D15   D(3,2,4,5)            175.8173         calculate D2E/DX2 analytically  !
 ! D16   D(3,2,4,6)             -1.6959         calculate D2E/DX2 analytically  !
 ! D17   D(2,4,5,7)           -177.8598         calculate D2E/DX2 analytically  !
 ! D18   D(2,4,5,8)              4.6064         calculate D2E/DX2 analytically  !
 ! D19   D(6,4,5,7)             -0.326          calculate D2E/DX2 analytically  !
 ! D20   D(6,4,5,8)           -177.8598         calculate D2E/DX2 analytically  !
 ! D21   D(4,5,8,9)            175.8173         calculate D2E/DX2 analytically  !
 ! D22   D(4,5,8,10)             1.0691         calculate D2E/DX2 analytically  !
 ! D23   D(7,5,8,9)             -1.6959         calculate D2E/DX2 analytically  !
 ! D24   D(7,5,8,10)          -176.4442         calculate D2E/DX2 analytically  !
 ! D25   D(5,8,10,1)           -12.292          calculate D2E/DX2 analytically  !
 ! D26   D(5,8,10,11)          164.3052         calculate D2E/DX2 analytically  !
 ! D27   D(9,8,10,1)           172.991          calculate D2E/DX2 analytically  !
 ! D28   D(9,8,10,11)          -10.4118         calculate D2E/DX2 analytically  !
 ! D29   D(1,10,11,12)          55.9989         calculate D2E/DX2 analytically  !
 ! D30   D(1,10,11,14)        -147.4666         calculate D2E/DX2 analytically  !
 ! D31   D(8,10,11,12)        -120.9422         calculate D2E/DX2 analytically  !
 ! D32   D(8,10,11,14)          35.5922         calculate D2E/DX2 analytically  !
 --------------------------------------------------------------------------------
 Trust Radius=3.00D-01 FncErr=1.00D-07 GrdErr=1.00D-06 EigMax=2.50D+02 EigMin=1.00D-04
 Number of steps in this run=     82 maximum allowed number of steps=    100.
 Search for a saddle point of order  1.
 GradGradGradGradGradGradGradGradGradGradGradGradGradGradGradGradGradGrad

                          Input orientation:                          
 ---------------------------------------------------------------------
 Center     Atomic      Atomic             Coordinates (Angstroms)
 Number     Number       Type             X           Y           Z
 ---------------------------------------------------------------------
      1          6           0       -0.023803    0.705656    0.512291
      2          6           0       -0.241361    1.408433   -0.685236
      3          1           0       -0.393218    2.481227   -0.694843
      4          6           0       -0.142394    0.692381   -1.861389
      5          6           0        0.142394   -0.692381   -1.861389
      6          1           0       -0.244858    1.204006   -2.810383
      7          1           0        0.244858   -1.204006   -2.810383
      8          6           0        0.241361   -1.408433   -0.685236
      9          1           0        0.393218   -2.481227   -0.694843
     10          6           0        0.023803   -0.705656    0.512291
     11          6           0       -0.241361   -1.113186    1.850531
     12          1           0       -1.155578   -0.773919    2.310410
     13          6           0        0.241361    1.113186    1.850531
     14          1           0        0.196862   -2.003269    2.297632
     15          1           0        1.155578    0.773919    2.310410
     16          1           0       -0.196862    2.003269    2.297632
 ---------------------------------------------------------------------
                    Distance matrix (angstroms):
                    1          2          3          4          5
     1  C    0.000000
     2  C    1.405453   0.000000
     3  H    2.178599   1.083531   0.000000
     4  C    2.376678   1.380529   2.150282   0.000000
     5  C    2.759798   2.438037   3.423375   1.413743   0.000000
     6  H    3.367103   2.134960   2.475644   1.082981   2.155652
     7  H    3.841764   3.402572   4.296928   2.155652   1.082981
     8  C    2.444127   2.857928   3.941096   2.438037   1.380529
     9  H    3.433264   3.941096   5.024384   3.423375   2.150282
    10  C    1.412115   2.444127   3.433264   2.759798   2.376678
    11  C    2.268569   3.576126   4.407016   4.128949   3.755355
    12  H    2.589071   3.817374   4.495410   4.536572   4.369815
    13  C    1.423825   2.598135   2.958573   3.755355   4.128949
    14  H    3.251832   4.552939   5.423450   4.967804   4.361061
    15  H    2.151472   3.365701   3.787508   4.369815   4.536572
    16  H    2.213863   3.041926   3.036759   4.361061   4.967804
                    6          7          8          9         10
     6  H    0.000000
     7  H    2.457304   0.000000
     8  C    3.402572   2.134960   0.000000
     9  H    4.296928   2.475644   1.083531   0.000000
    10  C    3.841764   3.367103   1.405453   2.178599   0.000000
    11  C    5.205143   4.687086   2.598135   2.958573   1.423825
    12  H    5.564541   5.326229   3.365701   3.787508   2.151472
    13  C    4.687086   5.205143   3.576126   4.407016   2.268569
    14  H    6.047607   5.170391   3.041926   3.036759   2.213863
    15  H    5.326229   5.564541   3.817374   4.495410   2.589071
    16  H    5.170391   6.047607   4.552939   5.423450   3.251832
                   11         12         13         14         15
    11  C    0.000000
    12  H    1.078139   0.000000
    13  C    2.278103   2.392508   0.000000
    14  H    1.088203   1.827720   3.148678   0.000000
    15  H    2.392508   2.781590   1.078139   2.938039   0.000000
    16  H    3.148678   2.938039   1.088203   4.025837   1.827720
                   16
    16  H    0.000000
 Stoichiometry    C8H8
 Framework group  C2[X(C8H8)]
 Deg. of freedom    22
 Full point group                 C2      NOp   2
 Largest Abelian subgroup         C2      NOp   2
 Largest concise Abelian subgroup C2      NOp   2
                         Standard orientation:                         
 ---------------------------------------------------------------------
 Center     Atomic      Atomic             Coordinates (Angstroms)
 Number     Number       Type             X           Y           Z
 ---------------------------------------------------------------------
      1          6           0       -0.023803    0.705656    0.512291
      2          6           0       -0.241361    1.408433   -0.685236
      3          1           0       -0.393218    2.481227   -0.694843
      4          6           0       -0.142394    0.692381   -1.861389
      5          6           0        0.142394   -0.692381   -1.861389
      6          1           0       -0.244858    1.204006   -2.810383
      7          1           0        0.244858   -1.204006   -2.810383
      8          6           0        0.241361   -1.408433   -0.685236
      9          1           0        0.393218   -2.481227   -0.694843
     10          6           0        0.023803   -0.705656    0.512291
     11          6           0       -0.241361   -1.113186    1.850531
     12          1           0       -1.155578   -0.773919    2.310410
     13          6           0        0.241361    1.113186    1.850531
     14          1           0        0.196862   -2.003269    2.297632
     15          1           0        1.155578    0.773919    2.310410
     16          1           0       -0.196862    2.003269    2.297632
 ---------------------------------------------------------------------
 Rotational constants (GHZ):           3.8306242           2.2229067           1.4568655
 Standard basis: def2TZVP (5D, 7F)
 There are   168 symmetry adapted cartesian basis functions of A   symmetry.
 There are   168 symmetry adapted cartesian basis functions of B   symmetry.
 There are   148 symmetry adapted basis functions of A   symmetry.
 There are   148 symmetry adapted basis functions of B   symmetry.
   296 basis functions,   472 primitive gaussians,   336 cartesian basis functions
    28 alpha electrons       28 beta electrons
       nuclear repulsion energy       329.7208475469 Hartrees.
 NAtoms=   16 NActive=   16 NUniq=    8 SFac= 4.00D+00 NAtFMM=   60 NAOKFM=F Big=F
 Integral buffers will be    131072 words long.
 Raffenetti 2 integral format.
 Two-electron integral symmetry is turned on.
 One-electron integrals computed using PRISM.
   2 Symmetry operations used in ECPInt.
 ECPInt:  NShTT=    7260 NPrTT=   21936 LenC2=    7161 LenP2D=   17614.
 LDataN:  DoStor=T MaxTD1= 6 Len=  172
 NBasis=   296 RedAO= T EigKep=  1.25D-05  NBF=   148   148
 NBsUse=   296 1.00D-06 EigRej= -1.00D+00 NBFU=   148   148
 ExpMin= 9.52D-02 ExpMax= 1.36D+04 ExpMxC= 4.63D+02 IAcc=3 IRadAn=         5 AccDes= 0.00D+00
 Harris functional with IExCor=  402 and IRadAn=       5 diagonalized for initial guess.
 HarFok:  IExCor=  402 AccDes= 0.00D+00 IRadAn=         5 IDoV= 1 UseB2=F ITyADJ=14
 ICtDFT=  3500011 ScaDFX=  1.000000  1.000000  1.000000  1.000000
 FoFCou: FMM=F IPFlag=           0 FMFlag=      100000 FMFlg1=           0
         NFxFlg=           0 DoJE=T BraDBF=F KetDBF=T FulRan=T
         wScrn=  0.000000 ICntrl=       500 IOpCl=  0 I1Cent=   200000004 NGrid=           0
         NMat0=    1 NMatS0=      1 NMatT0=    0 NMatD0=    1 NMtDS0=    0 NMtDT0=    0
 Petite list used in FoFCou.
 Initial guess orbital symmetries:
       Occupied  (A) (B) (A) (B) (B) (A) (A) (B) (A) (A) (B) (B)
                 (A) (A) (B) (A) (A) (B) (B) (B) (A) (A) (B) (A)
                 (B) (A) (B) (A)
       Virtual   (B) (B) (A) (A) (A) (A) (B) (B) (A) (A) (B) (B)
                 (A) (A) (B) (B) (A) (B) (B) (A) (B) (A) (A) (B)
                 (A) (B) (A) (A) (B) (A) (B) (B) (A) (B) (A) (B)
                 (A) (B) (B) (A) (B) (A) (A) (B) (A) (B) (A) (B)
                 (B) (A) (B) (B) (A) (A) (B) (B) (B) (A) (B) (A)
                 (A) (B) (A) (B) (A) (A) (B) (B) (A) (A) (B) (A)
                 (B) (A) (B) (A) (A) (B) (B) (A) (B) (A) (B) (A)
                 (B) (B) (A) (A) (B) (A) (B) (A) (B) (B) (B) (A)
                 (A) (B) (A) (A) (B) (A) (B) (B) (A) (A) (B) (A)
                 (B) (A) (B) (B) (A) (A) (B) (A) (B) (B) (A) (A)
                 (B) (A) (A) (A) (B) (B) (B) (A) (A) (B) (A) (A)
                 (B) (A) (B) (B) (A) (B) (A) (B) (A) (A) (B) (A)
                 (B) (B) (A) (B) (A) (B) (A) (B) (A) (A) (B) (A)
                 (B) (A) (B) (B) (A) (B) (B) (A) (B) (A) (B) (B)
                 (A) (B) (A) (B) (A) (B) (B) (A) (A) (B) (A) (B)
                 (A) (B) (B) (A) (A) (A) (B) (A) (B) (A) (B) (A)
                 (A) (B) (B) (A) (B) (A) (A) (B) (B) (A) (B) (A)
                 (A) (B) (A) (B) (B) (A) (B) (B) (A) (B) (A) (B)
                 (A) (A) (B) (A) (B) (B) (A) (A) (B) (A) (B) (B)
                 (A) (A) (B) (A) (B) (A) (B) (B) (A) (B) (A) (B)
                 (A) (A) (A) (B) (A) (B) (A) (B) (A) (A) (B) (A)
                 (B) (A) (B) (B) (A) (B) (B) (B) (A) (A) (B) (B)
                 (A) (A) (B) (B)
 The electronic state of the initial guess is 1-A.
 Keep R1 ints in memory in symmetry-blocked form, NReq=1449239535.
 Requested convergence on RMS density matrix=1.00D-08 within 128 cycles.
 Requested convergence on MAX density matrix=1.00D-06.
 Requested convergence on             energy=1.00D-06.
 No special actions if energy rises.
 Integral accuracy reduced to 1.0D-05 until final iterations.
 Initial convergence to 1.0D-05 achieved.  Increase integral accuracy.
 SCF Done:  E(RB3LYP) =  -309.678350209     A.U. after   14 cycles
            NFock= 14  Conv=0.28D-08     -V/T= 2.0053
 DoSCS=F DFT=T ScalE2(SS,OS)=  1.000000  1.000000
 Range of M.O.s used for correlation:     1   296
 NBasis=   296 NAE=    28 NBE=    28 NFC=     0 NFV=     0
 NROrb=    296 NOA=    28 NOB=    28 NVA=   268 NVB=   268

 **** Warning!!: The largest alpha MO coefficient is  0.64750616D+02

   2 Symmetry operations used in ECPInt.
 ECPInt:  NShTT=    7260 NPrTT=   21936 LenC2=    7161 LenP2D=   17614.
 LDataN:  DoStor=T MaxTD1= 7 Len=  274
 Symmetrizing basis deriv contribution to polar:
 IMax=3 JMax=2 DiffMx= 0.00D+00
 G2DrvN: will do    17 centers at a time, making    1 passes.
 Calling FoFCou, ICntrl=  3107 FMM=F I1Cent=   0 AccDes= 0.00D+00.
 End of G2Drv F.D. properties file   721 does not exist.
 End of G2Drv F.D. properties file   722 does not exist.
 End of G2Drv F.D. properties file   788 does not exist.
          IDoAtm=1111111111111111
          Differentiating once with respect to nuclear coordinates.
 Keep R1 ints in memory in symmetry-blocked form, NReq=1449246656.
          There are    27 degrees of freedom in the 1st order CPHF.  IDoFFX=4 NUNeed=    27.
     24 vectors produced by pass  0 Test12= 2.78D-14 3.70D-09 XBig12= 1.70D-01 1.84D-01.
 AX will form    24 AO Fock derivatives at one time.
     24 vectors produced by pass  1 Test12= 2.78D-14 3.70D-09 XBig12= 3.44D-02 5.75D-02.
     24 vectors produced by pass  2 Test12= 2.78D-14 3.70D-09 XBig12= 1.04D-03 8.48D-03.
     24 vectors produced by pass  3 Test12= 2.78D-14 3.70D-09 XBig12= 1.73D-05 7.28D-04.
     24 vectors produced by pass  4 Test12= 2.78D-14 3.70D-09 XBig12= 1.38D-07 3.98D-05.
     24 vectors produced by pass  5 Test12= 2.78D-14 3.70D-09 XBig12= 6.83D-10 3.92D-06.
     21 vectors produced by pass  6 Test12= 2.78D-14 3.70D-09 XBig12= 1.99D-12 1.56D-07.
      4 vectors produced by pass  7 Test12= 2.78D-14 3.70D-09 XBig12= 5.67D-15 9.70D-09.
 InvSVY:  IOpt=1 It=  1 EMax= 3.61D-16
 Solved reduced A of dimension   169 with    27 vectors.
 End of Minotr F.D. properties file   721 does not exist.
 End of Minotr F.D. properties file   722 does not exist.
 End of Minotr F.D. properties file   788 does not exist.
   2 Symmetry operations used in ECPInt.
 ECPInt:  NShTT=    7260 NPrTT=   21936 LenC2=    7161 LenP2D=   17614.
 LDataN:  DoStor=T MaxTD1= 8 Len=  415
 Calling FoFJK, ICntrl=    100147 FMM=F ISym2X=1 I1Cent= 0 IOpClX= 0 NMat=1 NMatS=1 NMatT=0.
 ***** Axes restored to original set *****
 -------------------------------------------------------------------
 Center     Atomic                   Forces (Hartrees/Bohr)
 Number     Number              X              Y              Z
 -------------------------------------------------------------------
      1        6          -0.000062446    0.000144893   -0.000002954
      2        6          -0.000012365   -0.000001509   -0.000051929
      3        1          -0.000004350   -0.000002814    0.000000048
      4        6          -0.000005766    0.000060427    0.000026962
      5        6           0.000005766   -0.000060427    0.000026962
      6        1           0.000012584    0.000004049    0.000002444
      7        1          -0.000012584   -0.000004049    0.000002444
      8        6           0.000012365    0.000001509   -0.000051929
      9        1           0.000004350    0.000002814    0.000000048
     10        6           0.000062446   -0.000144893   -0.000002954
     11        6          -0.000073367   -0.000046329    0.000023675
     12        1           0.000020727   -0.000000621    0.000024536
     13        6           0.000073367    0.000046329    0.000023675
     14        1           0.000005195   -0.000012347   -0.000022781
     15        1          -0.000020727    0.000000621    0.000024536
     16        1          -0.000005195    0.000012347   -0.000022781
 -------------------------------------------------------------------
 Cartesian Forces:  Max     0.000144893 RMS     0.000041929
 FormGI is forming the generalized inverse of G from B-inverse, IUseBI=4.

 GradGradGradGradGradGradGradGradGradGradGradGradGradGradGradGradGradGrad
 Berny optimization.
 Internal  Forces:  Max     0.000220528 RMS     0.000039661
 Search for a saddle point.
 Step number   1 out of a maximum of   82
 All quantities printed in internal units (Hartrees-Bohrs-Radians)
 Swapping is turned off.
 Second derivative matrix not updated -- analytic derivatives used.
 ITU=  0
     Eigenvalues ---   -0.13577   0.01002   0.01611   0.01613   0.01900
     Eigenvalues ---    0.02052   0.02285   0.02798   0.02925   0.03221
     Eigenvalues ---    0.03261   0.03716   0.04403   0.10606   0.10700
     Eigenvalues ---    0.10933   0.10946   0.11447   0.11947   0.12222
     Eigenvalues ---    0.12351   0.15846   0.17713   0.19198   0.19354
     Eigenvalues ---    0.23131   0.30029   0.31336   0.34453   0.34533
     Eigenvalues ---    0.35142   0.35612   0.35659   0.35796   0.36758
     Eigenvalues ---    0.36780   0.39293   0.39921   0.46331   0.47289
     Eigenvalues ---    0.48018   0.50460
 Eigenvectors required to have negative eigenvalues:
                          A17       A3        D29       D11       D31
   1                    0.34308   0.34308  -0.32652  -0.32652  -0.29092
                          D9        A2        A18       D12       D30
   1                   -0.29092  -0.28655  -0.28655  -0.15938  -0.15938
 RFO step:  Lambda0=2.828163643D-07 Lambda=-3.01429236D-07.
 Linear search not attempted -- option 19 set.
 Iteration  1 RMS(Cart)=  0.00036124 RMS(Int)=  0.00000010
 Iteration  2 RMS(Cart)=  0.00000014 RMS(Int)=  0.00000001
 ClnCor:  largest displacement from symmetrization is 2.45D-12 for atom    15.
 Variable       Old X    -DE/DX   Delta X   Delta X   Delta X     New X
                                 (Linear)    (Quad)   (Total)
    R1        2.65592   0.00003   0.00000  -0.00003  -0.00003   2.65589
    R2        2.66851   0.00022   0.00000   0.00024   0.00024   2.66875
    R3        2.69064   0.00005   0.00000   0.00028   0.00028   2.69092
    R4        2.04758  -0.00000   0.00000  -0.00000  -0.00000   2.04757
    R5        2.60882  -0.00004   0.00000  -0.00001  -0.00001   2.60881
    R6        2.67159   0.00004   0.00000   0.00006   0.00006   2.67164
    R7        2.04654  -0.00000   0.00000  -0.00000  -0.00000   2.04653
    R8        2.04654  -0.00000   0.00000  -0.00000  -0.00000   2.04653
    R9        2.60882  -0.00004   0.00000  -0.00001  -0.00001   2.60881
   R10        2.04758  -0.00000   0.00000  -0.00000  -0.00000   2.04757
   R11        2.65592   0.00003   0.00000  -0.00003  -0.00003   2.65589
   R12        2.69064   0.00005   0.00000   0.00028   0.00028   2.69092
   R13        2.03739  -0.00001   0.00000  -0.00002  -0.00002   2.03737
   R14        2.05641   0.00000   0.00000   0.00003   0.00003   2.05643
   R15        2.03739  -0.00001   0.00000  -0.00002  -0.00002   2.03737
   R16        2.05641   0.00000   0.00000   0.00003   0.00003   2.05643
    A1        2.10014  -0.00004   0.00000   0.00003   0.00003   2.10017
    A2        2.32753  -0.00007   0.00000   0.00020   0.00020   2.32773
    A3        1.85436   0.00011   0.00000  -0.00024  -0.00024   1.85412
    A4        2.12272  -0.00001   0.00000   0.00002   0.00002   2.12274
    A5        2.04369   0.00002   0.00000  -0.00001  -0.00001   2.04368
    A6        2.11301  -0.00001   0.00000  -0.00000  -0.00000   2.11300
    A7        2.12056   0.00002   0.00000   0.00004   0.00004   2.12060
    A8        2.08833  -0.00001   0.00000  -0.00003  -0.00003   2.08830
    A9        2.07350  -0.00001   0.00000  -0.00002  -0.00002   2.07349
   A10        2.07350  -0.00001   0.00000  -0.00002  -0.00002   2.07349
   A11        2.12056   0.00002   0.00000   0.00004   0.00004   2.12060
   A12        2.08833  -0.00001   0.00000  -0.00003  -0.00003   2.08830
   A13        2.11301  -0.00001   0.00000  -0.00000  -0.00000   2.11300
   A14        2.04369   0.00002   0.00000  -0.00001  -0.00001   2.04368
   A15        2.12272  -0.00001   0.00000   0.00002   0.00002   2.12274
   A16        2.10014  -0.00004   0.00000   0.00003   0.00003   2.10017
   A17        1.85436   0.00011   0.00000  -0.00024  -0.00024   1.85412
   A18        2.32753  -0.00007   0.00000   0.00020   0.00020   2.32773
   A19        2.05868   0.00005   0.00000   0.00028   0.00028   2.05896
   A20        2.14752  -0.00005   0.00000  -0.00036  -0.00036   2.14716
   A21        2.00822  -0.00000   0.00000  -0.00002  -0.00002   2.00820
   A22        2.05868   0.00005   0.00000   0.00028   0.00028   2.05896
   A23        2.14752  -0.00005   0.00000  -0.00036  -0.00036   2.14716
   A24        2.00822  -0.00000   0.00000  -0.00002  -0.00002   2.00820
    D1        3.01926   0.00000   0.00000   0.00023   0.00023   3.01949
    D2       -0.21454  -0.00000   0.00000   0.00027   0.00027  -0.21426
    D3       -0.18172  -0.00001   0.00000  -0.00006  -0.00006  -0.18178
    D4        2.86767  -0.00001   0.00000  -0.00002  -0.00002   2.86765
    D5        0.32079  -0.00001   0.00000  -0.00047  -0.00047   0.32032
    D6       -2.77584   0.00001   0.00000  -0.00027  -0.00027  -2.77610
    D7       -2.77584   0.00001   0.00000  -0.00027  -0.00027  -2.77610
    D8        0.41072   0.00002   0.00000  -0.00006  -0.00006   0.41066
    D9       -2.11084  -0.00001   0.00000   0.00092   0.00092  -2.10991
   D10        0.62120  -0.00000   0.00000   0.00063   0.00063   0.62184
   D11        0.97737  -0.00002   0.00000   0.00067   0.00067   0.97803
   D12       -2.57378  -0.00001   0.00000   0.00038   0.00038  -2.57340
   D13        0.01866   0.00001   0.00000   0.00013   0.00013   0.01879
   D14       -3.07953   0.00001   0.00000   0.00021   0.00021  -3.07933
   D15        3.06859   0.00000   0.00000   0.00017   0.00017   3.06876
   D16       -0.02960   0.00000   0.00000   0.00025   0.00025  -0.02935
   D17       -3.10424  -0.00000   0.00000  -0.00041  -0.00041  -3.10464
   D18        0.08040  -0.00000   0.00000  -0.00033  -0.00033   0.08007
   D19       -0.00569  -0.00001   0.00000  -0.00048  -0.00048  -0.00617
   D20       -3.10424  -0.00000   0.00000  -0.00041  -0.00041  -3.10464
   D21        3.06859   0.00000   0.00000   0.00017   0.00017   3.06876
   D22        0.01866   0.00001   0.00000   0.00013   0.00013   0.01879
   D23       -0.02960   0.00000   0.00000   0.00025   0.00025  -0.02935
   D24       -3.07953   0.00001   0.00000   0.00021   0.00021  -3.07933
   D25       -0.21454  -0.00000   0.00000   0.00027   0.00027  -0.21426
   D26        2.86767  -0.00001   0.00000  -0.00002  -0.00002   2.86765
   D27        3.01926   0.00000   0.00000   0.00023   0.00023   3.01949
   D28       -0.18172  -0.00001   0.00000  -0.00006  -0.00006  -0.18178
   D29        0.97737  -0.00002   0.00000   0.00067   0.00067   0.97803
   D30       -2.57378  -0.00001   0.00000   0.00038   0.00038  -2.57340
   D31       -2.11084  -0.00001   0.00000   0.00092   0.00092  -2.10991
   D32        0.62120  -0.00000   0.00000   0.00063   0.00063   0.62184
         Item               Value     Threshold  Converged?
 Maximum Force            0.000221     0.000450     YES
 RMS     Force            0.000040     0.000300     YES
 Maximum Displacement     0.001130     0.001800     YES
 RMS     Displacement     0.000361     0.001200     YES
 Predicted change in Energy=-9.306141D-09
 Optimization completed.
    -- Stationary point found.
                           ----------------------------
                           !   Optimized Parameters   !
                           ! (Angstroms and Degrees)  !
 --------------------------                            --------------------------
 ! Name  Definition              Value          Derivative Info.                !
 --------------------------------------------------------------------------------
 ! R1    R(1,2)                  1.4055         -DE/DX =    0.0                 !
 ! R2    R(1,10)                 1.4121         -DE/DX =    0.0002              !
 ! R3    R(1,13)                 1.4238         -DE/DX =    0.0                 !
 ! R4    R(2,3)                  1.0835         -DE/DX =    0.0                 !
 ! R5    R(2,4)                  1.3805         -DE/DX =    0.0                 !
 ! R6    R(4,5)                  1.4137         -DE/DX =    0.0                 !
 ! R7    R(4,6)                  1.083          -DE/DX =    0.0                 !
 ! R8    R(5,7)                  1.083          -DE/DX =    0.0                 !
 ! R9    R(5,8)                  1.3805         -DE/DX =    0.0                 !
 ! R10   R(8,9)                  1.0835         -DE/DX =    0.0                 !
 ! R11   R(8,10)                 1.4055         -DE/DX =    0.0                 !
 ! R12   R(10,11)                1.4238         -DE/DX =    0.0                 !
 ! R13   R(11,12)                1.0781         -DE/DX =    0.0                 !
 ! R14   R(11,14)                1.0882         -DE/DX =    0.0                 !
 ! R15   R(13,15)                1.0781         -DE/DX =    0.0                 !
 ! R16   R(13,16)                1.0882         -DE/DX =    0.0                 !
 ! A1    A(2,1,10)             120.3294         -DE/DX =    0.0                 !
 ! A2    A(2,1,13)             133.3575         -DE/DX =   -0.0001              !
 ! A3    A(10,1,13)            106.2471         -DE/DX =    0.0001              !
 ! A4    A(1,2,3)              121.6232         -DE/DX =    0.0                 !
 ! A5    A(1,2,4)              117.0947         -DE/DX =    0.0                 !
 ! A6    A(3,2,4)              121.0665         -DE/DX =    0.0                 !
 ! A7    A(2,4,5)              121.4993         -DE/DX =    0.0                 !
 ! A8    A(2,4,6)              119.6523         -DE/DX =    0.0                 !
 ! A9    A(5,4,6)              118.8029         -DE/DX =    0.0                 !
 ! A10   A(4,5,7)              118.8029         -DE/DX =    0.0                 !
 ! A11   A(4,5,8)              121.4993         -DE/DX =    0.0                 !
 ! A12   A(7,5,8)              119.6523         -DE/DX =    0.0                 !
 ! A13   A(5,8,9)              121.0665         -DE/DX =    0.0                 !
 ! A14   A(5,8,10)             117.0947         -DE/DX =    0.0                 !
 ! A15   A(9,8,10)             121.6232         -DE/DX =    0.0                 !
 ! A16   A(1,10,8)             120.3294         -DE/DX =    0.0                 !
 ! A17   A(1,10,11)            106.2471         -DE/DX =    0.0001              !
 ! A18   A(8,10,11)            133.3575         -DE/DX =   -0.0001              !
 ! A19   A(10,11,12)           117.9538         -DE/DX =    0.0001              !
 ! A20   A(10,11,14)           123.0438         -DE/DX =    0.0                 !
 ! A21   A(12,11,14)           115.0627         -DE/DX =    0.0                 !
 ! A22   A(1,13,15)            117.9538         -DE/DX =    0.0001              !
 ! A23   A(1,13,16)            123.0438         -DE/DX =    0.0                 !
 ! A24   A(15,13,16)           115.0627         -DE/DX =    0.0                 !
 ! D1    D(10,1,2,3)           172.991          -DE/DX =    0.0                 !
 ! D2    D(10,1,2,4)           -12.292          -DE/DX =    0.0                 !
 ! D3    D(13,1,2,3)           -10.4118         -DE/DX =    0.0                 !
 ! D4    D(13,1,2,4)           164.3052         -DE/DX =    0.0                 !
 ! D5    D(2,1,10,8)            18.3799         -DE/DX =    0.0                 !
 ! D6    D(2,1,10,11)         -159.0437         -DE/DX =    0.0                 !
 ! D7    D(13,1,10,8)         -159.0437         -DE/DX =    0.0                 !
 ! D8    D(13,1,10,11)          23.5327         -DE/DX =    0.0                 !
 ! D9    D(2,1,13,15)         -120.9422         -DE/DX =    0.0                 !
 ! D10   D(2,1,13,16)           35.5922         -DE/DX =    0.0                 !
 ! D11   D(10,1,13,15)          55.9989         -DE/DX =    0.0                 !
 ! D12   D(10,1,13,16)        -147.4666         -DE/DX =    0.0                 !
 ! D13   D(1,2,4,5)              1.0691         -DE/DX =    0.0                 !
 ! D14   D(1,2,4,6)           -176.4442         -DE/DX =    0.0                 !
 ! D15   D(3,2,4,5)            175.8173         -DE/DX =    0.0                 !
 ! D16   D(3,2,4,6)             -1.6959         -DE/DX =    0.0                 !
 ! D17   D(2,4,5,7)           -177.8598         -DE/DX =    0.0                 !
 ! D18   D(2,4,5,8)              4.6064         -DE/DX =    0.0                 !
 ! D19   D(6,4,5,7)             -0.326          -DE/DX =    0.0                 !
 ! D20   D(6,4,5,8)           -177.8598         -DE/DX =    0.0                 !
 ! D21   D(4,5,8,9)            175.8173         -DE/DX =    0.0                 !
 ! D22   D(4,5,8,10)             1.0691         -DE/DX =    0.0                 !
 ! D23   D(7,5,8,9)             -1.6959         -DE/DX =    0.0                 !
 ! D24   D(7,5,8,10)          -176.4442         -DE/DX =    0.0                 !
 ! D25   D(5,8,10,1)           -12.292          -DE/DX =    0.0                 !
 ! D26   D(5,8,10,11)          164.3052         -DE/DX =    0.0                 !
 ! D27   D(9,8,10,1)           172.991          -DE/DX =    0.0                 !
 ! D28   D(9,8,10,11)          -10.4118         -DE/DX =    0.0                 !
 ! D29   D(1,10,11,12)          55.9989         -DE/DX =    0.0                 !
 ! D30   D(1,10,11,14)        -147.4666         -DE/DX =    0.0                 !
 ! D31   D(8,10,11,12)        -120.9422         -DE/DX =    0.0                 !
 ! D32   D(8,10,11,14)          35.5922         -DE/DX =    0.0                 !
 --------------------------------------------------------------------------------
 GradGradGradGradGradGradGradGradGradGradGradGradGradGradGradGradGradGrad

                          Input orientation:                          
 ---------------------------------------------------------------------
 Center     Atomic      Atomic             Coordinates (Angstroms)
 Number     Number       Type             X           Y           Z
 ---------------------------------------------------------------------
      1          6           0       -0.023803    0.705656    0.512291
      2          6           0       -0.241361    1.408433   -0.685236
      3          1           0       -0.393218    2.481227   -0.694843
      4          6           0       -0.142394    0.692381   -1.861389
      5          6           0        0.142394   -0.692381   -1.861389
      6          1           0       -0.244858    1.204006   -2.810383
      7          1           0        0.244858   -1.204006   -2.810383
      8          6           0        0.241361   -1.408433   -0.685236
      9          1           0        0.393218   -2.481227   -0.694843
     10          6           0        0.023803   -0.705656    0.512291
     11          6           0       -0.241361   -1.113186    1.850531
     12          1           0       -1.155578   -0.773919    2.310410
     13          6           0        0.241361    1.113186    1.850531
     14          1           0        0.196862   -2.003269    2.297632
     15          1           0        1.155578    0.773919    2.310410
     16          1           0       -0.196862    2.003269    2.297632
 ---------------------------------------------------------------------
                    Distance matrix (angstroms):
                    1          2          3          4          5
     1  C    0.000000
     2  C    1.405453   0.000000
     3  H    2.178599   1.083531   0.000000
     4  C    2.376678   1.380529   2.150282   0.000000
     5  C    2.759798   2.438037   3.423375   1.413743   0.000000
     6  H    3.367103   2.134960   2.475644   1.082981   2.155652
     7  H    3.841764   3.402572   4.296928   2.155652   1.082981
     8  C    2.444127   2.857928   3.941096   2.438037   1.380529
     9  H    3.433264   3.941096   5.024384   3.423375   2.150282
    10  C    1.412115   2.444127   3.433264   2.759798   2.376678
    11  C    2.268569   3.576126   4.407016   4.128949   3.755355
    12  H    2.589071   3.817374   4.495410   4.536572   4.369815
    13  C    1.423825   2.598135   2.958573   3.755355   4.128949
    14  H    3.251832   4.552939   5.423450   4.967804   4.361061
    15  H    2.151472   3.365701   3.787508   4.369815   4.536572
    16  H    2.213863   3.041926   3.036759   4.361061   4.967804
                    6          7          8          9         10
     6  H    0.000000
     7  H    2.457304   0.000000
     8  C    3.402572   2.134960   0.000000
     9  H    4.296928   2.475644   1.083531   0.000000
    10  C    3.841764   3.367103   1.405453   2.178599   0.000000
    11  C    5.205143   4.687086   2.598135   2.958573   1.423825
    12  H    5.564541   5.326229   3.365701   3.787508   2.151472
    13  C    4.687086   5.205143   3.576126   4.407016   2.268569
    14  H    6.047607   5.170391   3.041926   3.036759   2.213863
    15  H    5.326229   5.564541   3.817374   4.495410   2.589071
    16  H    5.170391   6.047607   4.552939   5.423450   3.251832
                   11         12         13         14         15
    11  C    0.000000
    12  H    1.078139   0.000000
    13  C    2.278103   2.392508   0.000000
    14  H    1.088203   1.827720   3.148678   0.000000
    15  H    2.392508   2.781590   1.078139   2.938039   0.000000
    16  H    3.148678   2.938039   1.088203   4.025837   1.827720
                   16
    16  H    0.000000
 Stoichiometry    C8H8
 Framework group  C2[X(C8H8)]
 Deg. of freedom    22
 Full point group                 C2      NOp   2
 Largest Abelian subgroup         C2      NOp   2
 Largest concise Abelian subgroup C2      NOp   2
                         Standard orientation:                         
 ---------------------------------------------------------------------
 Center     Atomic      Atomic             Coordinates (Angstroms)
 Number     Number       Type             X           Y           Z
 ---------------------------------------------------------------------
      1          6           0       -0.023803    0.705656    0.512291
      2          6           0       -0.241361    1.408433   -0.685236
      3          1           0       -0.393218    2.481227   -0.694843
      4          6           0       -0.142394    0.692381   -1.861389
      5          6           0        0.142394   -0.692381   -1.861389
      6          1           0       -0.244858    1.204006   -2.810383
      7          1           0        0.244858   -1.204006   -2.810383
      8          6           0        0.241361   -1.408433   -0.685236
      9          1           0        0.393218   -2.481227   -0.694843
     10          6           0        0.023803   -0.705656    0.512291
     11          6           0       -0.241361   -1.113186    1.850531
     12          1           0       -1.155578   -0.773919    2.310410
     13          6           0        0.241361    1.113186    1.850531
     14          1           0        0.196862   -2.003269    2.297632
     15          1           0        1.155578    0.773919    2.310410
     16          1           0       -0.196862    2.003269    2.297632
 ---------------------------------------------------------------------
 Rotational constants (GHZ):           3.8306242           2.2229067           1.4568655
 1\1\GINC-BHC0021\FTS\RB3LYP\def2TZVP\C8H8\DHANAWAY\10-Jun-2022\0\\# Op
 t=(TS, CalcFC, noeigentest) B3LYP/Def2TZVP freq=noraman pop=none\\ts_i
 nitalOpt\\0,1\C,-0.023803,0.705656,0.512291\C,-0.241361,1.408433,-0.68
 5236\H,-0.393218,2.481227,-0.694843\C,-0.142394,0.692381,-1.861389\C,0
 .142394,-0.692381,-1.861389\H,-0.244858,1.204006,-2.810383\H,0.244858,
 -1.204006,-2.810383\C,0.241361,-1.408433,-0.685236\H,0.393218,-2.48122
 7,-0.694843\C,0.023803,-0.705656,0.512291\C,-0.241361,-1.113186,1.8505
 31\H,-1.155578,-0.773919,2.31041\C,0.241361,1.113186,1.850531\H,0.1968
 62,-2.003269,2.297632\H,1.155578,0.773919,2.31041\H,-0.196862,2.003269
 ,2.297632\\Version=ES64L-G16RevA.03\State=1-A\HF=-309.6783502\RMSD=2.8
 17e-09\RMSF=4.193e-05\Dipole=0.,0.,0.0783301\Polar=0.,0.,0.,0.,0.,0.\P
 G=C02 [X(C8H8)]\\@


 FIREWORKS ENDED
 AND SPECTATORS GONE AWAY....
 AH, HOW VAST AND DARK
                     SHIKI
 Job cpu time:       0 days  0 hours 42 minutes 56.2 seconds.
 Elapsed time:       0 days  0 hours  3 minutes 40.7 seconds.
 File lengths (MBytes):  RWF=     83 Int=      0 D2E=      0 Chk=     32 Scr=      1
 Normal termination of Gaussian 16 at Fri Jun 10 02:05:04 2022.
 Link1:  Proceeding to internal job step number  2.
 --------------------------------------------------------------------
 #N Geom=AllCheck Guess=TCheck SCRF=Check GenChk RB3LYP/def2TZVP Freq
 --------------------------------------------------------------------
 1/5=1,10=4,11=1,29=7,30=1,38=1,40=1/1,3;
 2/12=2,40=1/2;
 3/5=44,7=101,11=2,14=-4,25=1,30=1,70=2,71=2,74=-5,116=1,140=1/1,2,3;
 4/5=101/1;
 5/5=2,38=6,98=1/2;
 8/6=4,10=90,11=11/1;
 11/6=1,8=1,9=11,15=111,16=1/1,2,10;
 10/6=1/2;
 7/8=1,10=1,25=1/1,2,3,16;
 1/5=1,10=4,11=1,30=1/3;
 99//99;
 Structure from the checkpoint file:  "checkpoint.chk"
 ------------
 ts_initalOpt
 ------------
 Charge =  0 Multiplicity = 1
 Redundant internal coordinates found in file.  (old form).
 C,0,-0.023803,0.705656,0.512291
 C,0,-0.241361,1.408433,-0.685236
 H,0,-0.393218,2.481227,-0.694843
 C,0,-0.142394,0.692381,-1.861389
 C,0,0.142394,-0.692381,-1.861389
 H,0,-0.244858,1.204006,-2.810383
 H,0,0.244858,-1.204006,-2.810383
 C,0,0.241361,-1.408433,-0.685236
 H,0,0.393218,-2.481227,-0.694843
 C,0,0.023803,-0.705656,0.512291
 C,0,-0.241361,-1.113186,1.850531
 H,0,-1.155578,-0.773919,2.31041
 C,0,0.241361,1.113186,1.850531
 H,0,0.196862,-2.003269,2.297632
 H,0,1.155578,0.773919,2.31041
 H,0,-0.196862,2.003269,2.297632
 Recover connectivity data from disk.

 GradGradGradGradGradGradGradGradGradGradGradGradGradGradGradGradGradGrad
 Berny optimization.
 Initialization pass.
                           ----------------------------
                           !    Initial Parameters    !
                           ! (Angstroms and Degrees)  !
 --------------------------                            --------------------------
 ! Name  Definition              Value          Derivative Info.                !
 --------------------------------------------------------------------------------
 ! R1    R(1,2)                  1.4055         calculate D2E/DX2 analytically  !
 ! R2    R(1,10)                 1.4121         calculate D2E/DX2 analytically  !
 ! R3    R(1,13)                 1.4238         calculate D2E/DX2 analytically  !
 ! R4    R(2,3)                  1.0835         calculate D2E/DX2 analytically  !
 ! R5    R(2,4)                  1.3805         calculate D2E/DX2 analytically  !
 ! R6    R(4,5)                  1.4137         calculate D2E/DX2 analytically  !
 ! R7    R(4,6)                  1.083          calculate D2E/DX2 analytically  !
 ! R8    R(5,7)                  1.083          calculate D2E/DX2 analytically  !
 ! R9    R(5,8)                  1.3805         calculate D2E/DX2 analytically  !
 ! R10   R(8,9)                  1.0835         calculate D2E/DX2 analytically  !
 ! R11   R(8,10)                 1.4055         calculate D2E/DX2 analytically  !
 ! R12   R(10,11)                1.4238         calculate D2E/DX2 analytically  !
 ! R13   R(11,12)                1.0781         calculate D2E/DX2 analytically  !
 ! R14   R(11,14)                1.0882         calculate D2E/DX2 analytically  !
 ! R15   R(13,15)                1.0781         calculate D2E/DX2 analytically  !
 ! R16   R(13,16)                1.0882         calculate D2E/DX2 analytically  !
 ! A1    A(2,1,10)             120.3294         calculate D2E/DX2 analytically  !
 ! A2    A(2,1,13)             133.3575         calculate D2E/DX2 analytically  !
 ! A3    A(10,1,13)            106.2471         calculate D2E/DX2 analytically  !
 ! A4    A(1,2,3)              121.6232         calculate D2E/DX2 analytically  !
 ! A5    A(1,2,4)              117.0947         calculate D2E/DX2 analytically  !
 ! A6    A(3,2,4)              121.0665         calculate D2E/DX2 analytically  !
 ! A7    A(2,4,5)              121.4993         calculate D2E/DX2 analytically  !
 ! A8    A(2,4,6)              119.6523         calculate D2E/DX2 analytically  !
 ! A9    A(5,4,6)              118.8029         calculate D2E/DX2 analytically  !
 ! A10   A(4,5,7)              118.8029         calculate D2E/DX2 analytically  !
 ! A11   A(4,5,8)              121.4993         calculate D2E/DX2 analytically  !
 ! A12   A(7,5,8)              119.6523         calculate D2E/DX2 analytically  !
 ! A13   A(5,8,9)              121.0665         calculate D2E/DX2 analytically  !
 ! A14   A(5,8,10)             117.0947         calculate D2E/DX2 analytically  !
 ! A15   A(9,8,10)             121.6232         calculate D2E/DX2 analytically  !
 ! A16   A(1,10,8)             120.3294         calculate D2E/DX2 analytically  !
 ! A17   A(1,10,11)            106.2471         calculate D2E/DX2 analytically  !
 ! A18   A(8,10,11)            133.3575         calculate D2E/DX2 analytically  !
 ! A19   A(10,11,12)           117.9538         calculate D2E/DX2 analytically  !
 ! A20   A(10,11,14)           123.0438         calculate D2E/DX2 analytically  !
 ! A21   A(12,11,14)           115.0627         calculate D2E/DX2 analytically  !
 ! A22   A(1,13,15)            117.9538         calculate D2E/DX2 analytically  !
 ! A23   A(1,13,16)            123.0438         calculate D2E/DX2 analytically  !
 ! A24   A(15,13,16)           115.0627         calculate D2E/DX2 analytically  !
 ! D1    D(10,1,2,3)           172.991          calculate D2E/DX2 analytically  !
 ! D2    D(10,1,2,4)           -12.292          calculate D2E/DX2 analytically  !
 ! D3    D(13,1,2,3)           -10.4118         calculate D2E/DX2 analytically  !
 ! D4    D(13,1,2,4)           164.3052         calculate D2E/DX2 analytically  !
 ! D5    D(2,1,10,8)            18.3799         calculate D2E/DX2 analytically  !
 ! D6    D(2,1,10,11)         -159.0437         calculate D2E/DX2 analytically  !
 ! D7    D(13,1,10,8)         -159.0437         calculate D2E/DX2 analytically  !
 ! D8    D(13,1,10,11)          23.5327         calculate D2E/DX2 analytically  !
 ! D9    D(2,1,13,15)         -120.9422         calculate D2E/DX2 analytically  !
 ! D10   D(2,1,13,16)           35.5922         calculate D2E/DX2 analytically  !
 ! D11   D(10,1,13,15)          55.9989         calculate D2E/DX2 analytically  !
 ! D12   D(10,1,13,16)        -147.4666         calculate D2E/DX2 analytically  !
 ! D13   D(1,2,4,5)              1.0691         calculate D2E/DX2 analytically  !
 ! D14   D(1,2,4,6)           -176.4442         calculate D2E/DX2 analytically  !
 ! D15   D(3,2,4,5)            175.8173         calculate D2E/DX2 analytically  !
 ! D16   D(3,2,4,6)             -1.6959         calculate D2E/DX2 analytically  !
 ! D17   D(2,4,5,7)           -177.8598         calculate D2E/DX2 analytically  !
 ! D18   D(2,4,5,8)              4.6064         calculate D2E/DX2 analytically  !
 ! D19   D(6,4,5,7)             -0.326          calculate D2E/DX2 analytically  !
 ! D20   D(6,4,5,8)           -177.8598         calculate D2E/DX2 analytically  !
 ! D21   D(4,5,8,9)            175.8173         calculate D2E/DX2 analytically  !
 ! D22   D(4,5,8,10)             1.0691         calculate D2E/DX2 analytically  !
 ! D23   D(7,5,8,9)             -1.6959         calculate D2E/DX2 analytically  !
 ! D24   D(7,5,8,10)          -176.4442         calculate D2E/DX2 analytically  !
 ! D25   D(5,8,10,1)           -12.292          calculate D2E/DX2 analytically  !
 ! D26   D(5,8,10,11)          164.3052         calculate D2E/DX2 analytically  !
 ! D27   D(9,8,10,1)           172.991          calculate D2E/DX2 analytically  !
 ! D28   D(9,8,10,11)          -10.4118         calculate D2E/DX2 analytically  !
 ! D29   D(1,10,11,12)          55.9989         calculate D2E/DX2 analytically  !
 ! D30   D(1,10,11,14)        -147.4666         calculate D2E/DX2 analytically  !
 ! D31   D(8,10,11,12)        -120.9422         calculate D2E/DX2 analytically  !
 ! D32   D(8,10,11,14)          35.5922         calculate D2E/DX2 analytically  !
 --------------------------------------------------------------------------------
 Trust Radius=3.00D-01 FncErr=1.00D-07 GrdErr=1.00D-07 EigMax=2.50D+02 EigMin=1.00D-04
 Number of steps in this run=      2 maximum allowed number of steps=      2.
 Search for a saddle point of order  1.
 GradGradGradGradGradGradGradGradGradGradGradGradGradGradGradGradGradGrad

                          Input orientation:                          
 ---------------------------------------------------------------------
 Center     Atomic      Atomic             Coordinates (Angstroms)
 Number     Number       Type             X           Y           Z
 ---------------------------------------------------------------------
      1          6           0       -0.023803    0.705656    0.512291
      2          6           0       -0.241361    1.408433   -0.685236
      3          1           0       -0.393218    2.481227   -0.694843
      4          6           0       -0.142394    0.692381   -1.861389
      5          6           0        0.142394   -0.692381   -1.861389
      6          1           0       -0.244858    1.204006   -2.810383
      7          1           0        0.244858   -1.204006   -2.810383
      8          6           0        0.241361   -1.408433   -0.685236
      9          1           0        0.393218   -2.481227   -0.694843
     10          6           0        0.023803   -0.705656    0.512291
     11          6           0       -0.241361   -1.113186    1.850531
     12          1           0       -1.155578   -0.773919    2.310410
     13          6           0        0.241361    1.113186    1.850531
     14          1           0        0.196862   -2.003269    2.297632
     15          1           0        1.155578    0.773919    2.310410
     16          1           0       -0.196862    2.003269    2.297632
 ---------------------------------------------------------------------
                    Distance matrix (angstroms):
                    1          2          3          4          5
     1  C    0.000000
     2  C    1.405453   0.000000
     3  H    2.178599   1.083531   0.000000
     4  C    2.376678   1.380529   2.150282   0.000000
     5  C    2.759798   2.438037   3.423375   1.413743   0.000000
     6  H    3.367103   2.134960   2.475644   1.082981   2.155652
     7  H    3.841764   3.402572   4.296928   2.155652   1.082981
     8  C    2.444127   2.857928   3.941096   2.438037   1.380529
     9  H    3.433264   3.941096   5.024384   3.423375   2.150282
    10  C    1.412115   2.444127   3.433264   2.759798   2.376678
    11  C    2.268569   3.576126   4.407016   4.128949   3.755355
    12  H    2.589071   3.817374   4.495410   4.536572   4.369815
    13  C    1.423825   2.598135   2.958573   3.755355   4.128949
    14  H    3.251832   4.552939   5.423450   4.967804   4.361061
    15  H    2.151472   3.365701   3.787508   4.369815   4.536572
    16  H    2.213863   3.041926   3.036759   4.361061   4.967804
                    6          7          8          9         10
     6  H    0.000000
     7  H    2.457304   0.000000
     8  C    3.402572   2.134960   0.000000
     9  H    4.296928   2.475644   1.083531   0.000000
    10  C    3.841764   3.367103   1.405453   2.178599   0.000000
    11  C    5.205143   4.687086   2.598135   2.958573   1.423825
    12  H    5.564541   5.326229   3.365701   3.787508   2.151472
    13  C    4.687086   5.205143   3.576126   4.407016   2.268569
    14  H    6.047607   5.170391   3.041926   3.036759   2.213863
    15  H    5.326229   5.564541   3.817374   4.495410   2.589071
    16  H    5.170391   6.047607   4.552939   5.423450   3.251832
                   11         12         13         14         15
    11  C    0.000000
    12  H    1.078139   0.000000
    13  C    2.278103   2.392508   0.000000
    14  H    1.088203   1.827720   3.148678   0.000000
    15  H    2.392508   2.781590   1.078139   2.938039   0.000000
    16  H    3.148678   2.938039   1.088203   4.025837   1.827720
                   16
    16  H    0.000000
 Stoichiometry    C8H8
 Framework group  C2[X(C8H8)]
 Deg. of freedom    22
 Full point group                 C2      NOp   2
 Largest Abelian subgroup         C2      NOp   2
 Largest concise Abelian subgroup C2      NOp   2
                         Standard orientation:                         
 ---------------------------------------------------------------------
 Center     Atomic      Atomic             Coordinates (Angstroms)
 Number     Number       Type             X           Y           Z
 ---------------------------------------------------------------------
      1          6           0       -0.023803    0.705656    0.512291
      2          6           0       -0.241361    1.408433   -0.685236
      3          1           0       -0.393218    2.481227   -0.694843
      4          6           0       -0.142394    0.692381   -1.861389
      5          6           0        0.142394   -0.692381   -1.861389
      6          1           0       -0.244858    1.204006   -2.810383
      7          1           0        0.244858   -1.204006   -2.810383
      8          6           0        0.241361   -1.408433   -0.685236
      9          1           0        0.393218   -2.481227   -0.694843
     10          6           0        0.023803   -0.705656    0.512291
     11          6           0       -0.241361   -1.113186    1.850531
     12          1           0       -1.155578   -0.773919    2.310410
     13          6           0        0.241361    1.113186    1.850531
     14          1           0        0.196862   -2.003269    2.297632
     15          1           0        1.155578    0.773919    2.310410
     16          1           0       -0.196862    2.003269    2.297632
 ---------------------------------------------------------------------
 Rotational constants (GHZ):           3.8306242           2.2229067           1.4568655
 Standard basis: def2TZVP (5D, 7F)
 There are   168 symmetry adapted cartesian basis functions of A   symmetry.
 There are   168 symmetry adapted cartesian basis functions of B   symmetry.
 There are   148 symmetry adapted basis functions of A   symmetry.
 There are   148 symmetry adapted basis functions of B   symmetry.
   296 basis functions,   472 primitive gaussians,   336 cartesian basis functions
    28 alpha electrons       28 beta electrons
       nuclear repulsion energy       329.7208475469 Hartrees.
 NAtoms=   16 NActive=   16 NUniq=    8 SFac= 4.00D+00 NAtFMM=   60 NAOKFM=F Big=F
 Integral buffers will be    131072 words long.
 Raffenetti 2 integral format.
 Two-electron integral symmetry is turned on.
 One-electron integrals computed using PRISM.
   2 Symmetry operations used in ECPInt.
 ECPInt:  NShTT=    7260 NPrTT=   21936 LenC2=    7161 LenP2D=   17614.
 LDataN:  DoStor=T MaxTD1= 6 Len=  172
 NBasis=   296 RedAO= T EigKep=  1.25D-05  NBF=   148   148
 NBsUse=   296 1.00D-06 EigRej= -1.00D+00 NBFU=   148   148
 Initial guess from the checkpoint file:  "checkpoint.chk"
 B after Tr=     0.000000    0.000000   -0.000000
         Rot=    1.000000   -0.000000   -0.000000    0.000000 Ang=   0.00 deg.
 Initial guess orbital symmetries:
       Occupied  (B) (A) (A) (B) (A) (B) (A) (B) (A) (A) (B) (B)
                 (A) (A) (B) (A) (A) (B) (B) (B) (A) (A) (B) (B)
                 (A) (A) (B) (A)
       Virtual   (B) (B) (A) (A) (A) (B) (B) (A) (A) (B) (B) (A)
                 (A) (A) (B) (B) (A) (B) (B) (A) (B) (A) (B) (A)
                 (A) (B) (B) (A) (A) (B) (A) (A) (B) (B) (B) (A)
                 (A) (B) (A) (A) (B) (B) (A) (B) (B) (B) (A) (A)
                 (B) (A) (B) (A) (A) (B) (B) (B) (A) (B) (B) (A)
                 (A) (A) (B) (B) (A) (B) (A) (B) (A) (B) (A) (A)
                 (B) (A) (B) (A) (B) (A) (B) (B) (A) (A) (A) (B)
                 (B) (B) (A) (B) (A) (A) (B) (A) (B) (B) (A) (B)
                 (B) (A) (A) (A) (B) (A) (B) (B) (A) (A) (B) (A)
                 (B) (A) (B) (B) (A) (B) (A) (A) (B) (B) (A) (A)
                 (A) (B) (A) (A) (B) (B) (A) (B) (A) (B) (A) (B)
                 (A) (A) (B) (B) (A) (A) (B) (B) (A) (A) (B) (A)
                 (B) (B) (A) (B) (A) (B) (A) (B) (A) (A) (B) (A)
                 (B) (B) (A) (B) (A) (B) (B) (A) (B) (B) (A) (B)
                 (A) (B) (A) (B) (A) (B) (B) (A) (A) (B) (A) (B)
                 (A) (B) (B) (A) (A) (A) (B) (B) (A) (A) (B) (A)
                 (B) (A) (B) (A) (B) (A) (A) (B) (B) (A) (B) (A)
                 (A) (B) (A) (B) (B) (A) (B) (B) (A) (B) (A) (B)
                 (A) (A) (B) (B) (A) (B) (A) (A) (B) (A) (B) (B)
                 (A) (A) (B) (A) (B) (A) (B) (B) (A) (B) (A) (A)
                 (B) (A) (A) (B) (A) (B) (A) (B) (A) (A) (B) (A)
                 (B) (A) (B) (B) (A) (B) (B) (B) (A) (A) (B) (B)
                 (A) (A) (B) (B)
 Keep R1 ints in memory in symmetry-blocked form, NReq=1449239535.
 Requested convergence on RMS density matrix=1.00D-08 within 128 cycles.
 Requested convergence on MAX density matrix=1.00D-06.
 Requested convergence on             energy=1.00D-06.
 No special actions if energy rises.
 SCF Done:  E(RB3LYP) =  -309.678350209     A.U. after    1 cycles
            NFock=  1  Conv=0.20D-08     -V/T= 2.0053
 DoSCS=F DFT=T ScalE2(SS,OS)=  1.000000  1.000000
 Range of M.O.s used for correlation:     1   296
 NBasis=   296 NAE=    28 NBE=    28 NFC=     0 NFV=     0
 NROrb=    296 NOA=    28 NOB=    28 NVA=   268 NVB=   268

 **** Warning!!: The largest alpha MO coefficient is  0.64750610D+02

   2 Symmetry operations used in ECPInt.
 ECPInt:  NShTT=    7260 NPrTT=   21936 LenC2=    7161 LenP2D=   17614.
 LDataN:  DoStor=T MaxTD1= 7 Len=  274
 Symmetrizing basis deriv contribution to polar:
 IMax=3 JMax=2 DiffMx= 0.00D+00
 G2DrvN: will do    17 centers at a time, making    1 passes.
 Calling FoFCou, ICntrl=  3107 FMM=F I1Cent=   0 AccDes= 0.00D+00.
 End of G2Drv F.D. properties file   721 does not exist.
 End of G2Drv F.D. properties file   722 does not exist.
 End of G2Drv F.D. properties file   788 does not exist.
          IDoAtm=1111111111111111
          Differentiating once with respect to electric field.
                with respect to dipole field.
          Differentiating once with respect to nuclear coordinates.
 Keep R1 ints in memory in symmetry-blocked form, NReq=1449246656.
          There are    27 degrees of freedom in the 1st order CPHF.  IDoFFX=4 NUNeed=    27.
     27 vectors produced by pass  0 Test12= 2.78D-14 3.70D-09 XBig12= 2.20D+02 1.12D+01.
 AX will form    27 AO Fock derivatives at one time.
     27 vectors produced by pass  1 Test12= 2.78D-14 3.70D-09 XBig12= 9.01D+01 2.14D+00.
     27 vectors produced by pass  2 Test12= 2.78D-14 3.70D-09 XBig12= 5.03D+00 3.80D-01.
     27 vectors produced by pass  3 Test12= 2.78D-14 3.70D-09 XBig12= 5.70D-02 3.25D-02.
     27 vectors produced by pass  4 Test12= 2.78D-14 3.70D-09 XBig12= 4.79D-04 2.52D-03.
     27 vectors produced by pass  5 Test12= 2.78D-14 3.70D-09 XBig12= 1.94D-06 1.84D-04.
     16 vectors produced by pass  6 Test12= 2.78D-14 3.70D-09 XBig12= 5.27D-09 9.86D-06.
      3 vectors produced by pass  7 Test12= 2.78D-14 3.70D-09 XBig12= 1.36D-11 4.31D-07.
      3 vectors produced by pass  8 Test12= 2.78D-14 3.70D-09 XBig12= 3.13D-14 1.84D-08.
 InvSVY:  IOpt=1 It=  1 EMax= 7.11D-15
 Solved reduced A of dimension   184 with    27 vectors.
 Isotropic polarizability for W=    0.000000       98.20 Bohr**3.
 End of Minotr F.D. properties file   721 does not exist.
 End of Minotr F.D. properties file   722 does not exist.
 End of Minotr F.D. properties file   788 does not exist.
   2 Symmetry operations used in ECPInt.
 ECPInt:  NShTT=    7260 NPrTT=   21936 LenC2=    7161 LenP2D=   17614.
 LDataN:  DoStor=T MaxTD1= 8 Len=  415
 Calling FoFJK, ICntrl=    100127 FMM=F ISym2X=1 I1Cent= 0 IOpClX= 0 NMat=1 NMatS=1 NMatT=0.
 Full mass-weighted force constant matrix:
 Low frequencies --- -625.7382   -4.9891   -0.7681   -0.0003   -0.0003    0.0008
 Low frequencies ---    3.4113  225.0125  226.9001
 ******    1 imaginary frequencies (negative Signs) ****** 
 Diagonal vibrational polarizability:
        7.1067476       1.6731497       4.8338699
 Harmonic frequencies (cm**-1), IR intensities (KM/Mole), Raman scattering
 activities (A**4/AMU), depolarization ratios for plane and unpolarized
 incident light, reduced masses (AMU), force constants (mDyne/A),
 and normal coordinates:
                      1                      2                      3
                      A                      A                      B
 Frequencies --   -625.7382               225.0125               226.9001
 Red. masses --      2.1704                 2.8870                 3.2488
 Frc consts  --      0.5007                 0.0861                 0.0985
 IR Inten    --      5.1096                 0.9089                 5.0363
  Atom  AN      X      Y      Z        X      Y      Z        X      Y      Z
     1   6     0.00  -0.02  -0.06    -0.03  -0.01   0.01     0.21   0.03   0.01
     2   6     0.03   0.00   0.00     0.14   0.01  -0.02     0.12  -0.00   0.01
     3   1     0.04   0.00   0.00     0.26   0.03  -0.01     0.09  -0.00   0.00
     4   6     0.00  -0.02  -0.02     0.12   0.03  -0.02    -0.14  -0.04   0.01
     5   6    -0.00   0.02  -0.02    -0.12  -0.03  -0.02    -0.14  -0.04  -0.01
     6   1    -0.01  -0.01  -0.02     0.25   0.05  -0.02    -0.35  -0.07   0.02
     7   1     0.01   0.01  -0.02    -0.25  -0.05  -0.02    -0.35  -0.07  -0.02
     8   6    -0.03  -0.00   0.00    -0.14  -0.01  -0.02     0.12  -0.00  -0.01
     9   1    -0.04  -0.00   0.00    -0.26  -0.03  -0.01     0.09  -0.00  -0.00
    10   6    -0.00   0.02  -0.06     0.03   0.01   0.01     0.21   0.03  -0.01
    11   6     0.04   0.20   0.09     0.20  -0.08   0.02    -0.12   0.02  -0.08
    12   1    -0.29  -0.25  -0.22     0.21  -0.23   0.15    -0.23   0.06  -0.33
    13   6    -0.04  -0.20   0.09    -0.20   0.08   0.02    -0.12   0.02   0.08
    14   1     0.24   0.37   0.24     0.40  -0.03  -0.06    -0.31  -0.03   0.02
    15   1     0.29   0.25  -0.22    -0.21   0.23   0.15    -0.23   0.06   0.33
    16   1    -0.24  -0.37   0.24    -0.40   0.03  -0.06    -0.31  -0.03  -0.02
                      4                      5                      6
                      B                      B                      A
 Frequencies --    396.8864               432.6701               527.6135
 Red. masses --      2.7175                 3.0082                 3.1544
 Frc consts  --      0.2522                 0.3318                 0.5174
 IR Inten    --      6.0266                 5.3867                 1.3764
  Atom  AN      X      Y      Z        X      Y      Z        X      Y      Z
     1   6    -0.11   0.13   0.02    -0.10  -0.12  -0.04    -0.17   0.00  -0.02
     2   6     0.09   0.07  -0.09     0.18   0.02   0.01    -0.11   0.06   0.03
     3   1     0.30   0.10  -0.25     0.53   0.07   0.14    -0.05   0.07   0.03
     4   6    -0.05  -0.08  -0.03    -0.09   0.07  -0.02     0.20   0.04   0.07
     5   6    -0.05  -0.08   0.03    -0.09   0.07   0.02    -0.20  -0.04   0.07
     6   1    -0.03  -0.14  -0.07    -0.08   0.08  -0.01     0.50   0.05   0.04
     7   1    -0.03  -0.14   0.07    -0.08   0.08   0.01    -0.50  -0.05   0.04
     8   6     0.09   0.07   0.09     0.18   0.02  -0.01     0.11  -0.06   0.03
     9   1     0.30   0.10   0.25     0.53   0.07  -0.14     0.05  -0.07   0.03
    10   6    -0.11   0.13  -0.02    -0.10  -0.12   0.04     0.17  -0.00  -0.02
    11   6     0.02  -0.08  -0.10    -0.02   0.01   0.13    -0.02   0.04  -0.07
    12   1     0.07  -0.23   0.10    -0.03   0.02   0.11    -0.11   0.08  -0.29
    13   6     0.02  -0.08   0.10    -0.02   0.01  -0.13     0.02  -0.04  -0.07
    14   1     0.14  -0.16  -0.36     0.06   0.11   0.26    -0.19   0.01   0.03
    15   1     0.07  -0.23  -0.10    -0.03   0.02  -0.11     0.11  -0.08  -0.29
    16   1     0.14  -0.16   0.36     0.06   0.11  -0.26     0.19  -0.01   0.03
                      7                      8                      9
                      A                      B                      A
 Frequencies --    577.4237               594.1440               654.7565
 Red. masses --      5.1591                 4.0650                 1.2883
 Frc consts  --      1.0135                 0.8455                 0.3254
 IR Inten    --      0.0009                 4.7862                21.3596
  Atom  AN      X      Y      Z        X      Y      Z        X      Y      Z
     1   6     0.09   0.01  -0.14    -0.10   0.01   0.15     0.02   0.02   0.00
     2   6     0.04   0.23   0.07     0.04  -0.08   0.16    -0.02   0.03  -0.03
     3   1     0.07   0.24   0.11     0.32  -0.04   0.04    -0.08   0.02  -0.05
     4   6    -0.09   0.00   0.24    -0.01  -0.11   0.16     0.02   0.02  -0.01
     5   6     0.09  -0.00   0.24    -0.01  -0.11  -0.16    -0.02  -0.02  -0.01
     6   1    -0.17  -0.21   0.14     0.18   0.08   0.25     0.02   0.00  -0.02
     7   1     0.17   0.21   0.14     0.18   0.08  -0.25    -0.02  -0.00  -0.02
     8   6    -0.04  -0.23   0.07     0.04  -0.08  -0.16     0.02  -0.03  -0.03
     9   1    -0.07  -0.24   0.11     0.32  -0.04  -0.04     0.08  -0.02  -0.05
    10   6    -0.09  -0.01  -0.14    -0.10   0.01  -0.15    -0.02  -0.02   0.00
    11   6     0.06   0.04  -0.17     0.03   0.15  -0.11     0.05   0.08   0.01
    12   1     0.10  -0.07  -0.02     0.14   0.33  -0.04     0.34   0.51   0.26
    13   6    -0.06  -0.04  -0.17     0.03   0.15   0.11    -0.05  -0.08   0.01
    14   1     0.22   0.06  -0.29    -0.08   0.12  -0.06    -0.02   0.12   0.13
    15   1    -0.10   0.07  -0.02     0.14   0.33   0.04    -0.34  -0.51   0.26
    16   1    -0.22  -0.06  -0.29    -0.08   0.12   0.06     0.02  -0.12   0.13
                     10                     11                     12
                      B                      A                      B
 Frequencies --    659.0905               744.3621               769.9855
 Red. masses --      1.0924                 3.2056                 1.2341
 Frc consts  --      0.2796                 1.0465                 0.4311
 IR Inten    --      3.6331                 4.9019                55.3598
  Atom  AN      X      Y      Z        X      Y      Z        X      Y      Z
     1   6    -0.01   0.01   0.03     0.24  -0.01  -0.03     0.05   0.01  -0.01
     2   6     0.02   0.00   0.02    -0.12  -0.05   0.02    -0.07   0.00  -0.00
     3   1    -0.16  -0.02  -0.01    -0.37  -0.08   0.07     0.33   0.06  -0.04
     4   6     0.02  -0.02   0.03     0.15   0.03   0.00    -0.05  -0.01  -0.00
     5   6     0.02  -0.02  -0.03    -0.15  -0.03   0.00    -0.05  -0.01   0.00
     6   1    -0.16  -0.03   0.04     0.13   0.05   0.01     0.52   0.10  -0.01
     7   1    -0.16  -0.03  -0.04    -0.13  -0.05   0.01     0.52   0.10   0.01
     8   6     0.02   0.00  -0.02     0.12   0.05   0.02    -0.07   0.00   0.00
     9   1    -0.16  -0.02   0.01     0.37   0.08   0.07     0.33   0.06   0.04
    10   6    -0.01   0.01  -0.03    -0.24   0.01  -0.03     0.05   0.01   0.01
    11   6    -0.01   0.01  -0.01    -0.04  -0.01   0.00    -0.00  -0.01   0.01
    12   1    -0.20  -0.33  -0.12    -0.02  -0.26   0.23    -0.14  -0.18  -0.14
    13   6    -0.01   0.01   0.01     0.04   0.01   0.00    -0.00  -0.01  -0.01
    14   1     0.40   0.30   0.15     0.27   0.04  -0.19     0.10   0.08   0.08
    15   1    -0.20  -0.33   0.12     0.02   0.26   0.23    -0.14  -0.18   0.14
    16   1     0.40   0.30  -0.15    -0.27  -0.04  -0.19     0.10   0.08  -0.08
                     13                     14                     15
                      A                      A                      B
 Frequencies --    815.9579               856.2737               882.7463
 Red. masses --      3.6338                 1.3131                 1.7925
 Frc consts  --      1.4254                 0.5672                 0.8230
 IR Inten    --      0.0138                 7.8797                11.2158
  Atom  AN      X      Y      Z        X      Y      Z        X      Y      Z
     1   6    -0.00   0.10   0.00     0.02   0.01  -0.01    -0.01   0.02  -0.03
     2   6    -0.03   0.24  -0.11    -0.08  -0.01   0.00    -0.02   0.05   0.03
     3   1    -0.23   0.21  -0.26     0.51   0.08  -0.04     0.09   0.06  -0.06
     4   6     0.01   0.03  -0.04    -0.06  -0.02  -0.00     0.04  -0.04   0.10
     5   6    -0.01  -0.03  -0.04     0.06   0.02  -0.00     0.04  -0.04  -0.10
     6   1    -0.05  -0.15  -0.14     0.32   0.05  -0.01    -0.17  -0.02   0.13
     7   1     0.05   0.15  -0.14    -0.32  -0.05  -0.01    -0.17  -0.02  -0.13
     8   6     0.03  -0.24  -0.11     0.08   0.01   0.00    -0.02   0.05  -0.03
     9   1     0.23  -0.21  -0.26    -0.51  -0.08  -0.04     0.09   0.06   0.06
    10   6     0.00  -0.10   0.00    -0.02  -0.01  -0.01    -0.01   0.02   0.03
    11   6    -0.06  -0.11   0.14    -0.05  -0.03  -0.01     0.05   0.03   0.12
    12   1    -0.13  -0.18   0.08     0.04   0.02   0.12    -0.25  -0.34  -0.18
    13   6     0.06   0.11   0.14     0.05   0.03  -0.01     0.05   0.03  -0.12
    14   1     0.06   0.04   0.33     0.22   0.17   0.12    -0.30  -0.29  -0.15
    15   1     0.13   0.18   0.08    -0.04  -0.02   0.12    -0.25  -0.34   0.18
    16   1    -0.06  -0.04   0.33    -0.22  -0.17   0.12    -0.30  -0.29   0.15
                     16                     17                     18
                      B                      A                      B
 Frequencies --    886.7013               891.4262               945.4781
 Red. masses --      2.4796                 1.5815                 1.3689
 Frc consts  --      1.1486                 0.7404                 0.7210
 IR Inten    --      4.4104                39.7738                 6.5412
  Atom  AN      X      Y      Z        X      Y      Z        X      Y      Z
     1   6     0.06   0.05  -0.05    -0.06  -0.02  -0.01     0.01   0.00   0.00
     2   6    -0.01   0.09   0.03     0.05  -0.03   0.02    -0.10  -0.02  -0.00
     3   1    -0.00   0.09  -0.10    -0.20  -0.07   0.08     0.52   0.07  -0.03
     4   6     0.01  -0.07   0.14     0.04  -0.01   0.02     0.07   0.02  -0.02
     5   6     0.01  -0.07  -0.14    -0.04   0.01   0.02     0.07   0.02   0.02
     6   1     0.02   0.00   0.18    -0.20  -0.03   0.03    -0.41  -0.10  -0.03
     7   1     0.02   0.00  -0.18     0.20   0.03   0.03    -0.41  -0.10   0.03
     8   6    -0.01   0.09  -0.03    -0.05   0.03   0.02    -0.10  -0.02   0.00
     9   1    -0.00   0.09   0.10     0.20   0.07   0.08     0.52   0.07   0.03
    10   6     0.06   0.05   0.05     0.06   0.02  -0.01     0.01   0.00  -0.00
    11   6    -0.09  -0.11   0.07    -0.08  -0.07  -0.07    -0.00  -0.02  -0.03
    12   1     0.23   0.24   0.44     0.05   0.11   0.05     0.02   0.08  -0.06
    13   6    -0.09  -0.11  -0.07     0.08   0.07  -0.07    -0.00  -0.02   0.03
    14   1     0.16   0.10   0.22     0.38   0.36   0.30     0.05   0.08   0.11
    15   1     0.23   0.24  -0.44    -0.05  -0.11   0.05     0.02   0.08   0.06
    16   1     0.16   0.10  -0.22    -0.38  -0.36   0.30     0.05   0.08  -0.11
                     19                     20                     21
                      A                      B                      A
 Frequencies --    975.0195              1008.2524              1014.9967
 Red. masses --      1.2747                 1.4738                 2.1594
 Frc consts  --      0.7140                 0.8828                 1.3107
 IR Inten    --      0.5922                 2.5531                 0.0493
  Atom  AN      X      Y      Z        X      Y      Z        X      Y      Z
     1   6     0.00  -0.00   0.00    -0.05  -0.02   0.03    -0.06  -0.04   0.03
     2   6     0.06   0.01  -0.00     0.00   0.09  -0.02    -0.01   0.08   0.05
     3   1    -0.40  -0.06   0.04    -0.12   0.07  -0.12     0.04   0.10   0.42
     4   6    -0.09  -0.01  -0.00    -0.00  -0.03   0.01    -0.03   0.14  -0.11
     5   6     0.09   0.01  -0.00    -0.00  -0.03  -0.01     0.03  -0.14  -0.11
     6   1     0.55   0.13   0.00     0.06  -0.11  -0.05    -0.13   0.27  -0.04
     7   1    -0.55  -0.13   0.00     0.06  -0.11   0.05     0.13  -0.27  -0.04
     8   6    -0.06  -0.01  -0.00     0.00   0.09   0.02     0.01  -0.08   0.05
     9   1     0.40   0.06   0.04    -0.12   0.07   0.12    -0.04  -0.10   0.42
    10   6    -0.00   0.00   0.00    -0.05  -0.02  -0.03     0.06   0.04   0.03
    11   6    -0.01   0.00  -0.01     0.07  -0.06  -0.02    -0.05   0.05  -0.00
    12   1     0.00  -0.01   0.02    -0.02   0.22  -0.41     0.03  -0.10   0.26
    13   6     0.01  -0.00  -0.01     0.07  -0.06   0.02     0.05  -0.05  -0.00
    14   1     0.04   0.02  -0.01    -0.17   0.06   0.42     0.14   0.00  -0.27
    15   1    -0.00   0.01   0.02    -0.02   0.22   0.41    -0.03   0.10   0.26
    16   1    -0.04  -0.02  -0.01    -0.17   0.06  -0.42    -0.14  -0.00  -0.27
                     22                     23                     24
                      A                      B                      A
 Frequencies --   1040.8886              1143.9008              1179.0418
 Red. masses --      1.5600                 1.4695                 1.1001
 Frc consts  --      0.9958                 1.1329                 0.9011
 IR Inten    --     14.2696                 0.4940                 0.0021
  Atom  AN      X      Y      Z        X      Y      Z        X      Y      Z
     1   6     0.08   0.02  -0.03     0.01  -0.05  -0.01     0.01   0.02   0.01
     2   6    -0.01   0.01   0.06    -0.02   0.10   0.04     0.00  -0.00  -0.01
     3   1     0.02   0.02   0.34     0.01   0.12   0.45    -0.01  -0.01  -0.37
     4   6    -0.01   0.05  -0.05     0.01  -0.05  -0.02    -0.01   0.05   0.02
[...]
   aniso      0.635618D+02      0.941888D+01      0.104799D+02
   xx         0.565484D+02      0.837961D+01      0.932357D+01
   yx        -0.162203D+01     -0.240360D+00     -0.267437D+00
   yy         0.112482D+03      0.166681D+02      0.185458D+02
   zx         0.000000D+00      0.000000D+00      0.000000D+00
   zy         0.000000D+00      0.000000D+00      0.000000D+00
   zz         0.125573D+03      0.186081D+02      0.207043D+02

 ----------------------------------------------------------------------

 Dipole orientation:
     6         -0.04498115          1.33349658          0.96808969
     6         -0.45610619          2.66155263         -1.29490837
     1         -0.74307433          4.68883948         -1.31306297
     6         -0.26908566          1.30841046         -3.51751542
     6          0.26908566         -1.30841046         -3.51751542
     1         -0.46271456          2.27524159         -5.31085418
     1          0.46271456         -2.27524159         -5.31085418
     6          0.45610619         -2.66155263         -1.29490837
     1          0.74307433         -4.68883948         -1.31306297
     6          0.04498115         -1.33349658          0.96808969
     6         -0.45610619         -2.10361667          3.49699678
     1         -2.18372594         -1.46249495          4.36604214
     6          0.45610619          2.10361667          3.49699678
     1          0.37201526         -3.78562976          4.34189522
     1          2.18372594          1.46249495          4.36604214
     1         -0.37201526          3.78562976          4.34189522

 Electric dipole moment (dipole orientation):
 (Debye = 10**-18 statcoulomb cm , SI units = C m)
                  (au)            (Debye)         (10**-30 SI)
   Tot        0.783299D-01      0.199095D+00      0.664109D+00
   x          0.000000D+00      0.000000D+00      0.000000D+00
   y          0.000000D+00      0.000000D+00      0.000000D+00
   z          0.783299D-01      0.199095D+00      0.664109D+00

 Dipole polarizability, Alpha (dipole orientation).
 (esu units = cm**3 , SI units = C**2 m**2 J**-1)
 Alpha(0;0):
               (au)            (10**-24 esu)      (10**-40 SI)
   iso        0.982013D+02      0.145519D+02      0.161912D+02
   aniso      0.635618D+02      0.941888D+01      0.104799D+02
   xx         0.565484D+02      0.837961D+01      0.932357D+01
   yx        -0.162203D+01     -0.240360D+00     -0.267437D+00
   yy         0.112482D+03      0.166681D+02      0.185458D+02
   zx         0.000000D+00      0.000000D+00      0.000000D+00
   zy         0.000000D+00      0.000000D+00      0.000000D+00
   zz         0.125573D+03      0.186081D+02      0.207043D+02

 ----------------------------------------------------------------------
 1\1\GINC-BHC0021\Freq\RB3LYP\def2TZVP\C8H8\DHANAWAY\10-Jun-2022\0\\#N 
 Geom=AllCheck Guess=TCheck SCRF=Check GenChk RB3LYP/def2TZVP Freq\\ts_
 initalOpt\\0,1\C,-0.023803,0.705656,0.512291\C,-0.241361,1.408433,-0.6
 85236\H,-0.393218,2.481227,-0.694843\C,-0.142394,0.692381,-1.861389\C,
 0.142394,-0.692381,-1.861389\H,-0.244858,1.204006,-2.810383\H,0.244858
 ,-1.204006,-2.810383\C,0.241361,-1.408433,-0.685236\H,0.393218,-2.4812
 27,-0.694843\C,0.023803,-0.705656,0.512291\C,-0.241361,-1.113186,1.850
 531\H,-1.155578,-0.773919,2.31041\C,0.241361,1.113186,1.850531\H,0.196
 862,-2.003269,2.297632\H,1.155578,0.773919,2.31041\H,-0.196862,2.00326
 9,2.297632\\Version=ES64L-G16RevA.03\HF=-309.6783502\RMSD=1.978e-09\RM
 SF=4.193e-05\ZeroPoint=0.1305941\Thermal=0.1366501\Dipole=0.,0.,0.0783
 299\DipoleDeriv=-0.045715,0.0677169,0.2250957,0.045326,-0.2122638,0.06
 80033,0.0731617,-0.0447982,0.0640158,-0.1271699,-0.0352732,-0.0453244,
 -0.021289,0.1638467,-0.0220727,-0.0004518,0.0052195,0.0316457,0.125514
 8,0.0005745,-0.0271301,0.0354331,-0.0954431,0.0181342,-0.0028964,-0.02
 21304,0.0579106,-0.1400717,-0.0294637,0.0366478,-0.0334428,0.019096,-0
 .1242383,0.0132949,-0.0816315,-0.0386,-0.1400716,-0.0294636,-0.0366478
 ,-0.0334428,0.019096,0.1242383,-0.013295,0.0816315,-0.0386,0.1295927,0
 .0367111,-0.0148432,0.0200669,0.0338215,0.0706269,-0.0167905,0.0775916
 ,-0.0718508,0.1295927,0.0367111,0.0148432,0.0200669,0.0338215,-0.07062
 69,0.0167905,-0.0775916,-0.0718508,-0.1271699,-0.0352733,0.0453244,-0.
 021289,0.1638467,0.0220727,0.0004518,-0.0052195,0.0316457,0.1255148,0.
 0005745,0.0271301,0.0354331,-0.0954431,-0.0181342,0.0028964,0.0221304,
 0.0579106,-0.045715,0.067717,-0.2250956,0.045326,-0.2122639,-0.0680033
 ,-0.0731617,0.0447982,0.0640157,-0.0020479,-0.0486854,-0.0193485,-0.16
 19983,0.1826629,-0.0241275,0.0299495,0.062705,-0.1378168,-0.0027327,-0
 .0146374,0.0196854,0.0450336,0.0056931,0.0746412,0.0079803,0.0433856,0
 .0208187,-0.0020479,-0.0486855,0.0193485,-0.1619983,0.182663,0.0241275
 ,-0.0299495,-0.062705,-0.1378168,0.0626296,0.0230573,0.0424008,0.07087
 04,-0.0974133,0.2031469,0.0035722,0.0164819,0.0738769,-0.0027327,-0.01
 46374,-0.0196854,0.0450336,0.0056931,-0.0746412,-0.0079803,-0.0433856,
 0.0208187,0.0626296,0.0230573,-0.0424008,0.0708704,-0.0974133,-0.20314
 69,-0.0035722,-0.0164819,0.0738769\Polar=56.5484181,-1.6220308,112.481
 9788,0.,0.,125.5734995\PG=C02 [X(C8H8)]\NImag=1\\0.18331675,-0.0348920
 8,0.61845436,0.08665930,-0.03393561,0.68511942,-0.06772857,0.03732544,
 -0.01947164,0.14611074,0.02691082,-0.17610334,0.09255689,-0.09409921,0
 .72230296,-0.03138959,0.06914404,-0.22526713,0.02438047,0.02496214,0.6
 3308202,0.00310619,0.00280462,0.00559319,-0.04109628,0.04111286,-0.006
 22974,0.03058873,0.00150690,-0.01240226,-0.00125500,0.04181886,-0.3269
 5326,0.00187110,-0.04642547,0.34812140,-0.00311955,0.02770606,0.006491
 45,-0.00319095,0.00488205,-0.05935960,0.00220276,-0.00335824,0.0554015
 6,0.00594900,-0.00663238,-0.00265479,-0.06047949,0.01935477,0.01391735
 ,0.00230041,0.00201232,0.00393764,0.14767539,-0.00482130,0.04540878,-0
 .03017113,0.01952377,-0.18763455,-0.07123104,0.00288696,-0.01187536,-0
 .02802268,-0.09346353,0.61488329,-0.00613613,0.00833643,-0.07144888,0.
 02082898,-0.13142402,-0.29116490,0.00100601,0.00294227,0.00511609,0.01
 132180,-0.01792176,0.73083938,-0.00710939,0.00579277,-0.00440352,0.006
 46631,0.00680704,0.01011126,0.00821821,0.00073292,-0.00016224,-0.07096
 406,0.04502216,-0.00475651,0.14767539,0.00528507,-0.03124391,0.0366149
 0,0.00240253,-0.02889006,-0.07067770,0.00054212,0.00108448,-0.00199190
 ,0.04502216,-0.26949306,0.03214360,-0.09346353,0.61488329,0.00007907,0
 .01585695,-0.01786900,0.00499747,-0.02699046,0.02755146,0.00091548,-0.
 00314638,-0.00430266,0.00475651,-0.03214360,-0.12526191,-0.01132180,0.
 01792176,0.73083938,0.00818562,0.00018048,-0.00104725,0.00292107,-0.00
 285490,0.00126723,-0.00445681,-0.00058375,0.00021324,-0.03761431,0.017
 42352,-0.02231351,0.00088334,0.00348000,-0.00608494,0.02856200,0.00147
 335,-0.00128900,-0.00402919,-0.00135808,0.01090534,-0.01589298,-0.0008
 4146,0.00084001,0.00061860,0.01739848,-0.11958079,0.11452127,0.0023106
 1,-0.01030440,0.02844198,-0.01995426,0.12386326,0.00028288,-0.00423498
 ,-0.00332710,-0.00247419,0.01480711,-0.02011859,0.00024395,-0.00023439
 ,0.00109605,-0.02317599,0.11419787,-0.27007890,0.00053399,-0.00203609,
 0.00318167,0.02485942,-0.12280038,0.28704612,-0.00065372,0.00132916,0.
 00039192,0.00480560,0.00207277,-0.00124970,0.00022613,0.00020883,0.000
 43063,0.00088334,0.00348000,0.00608494,-0.03761431,0.01742352,0.022313
 51,-0.00269544,-0.00079146,-0.00011300,0.02856200,0.00001483,-0.000207
 05,0.00136732,0.00212361,-0.00508806,0.00097588,0.00005996,-0.00066781
 ,-0.00128239,0.00231061,-0.01030440,-0.02844198,0.01739848,-0.11958079
 ,-0.11452127,-0.00079146,0.00088433,0.00040886,-0.01995426,0.12386326,
 -0.00021792,0.00044828,0.00003414,-0.00014676,0.00043380,0.00150002,0.
 00003973,0.00016945,0.00001483,-0.00053399,0.00203609,0.00318167,0.023
 17599,-0.11419787,-0.27007890,0.00011300,-0.00040886,0.00080111,-0.024
 85942,0.12280038,0.28704612,0.00692746,-0.00624033,-0.00394537,-0.0027
 4110,0.00006193,0.00193724,-0.00036091,-0.00017871,0.00000481,0.006466
 31,0.00240253,-0.00499747,-0.06047949,0.01952377,-0.02082898,0.0048056
 0,0.00212361,0.00014676,0.00292107,-0.00135808,0.00247419,0.14611074,0
 .00629501,-0.01995232,-0.02722581,0.00006193,0.00127031,0.00348866,-0.
 00048629,0.00028638,0.00006898,0.00680704,-0.02889006,0.02699046,0.019
 35477,-0.18763455,0.13142402,0.00207277,-0.00508806,-0.00043380,-0.002
 85490,0.01090534,-0.01480711,-0.09409921,0.72230296,0.00636005,-0.0503
 3717,0.03221756,-0.00193724,-0.00348866,-0.05401264,-0.00116425,0.0002
 9838,-0.00105876,-0.01011126,0.07067770,0.02755146,-0.01391735,0.07123
 104,-0.29116490,0.00124970,-0.00097588,0.00150002,-0.00126723,0.015892
 98,-0.02011859,-0.02438047,-0.02496214,0.63308202,0.00605665,-0.000681
 29,0.00070607,-0.00036091,-0.00048629,0.00116425,-0.00165225,-0.000182
 18,0.00010152,0.00821821,0.00054212,-0.00091548,0.00230041,0.00288696,
 -0.00100601,0.00022613,0.00005996,-0.00003973,-0.00445681,-0.00084146,
 -0.00024395,-0.04109628,0.04111286,0.00622974,0.03058873,0.00189252,0.
 00182252,-0.00186456,-0.00017871,0.00028638,-0.00029838,-0.00018218,-0
 .00015551,0.00005428,0.00073292,0.00108448,0.00314638,0.00201232,-0.01
 187536,-0.00294227,0.00020883,-0.00066781,-0.00016945,-0.00058375,0.00
 084001,0.00023439,0.04181886,-0.32695326,-0.00187110,-0.04642547,0.348
 12140,0.00105878,-0.00116829,-0.00386850,-0.00000481,-0.00006898,-0.00
 105876,-0.00010152,-0.00005428,0.00018047,0.00016224,0.00199190,-0.004
 30266,-0.00393764,0.02802268,0.00511609,-0.00043063,0.00128239,0.00001
 483,-0.00021324,-0.00061860,0.00109605,0.00319095,-0.00488205,-0.05935
 960,-0.00220276,0.00335824,0.05540156,-0.08122524,0.00226439,-0.005706
 02,0.00692746,0.00629501,-0.00636005,0.00605665,0.00189252,-0.00105878
 ,-0.00710939,0.00528507,-0.00007907,0.00594900,-0.00482130,0.00613613,
 -0.00065372,0.00001483,0.00021792,0.00818562,0.00147335,-0.00028288,-0
 .06772857,0.02691082,0.03138959,0.00310619,0.00150690,0.00311955,0.183
 31675,0.00226439,-0.28595756,-0.01501288,-0.00624033,-0.01995232,0.050
 33717,-0.00068129,0.00182252,0.00116829,0.00579277,-0.03124391,-0.0158
 5695,-0.00663238,0.04540878,-0.00833643,0.00132916,-0.00020705,-0.0004
 4828,0.00018048,-0.00128900,0.00423498,0.03732544,-0.17610334,-0.06914
 404,0.00280462,-0.01240226,-0.02770606,-0.03489208,0.61845436,0.005706
 02,0.01501288,-0.11831264,0.00394537,0.02722581,0.03221756,-0.00070607
 ,0.00186456,-0.00386850,0.00440352,-0.03661490,-0.01786900,0.00265479,
 0.03017113,-0.07144888,-0.00039192,-0.00136732,0.00003414,0.00104725,0
 .00402919,-0.00332710,0.01947164,-0.09255689,-0.22526713,-0.00559319,0
 .00125500,0.00649145,-0.08665930,0.03393561,0.68511942,0.00816240,0.00
 363225,-0.00346899,0.00470413,0.00142103,0.00028741,-0.00020639,0.0001
 0212,0.00000051,-0.00082083,-0.00253904,-0.00020573,0.00574515,0.00389
 368,-0.00097260,-0.00072902,-0.00023122,-0.00012280,0.00090716,-0.0001
 0924,0.00041521,-0.00053760,-0.00525897,0.00992976,-0.00304429,-0.0010
 6366,-0.00047555,-0.07528847,-0.00004334,0.05153967,0.43548830,-0.0101
 5128,-0.02752391,0.06580862,-0.00611011,-0.00280623,-0.00909212,0.0007
 3688,-0.00082776,0.00123261,-0.00047282,0.00668433,0.00469301,0.000932
 42,-0.00907795,0.00004691,0.00048172,0.00041929,0.00026402,-0.00078143
 ,0.00021880,-0.00069408,0.00479967,0.01201518,-0.01822398,0.00014880,0
 .00070664,0.00052953,0.00835530,-0.10736387,0.08825872,-0.18801854,0.3
 8277619,0.00056049,0.03884402,-0.00012968,-0.00646952,0.00039330,-0.00
 761283,-0.00106757,0.00016197,-0.00002502,-0.00161783,0.01228793,0.005
 37616,0.00160551,-0.01719039,0.01051858,0.00092986,0.00039145,0.000096
 73,-0.00124432,-0.00034251,0.00011522,0.01939690,0.00153052,-0.0400241
 0,0.00062175,0.00017145,0.00099792,0.04629627,0.06739301,-0.25765678,-
 0.13322448,-0.18157379,0.50065209,0.00063577,-0.00365752,-0.00924511,0
 .00180453,-0.00027276,0.00406404,-0.00007357,0.00008105,0.00000357,0.0
 0063393,-0.00368918,-0.00225604,-0.00042156,0.00429125,-0.00255002,-0.
 00024706,-0.00012904,-0.00003480,-0.00027177,-0.00004290,-0.00001647,0
 .00053834,0.00015531,0.00502845,-0.00023488,-0.00013410,-0.00001409,0.
 00302285,0.00621074,-0.01269205,-0.26160168,0.10502249,0.12515527,0.26
 611291,-0.00397425,-0.00738662,-0.00767474,0.00253272,0.00073807,0.002
 31930,-0.00018428,0.00002167,-0.00002148,0.00080532,-0.00366301,-0.001
 02118,0.00011535,0.00400867,-0.00302996,-0.00034508,-0.00011890,-0.000
 05991,-0.00019988,0.00004778,-0.00003087,-0.00023353,0.00094709,0.0059
 8622,-0.00046555,-0.00008980,0.00020478,-0.00349168,0.00712788,-0.0133
 1171,0.09420246,-0.05491618,-0.01662387,-0.10074396,0.07296889,-0.0012
 6895,-0.00511529,-0.00736852,0.00093677,-0.00001498,0.00229743,0.00000
 297,0.00010728,-0.00003408,0.00075503,-0.00308879,-0.00155083,-0.00129
 092,0.00306848,-0.00315988,-0.00011544,-0.00005120,-0.00003666,-0.0003
 8682,0.00012480,-0.00028149,0.00103752,0.00364462,0.00420286,0.0001599
 2,-0.00015912,0.00007842,0.02560052,-0.00419457,-0.02498074,0.10959604
 ,-0.02333449,-0.08321529,-0.12082435,0.03140193,0.10052705,-0.07528847
 ,-0.00004334,-0.05153967,-0.00053760,-0.00525897,-0.00992976,-0.003044
 29,-0.00106366,0.00047555,0.00574515,0.00389368,0.00097260,-0.00082083
 ,-0.00253904,0.00020573,0.00090716,-0.00010924,-0.00041521,-0.00072902
 ,-0.00023122,0.00012280,0.00470413,0.00142103,-0.00028741,-0.00020639,
 0.00010212,-0.00000051,0.00816240,0.00363225,0.00346899,-0.02267736,-0
 .00326065,-0.00511608,-0.00433733,-0.00877648,-0.00384899,0.43548830,0
 .00835530,-0.10736387,-0.08825872,0.00479967,0.01201518,0.01822398,0.0
 0014880,0.00070664,-0.00052953,0.00093242,-0.00907795,-0.00004691,-0.0
 0047282,0.00668433,-0.00469301,-0.00078143,0.00021880,0.00069408,0.000
 48172,0.00041929,-0.00026402,-0.00611011,-0.00280623,0.00909212,0.0007
 3688,-0.00082776,-0.00123261,-0.01015128,-0.02752391,-0.06580862,-0.00
 326065,0.03849957,0.01493977,-0.01101028,-0.01535993,-0.00747694,-0.18
 801854,0.38277619,-0.04629627,-0.06739301,-0.25765678,-0.01939690,-0.0
 0153052,-0.04002410,-0.00062175,-0.00017145,0.00099792,-0.00160551,0.0
 1719039,0.01051858,0.00161783,-0.01228793,0.00537616,0.00124432,0.0003
 4251,0.00011522,-0.00092986,-0.00039145,0.00009673,0.00646952,-0.00039
 330,-0.00761283,0.00106757,-0.00016197,-0.00002502,-0.00056049,-0.0388
 4402,-0.00012968,0.00511608,-0.01493977,-0.02865859,0.00689539,0.01264
 510,0.00681906,0.13322448,0.18157379,0.50065209,0.00337362,0.00303696,
 0.00886764,-0.00121189,-0.00063798,-0.00105628,0.00033540,-0.00023594,
 0.00009867,-0.00033679,0.00194687,0.00060666,-0.00012532,-0.00218488,0
 .00171107,0.00023238,0.00010215,0.00006819,-0.00005516,-0.00002533,-0.
 00000613,-0.00012234,-0.00058143,-0.00411432,0.00029365,0.00044830,-0.
 00004852,0.00326909,-0.01042988,0.01342780,-0.08975235,0.09291532,-0.0
 4370411,-0.00572991,0.01991037,-0.01090971,0.00398817,0.00641250,-0.00
 477324,0.08672354,0.00298793,0.00293049,0.01134853,-0.00223458,-0.0004
 4116,-0.00283983,0.00039243,-0.00021823,0.00014177,-0.00062112,0.00301
 398,0.00144120,-0.00009431,-0.00332044,0.00253178,0.00035475,0.0001349
 2,0.00009487,-0.00002048,-0.00005771,0.00008040,-0.00013398,-0.0005963
 6,-0.00469601,0.00058188,0.00030688,0.00046164,0.00034446,-0.00631419,
 0.01158031,0.10199334,-0.22952724,0.08776035,0.00340284,-0.00525986,0.
 00411590,0.00405627,0.00608305,-0.00450189,-0.11014900,0.23384809,0.00
 134329,0.00420927,0.00066526,-0.00074190,0.00159956,-0.00094836,-0.000
 00572,0.00010951,-0.00041589,-0.00039371,0.00183398,0.00087941,0.00045
 194,-0.00204649,0.00137421,0.00019368,0.00004846,0.00002364,0.00007359
 ,-0.00000395,-0.00006679,0.00021764,-0.00030159,-0.00128444,-0.0000524
 4,-0.00053610,-0.00031229,-0.01197903,0.02156812,0.00570115,-0.0385598
 6,0.08502673,-0.10258566,0.00649276,-0.00976466,0.00683649,0.00370364,
 0.00547884,-0.00466781,0.03981913,-0.10739365,0.09440212,0.00302285,0.
 00621074,0.01269205,0.00053834,0.00015531,-0.00502845,-0.00023488,-0.0
 0013410,0.00001409,-0.00042156,0.00429125,0.00255002,0.00063393,-0.003
 68918,0.00225604,-0.00027177,-0.00004290,0.00001647,-0.00024706,-0.000
 12904,0.00003480,0.00180453,-0.00027276,-0.00406404,-0.00007357,0.0000
 8105,-0.00000357,0.00063577,-0.00365752,0.00924511,-0.00433733,-0.0110
 1028,-0.00689539,0.00095097,0.00143511,0.00071099,-0.26160168,0.105022
 49,-0.12515527,-0.00078154,-0.00091904,-0.00070443,0.26611291,-0.00349
 168,0.00712788,0.01331171,-0.00023353,0.00094709,-0.00598622,-0.000465
 55,-0.00008980,-0.00020478,0.00011535,0.00400867,0.00302996,0.00080532
 ,-0.00366301,0.00102118,-0.00019988,0.00004778,0.00003087,-0.00034508,
 -0.00011890,0.00005991,0.00253272,0.00073807,-0.00231930,-0.00018428,0
 .00002167,0.00002148,-0.00397425,-0.00738662,0.00767474,-0.00877648,-0
 .01535993,-0.01264510,0.00143511,0.00180004,0.00125845,0.09420246,-0.0
 5491618,0.01662387,-0.00058664,-0.00086580,-0.00023949,-0.10074396,0.0
 7296889,-0.02560052,0.00419457,-0.02498074,-0.00103752,-0.00364462,0.0
 0420286,-0.00015992,0.00015912,0.00007842,0.00129092,-0.00306848,-0.00
 315988,-0.00075503,0.00308879,-0.00155083,0.00038682,-0.00012480,-0.00
 028149,0.00011544,0.00005120,-0.00003666,-0.00093677,0.00001498,0.0022
 9743,-0.00000297,-0.00010728,-0.00003408,0.00126895,0.00511529,-0.0073
 6852,0.00384899,0.00747694,0.00681906,-0.00071099,-0.00125845,-0.00043
 114,-0.10959604,0.02333449,-0.08321529,0.00015457,0.00028610,0.0002973
 2,0.12082435,-0.03140193,0.10052705,0.00326909,-0.01042988,-0.01342780
 ,-0.00012234,-0.00058143,0.00411432,0.00029365,0.00044830,0.00004852,-
 0.00012532,-0.00218488,-0.00171107,-0.00033679,0.00194687,-0.00060666,
 -0.00005516,-0.00002533,0.00000613,0.00023238,0.00010215,-0.00006819,-
 0.00121189,-0.00063798,0.00105628,0.00033540,-0.00023594,-0.00009867,0
 .00337362,0.00303696,-0.00886764,0.00398817,0.00641250,0.00477324,-0.0
 0078154,-0.00058664,-0.00015457,-0.08975235,0.09291532,0.04370411,-0.0
 0010056,0.00005862,0.00014142,-0.00572991,0.01991037,0.01090971,0.0867
 2354,0.00034446,-0.00631419,-0.01158031,-0.00013398,-0.00059636,0.0046
 9601,0.00058188,0.00030688,-0.00046164,-0.00009431,-0.00332044,-0.0025
 3178,-0.00062112,0.00301398,-0.00144120,-0.00002048,-0.00005771,-0.000
 08040,0.00035475,0.00013492,-0.00009487,-0.00223458,-0.00044116,0.0028
 3983,0.00039243,-0.00021823,-0.00014177,0.00298793,0.00293049,-0.01134
 853,0.00405627,0.00608305,0.00450189,-0.00091904,-0.00086580,-0.000286
 10,0.10199334,-0.22952724,-0.08776035,0.00005862,0.00028358,0.00041147
 ,0.00340284,-0.00525986,-0.00411590,-0.11014900,0.23384809,0.01197903,
 -0.02156812,0.00570115,-0.00021764,0.00030159,-0.00128444,0.00005244,0
 .00053610,-0.00031229,-0.00045194,0.00204649,0.00137421,0.00039371,-0.
 00183398,0.00087941,-0.00007359,0.00000395,-0.00006679,-0.00019368,-0.
 00004846,0.00002364,0.00074190,-0.00159956,-0.00094836,0.00000572,-0.0
 0010951,-0.00041589,-0.00134329,-0.00420927,0.00066526,-0.00370364,-0.
 00547884,-0.00466781,0.00070443,0.00023949,0.00029732,0.03855986,-0.08
 502673,-0.10258566,-0.00014142,-0.00041147,0.00010164,-0.00649276,0.00
 976466,0.00683649,-0.03981913,0.10739365,0.09440212\\0.00006246,-0.000
 14488,0.00000300,0.00001233,0.00000155,0.00005192,0.00000435,0.0000028
 2,-0.00000005,0.00000577,-0.00006040,-0.00002699,-0.00000577,0.0000604
 0,-0.00002699,-0.00001258,-0.00000405,-0.00000244,0.00001258,0.0000040
 5,-0.00000244,-0.00001233,-0.00000155,0.00005192,-0.00000435,-0.000002
 82,-0.00000005,-0.00006246,0.00014488,0.00000300,0.00007338,0.00004632
 ,-0.00002368,-0.00002074,0.00000064,-0.00002453,-0.00007338,-0.0000463
 2,-0.00002368,-0.00000519,0.00001234,0.00002278,0.00002074,-0.00000064
 ,-0.00002453,0.00000519,-0.00001234,0.00002278\\\@


 TRUST EVERYONE, BUT CUT THE CARDS.
 Job cpu time:       0 days  0 hours 46 minutes 44.8 seconds.
 Elapsed time:       0 days  0 hours  3 minutes 54.5 seconds.
 File lengths (MBytes):  RWF=     88 Int=      0 D2E=      0 Chk=     32 Scr=      1
 Normal termination of Gaussian 16 at Fri Jun 10 02:08:59 2022.
