 Entering Gaussian System, Link 0=g16
 Input=int_initalOptXYZ_aligned_sp.gjf
 Output=int_initalOptXYZ_aligned_sp.out
 Initial command:
 /software/gaussian/g16-a03/l1.exe "/local_scratch/11174431/Gau-27912.inp" -scrdir="/local_scratch/11174431/"
 Entering Link 1 = /software/gaussian/g16-a03/l1.exe PID=     27913.
  
 Copyright (c) 1988,1990,1992,1993,1995,1998,2003,2009,2016,
            Gaussian, Inc.  All Rights Reserved.
  
 This is part of the Gaussian(R) 16 program.  It is based on
 the Gaussian(R) 09 system (copyright 2009, Gaussian, Inc.),
 the Gaussian(R) 03 system (copyright 2003, Gaussian, Inc.),
 the Gaussian(R) 98 system (copyright 1998, Gaussian, Inc.),
 the Gaussian(R) 94 system (copyright 1995, Gaussian, Inc.),
 the Gaussian 92(TM) system (copyright 1992, Gaussian, Inc.),
 the Gaussian 90(TM) system (copyright 1990, Gaussian, Inc.),
 the Gaussian 88(TM) system (copyright 1988, Gaussian, Inc.),
 the Gaussian 86(TM) system (copyright 1986, Carnegie Mellon
 University), and the Gaussian 82(TM) system (copyright 1983,
 Carnegie Mellon University). Gaussian is a federally registered
 trademark of Gaussian, Inc.
  
 This software contains proprietary and confidential information,
 including trade secrets, belonging to Gaussian, Inc.
  
 This software is provided under written license and may be
 used, copied, transmitted, or stored only in accord with that
 written license.
  
 The following legend is applicable only to US Government
 contracts under FAR:
  
                    RESTRICTED RIGHTS LEGEND
  
 Use, reproduction and disclosure by the US Government is
 subject to restrictions as set forth in subparagraphs (a)
 and (c) of the Commercial Computer Software - Restricted
 Rights clause in FAR 52.227-19.
  
 Gaussian, Inc.
 340 Quinnipiac St., Bldg. 40, Wallingford CT 06492
  
  
 ---------------------------------------------------------------
 Warning -- This program may not be used in any manner that
 competes with the business of Gaussian, Inc. or will provide
 assistance to any competitor of Gaussian, Inc.  The licensee
 of this program is prohibited from giving any competitor of
 Gaussian, Inc. access to this program.  By using this program,
 the user acknowledges that Gaussian, Inc. is engaged in the
 business of creating and licensing software in the field of
 computational chemistry and represents and warrants to the
 licensee that it is not a competitor of Gaussian, Inc. and that
 it will not use this program in any manner prohibited above.
 ---------------------------------------------------------------
  

 Cite this work as:
 Gaussian 16, Revision A.03,
 M. J. Frisch, G. W. Trucks, H. B. Schlegel, G. E. Scuseria, 
 M. A. Robb, J. R. Cheeseman, G. Scalmani, V. Barone, 
 G. A. Petersson, H. Nakatsuji, X. Li, M. Caricato, A. V. Marenich, 
 J. Bloino, B. G. Janesko, R. Gomperts, B. Mennucci, H. P. Hratchian, 
 J. V. Ortiz, A. F. Izmaylov, J. L. Sonnenberg, D. Williams-Young, 
 F. Ding, F. Lipparini, F. Egidi, J. Goings, B. Peng, A. Petrone, 
 T. Henderson, D. Ranasinghe, V. G. Zakrzewski, J. Gao, N. Rega, 
 G. Zheng, W. Liang, M. Hada, M. Ehara, K. Toyota, R. Fukuda, 
 J. Hasegawa, M. Ishida, T. Nakajima, Y. Honda, O. Kitao, H. Nakai, 
 T. Vreven, K. Throssell, J. A. Montgomery, Jr., J. E. Peralta, 
 F. Ogliaro, M. J. Bearpark, J. J. Heyd, E. N. Brothers, K. N. Kudin, 
 V. N. Staroverov, T. A. Keith, R. Kobayashi, J. Normand, 
 K. Raghavachari, A. P. Rendell, J. C. Burant, S. S. Iyengar, 
 J. Tomasi, M. Cossi, J. M. Millam, M. Klene, C. Adamo, R. Cammi, 
 J. W. Ochterski, R. L. Martin, K. Morokuma, O. Farkas, 
 J. B. Foresman, and D. J. Fox, Gaussian, Inc., Wallingford CT, 2016.
 
 ******************************************
 Gaussian 16:  ES64L-G16RevA.03 25-Dec-2016
                10-Jun-2022 
 ******************************************
 %nprocshared=12
 Will use up to   12 processors via shared memory.
 %chk=checkpoint.chk
 %mem=12GB
 --------------------------
 # sp B3LYP/Def2TZVP NoSymm
 --------------------------
 1/38=1,172=1/1;
 2/12=2,15=1,17=6,18=5,40=1/2;
 3/5=44,7=101,11=2,25=1,30=1,74=-5/1,2,3;
 4//1;
 5/5=2,38=5/2;
 6/7=2,8=2,9=2,10=2,28=1/1;
 99/5=1,9=1/99;
 ----------------------------------
 int_initalOptXYZ_aligned_AlignedSp
 ----------------------------------
 Symbolic Z-matrix:
 Charge =  0 Multiplicity = 1
 1                     2.84647   0.66028   0.65977 
 1                     1.44944   1.6795    0.02105 
 1                     1.5954   -1.36706   0.30506 
 6                     1.84236   0.698     0.25733 
 1                    -0.3715   -1.22723  -1.24994 
 6                     1.13679  -0.41077   0.0632 
 1                    -1.84497   0.76137  -1.34998 
 1                    -0.8242    1.62687  -0.12334 
 1                    -2.2627   -1.08907   0.33442 
 1                    -1.21084  -0.20867   1.53489 
 6                    -1.17886   0.67808  -0.50167 
 6                    -0.25008  -0.50013  -0.45313 
 6                    -1.4288   -0.41889   0.49623 
 
                          Input orientation:                          
 ---------------------------------------------------------------------
 Center     Atomic      Atomic             Coordinates (Angstroms)
 Number     Number       Type             X           Y           Z
 ---------------------------------------------------------------------
      1          1           0        2.846465    0.660283    0.659766
      2          1           0        1.449435    1.679499    0.021047
      3          1           0        1.595399   -1.367064    0.305058
      4          6           0        1.842359    0.698001    0.257332
      5          1           0       -0.371498   -1.227227   -1.249943
      6          6           0        1.136786   -0.410772    0.063197
      7          1           0       -1.844974    0.761369   -1.349978
      8          1           0       -0.824203    1.626865   -0.123338
      9          1           0       -2.262702   -1.089072    0.334423
     10          1           0       -1.210841   -0.208672    1.534888
     11          6           0       -1.178861    0.678081   -0.501666
     12          6           0       -0.250081   -0.500129   -0.453128
     13          6           0       -1.428800   -0.418886    0.496231
 ---------------------------------------------------------------------
                    Distance matrix (angstroms):
                    1          2          3          4          5
     1  H    0.000000
     2  H    1.843490   0.000000
     3  H    2.408551   3.063252   0.000000
     4  C    1.082407   1.083309   2.080327   0.000000
     5  H    4.191058   3.657905   2.511228   3.298415   0.000000
     6  C    2.103819   2.113944   1.087804   1.328495   2.160059
     7  H    5.104791   3.684536   4.370988   4.022920   2.477025
     8  H    3.875737   2.278826   3.873191   2.849254   3.101616
     9  H    5.410146   4.641460   3.868215   4.477845   2.471023
    10  H    4.240596   3.596383   3.275567   3.431652   3.081758
    11  C    4.189569   2.860770   3.539766   3.115164   2.200444
    12  C    3.489081   2.804278   2.175366   2.513677   1.085508
    13  C    4.412396   3.593502   3.175117   3.464822   2.195547
                    6          7          8          9         10
     6  C    0.000000
     7  H    3.501695   0.000000
     8  H    2.834120   1.815407   0.000000
     9  H    3.477093   2.536895   3.107272   0.000000
    10  H    2.778142   3.108948   2.503677   1.822809   0.000000
    11  C    2.620476   1.081793   1.081252   2.235304   2.221465
    12  C    1.482557   2.222476   2.227663   2.240030   2.227154
    13  C    2.601887   2.230401   2.221374   1.082000   1.081899
                   11         12         13
    11  C    0.000000
    12  C    1.501055   0.000000
    13  C    1.503863   1.515672   0.000000
 Symmetry turned off by external request.
 Stoichiometry    C5H8
 Framework group  C1[X(C5H8)]
 Deg. of freedom    33
 Full point group                 C1      NOp   1
 Rotational constants (GHZ):          11.7053032           3.6577464           3.3006290
 Standard basis: def2TZVP (5D, 7F)
   203 basis functions,   319 primitive gaussians,   228 cartesian basis functions
    19 alpha electrons       19 beta electrons
       nuclear repulsion energy       165.0281248163 Hartrees.
 NAtoms=   13 NActive=   13 NUniq=   13 SFac= 1.00D+00 NAtFMM=   60 NAOKFM=F Big=F
 Integral buffers will be    131072 words long.
 Raffenetti 2 integral format.
 Two-electron integral symmetry is turned off.
 One-electron integrals computed using PRISM.
   1 Symmetry operations used in ECPInt.
 ECPInt:  NShTT=    3828 NPrTT=   11160 LenC2=    3810 LenP2D=    9471.
 LDataN:  DoStor=T MaxTD1= 6 Len=  172
 NBasis=   203 RedAO= T EigKep=  1.51D-04  NBF=   203
 NBsUse=   203 1.00D-06 EigRej= -1.00D+00 NBFU=   203
 ExpMin= 9.52D-02 ExpMax= 1.36D+04 ExpMxC= 4.63D+02 IAcc=3 IRadAn=         5 AccDes= 0.00D+00
 Harris functional with IExCor=  402 and IRadAn=       5 diagonalized for initial guess.
 HarFok:  IExCor=  402 AccDes= 0.00D+00 IRadAn=         5 IDoV= 1 UseB2=F ITyADJ=14
 ICtDFT=  3500011 ScaDFX=  1.000000  1.000000  1.000000  1.000000
 FoFCou: FMM=F IPFlag=           0 FMFlag=      100000 FMFlg1=           0
         NFxFlg=           0 DoJE=T BraDBF=F KetDBF=T FulRan=T
         wScrn=  0.000000 ICntrl=       500 IOpCl=  0 I1Cent=   200000004 NGrid=           0
         NMat0=    1 NMatS0=      1 NMatT0=    0 NMatD0=    1 NMtDS0=    0 NMtDT0=    0
 Symmetry not used in FoFCou.
 Requested convergence on RMS density matrix=1.00D-08 within 128 cycles.
 Requested convergence on MAX density matrix=1.00D-06.
 Requested convergence on             energy=1.00D-06.
 No special actions if energy rises.
 Integral accuracy reduced to 1.0D-05 until final iterations.
 Initial convergence to 1.0D-05 achieved.  Increase integral accuracy.
 SCF Done:  E(RB3LYP) =  -195.367315149     A.U. after   13 cycles
            NFock= 13  Conv=0.46D-08     -V/T= 2.0056

 **********************************************************************

            Population analysis using the SCF density.

 **********************************************************************

 Alpha  occ. eigenvalues --  -10.18343 -10.17640 -10.17501 -10.17344 -10.16187
 Alpha  occ. eigenvalues --   -0.86643  -0.76244  -0.63241  -0.60399  -0.54113
 Alpha  occ. eigenvalues --   -0.50618  -0.47318  -0.44430  -0.39079  -0.37052
 Alpha  occ. eigenvalues --   -0.35293  -0.32157  -0.30019  -0.25365
 Alpha virt. eigenvalues --    0.00268   0.04790   0.05826   0.07399   0.07533
 Alpha virt. eigenvalues --    0.10481   0.11526   0.12336   0.12954   0.15722
 Alpha virt. eigenvalues --    0.16347   0.17097   0.18594   0.19913   0.22286
 Alpha virt. eigenvalues --    0.23836   0.25457   0.26698   0.28425   0.29235
 Alpha virt. eigenvalues --    0.32119   0.33790   0.34922   0.35843   0.38004
 Alpha virt. eigenvalues --    0.39425   0.40276   0.41653   0.42128   0.42597
 Alpha virt. eigenvalues --    0.45802   0.46387   0.46735   0.47491   0.47883
 Alpha virt. eigenvalues --    0.50609   0.52969   0.53900   0.58293   0.60417
 Alpha virt. eigenvalues --    0.62719   0.65641   0.67689   0.74389   0.81108
 Alpha virt. eigenvalues --    0.86228   0.87149   0.89702   0.90024   0.95452
 Alpha virt. eigenvalues --    0.95839   0.97699   0.99197   1.00848   1.03095
 Alpha virt. eigenvalues --    1.04106   1.07744   1.11152   1.12895   1.13830
 Alpha virt. eigenvalues --    1.17568   1.18352   1.20997   1.23888   1.26674
 Alpha virt. eigenvalues --    1.33399   1.37381   1.40677   1.47863   1.49831
 Alpha virt. eigenvalues --    1.51478   1.53063   1.56765   1.58746   1.60440
 Alpha virt. eigenvalues --    1.64277   1.65702   1.68688   1.69333   1.70455
 Alpha virt. eigenvalues --    1.75292   1.75920   1.81453   1.83471   1.83970
 Alpha virt. eigenvalues --    1.84663   1.85339   1.91581   1.94660   1.97485
 Alpha virt. eigenvalues --    2.03274   2.05094   2.10723   2.16633   2.25055
 Alpha virt. eigenvalues --    2.27052   2.32279   2.34515   2.35736   2.39019
 Alpha virt. eigenvalues --    2.40859   2.42226   2.44070   2.48023   2.49306
 Alpha virt. eigenvalues --    2.52153   2.54798   2.56139   2.57667   2.60240
 Alpha virt. eigenvalues --    2.61398   2.62319   2.65577   2.68524   2.69542
 Alpha virt. eigenvalues --    2.72546   2.75133   2.78202   2.81401   2.86644
 Alpha virt. eigenvalues --    2.90526   2.93344   2.96540   2.97230   3.00351
 Alpha virt. eigenvalues --    3.02501   3.04600   3.05306   3.08058   3.08930
 Alpha virt. eigenvalues --    3.10850   3.13440   3.14693   3.15845   3.20482
 Alpha virt. eigenvalues --    3.23419   3.24991   3.27840   3.30743   3.33904
 Alpha virt. eigenvalues --    3.37010   3.40728   3.43886   3.45429   3.47644
 Alpha virt. eigenvalues --    3.56997   3.58504   3.59902   3.64480   3.69302
 Alpha virt. eigenvalues --    3.73379   3.76603   3.81175   3.85794   3.91546
 Alpha virt. eigenvalues --    3.95641   3.99788   4.03244   4.06036   4.09333
 Alpha virt. eigenvalues --    4.12295   4.14950   4.16652   4.22274   4.32308
 Alpha virt. eigenvalues --    4.38452   4.41413   4.43865   4.51837   4.54369
 Alpha virt. eigenvalues --    4.57714   4.59160   4.68221   4.71740   4.81249
 Alpha virt. eigenvalues --    4.88251   4.97085   5.06082   5.12308  22.12816
 Alpha virt. eigenvalues --   22.37133  22.42490  22.54786  22.72978
          Condensed to atoms (all electrons):
               1          2          3          4          5          6
     1  H    0.556462  -0.035255  -0.009665   0.412078  -0.000459  -0.041230
     2  H   -0.035255   0.563826   0.007622   0.409046   0.000106  -0.043863
     3  H   -0.009665   0.007622   0.585674  -0.037267  -0.002688   0.407025
     4  C    0.412078   0.409046  -0.037267   4.902243   0.003373   0.618642
     5  H   -0.000459   0.000106  -0.002688   0.003373   0.612098  -0.053093
     6  C   -0.041230  -0.043863   0.407025   0.618642  -0.053093   4.932731
     7  H   -0.000013  -0.000054  -0.000193  -0.000570  -0.007411   0.006238
     8  H   -0.000227   0.003377   0.000109   0.000216   0.004144  -0.003496
     9  H    0.000034  -0.000057   0.000126  -0.000028  -0.007072   0.005065
    10  H   -0.000162   0.000478   0.001563   0.003060   0.004397  -0.002605
    11  C    0.000348   0.005108   0.008201  -0.001103  -0.033623  -0.033357
    12  C    0.008722  -0.010601  -0.056659  -0.045321   0.438223   0.357666
    13  C   -0.000454  -0.001371  -0.002502  -0.008174  -0.052051  -0.023638
               7          8          9         10         11         12
     1  H   -0.000013  -0.000227   0.000034  -0.000162   0.000348   0.008722
     2  H   -0.000054   0.003377  -0.000057   0.000478   0.005108  -0.010601
     3  H   -0.000193   0.000109   0.000126   0.001563   0.008201  -0.056659
     4  C   -0.000570   0.000216  -0.000028   0.003060  -0.001103  -0.045321
     5  H   -0.007411   0.004144  -0.007072   0.004397  -0.033623   0.438223
     6  C    0.006238  -0.003496   0.005065  -0.002605  -0.033357   0.357666
     7  H    0.568404  -0.026625  -0.007868   0.002414   0.421816  -0.036391
     8  H   -0.026625   0.559636   0.002400  -0.006517   0.421974  -0.028487
     9  H   -0.007868   0.002400   0.576101  -0.026306  -0.022680  -0.031361
    10  H    0.002414  -0.006517  -0.026306   0.556080  -0.021315  -0.031456
    11  C    0.421816   0.421974  -0.022680  -0.021315   4.997987   0.258993
    12  C   -0.036391  -0.028487  -0.031361  -0.031456   0.258993   4.966007
    13  C   -0.024453  -0.030135   0.408535   0.411685   0.213363   0.229412
              13
     1  H   -0.000454
     2  H   -0.001371
     3  H   -0.002502
     4  C   -0.008174
     5  H   -0.052051
     6  C   -0.023638
     7  H   -0.024453
     8  H   -0.030135
     9  H    0.408535
    10  H    0.411685
    11  C    0.213363
    12  C    0.229412
    13  C    5.087335
 Mulliken charges:
               1
     1  H    0.109820
     2  H    0.101637
     3  H    0.098655
     4  C   -0.256196
     5  H    0.094055
     6  C   -0.126086
     7  H    0.104705
     8  H    0.103631
     9  H    0.103110
    10  H    0.108683
    11  C   -0.215713
    12  C   -0.018748
    13  C   -0.207553
 Sum of Mulliken charges =  -0.00000
 Mulliken charges with hydrogens summed into heavy atoms:
               1
     4  C   -0.044738
     6  C   -0.027431
    11  C   -0.007377
    12  C    0.075307
    13  C    0.004239
 Electronic spatial extent (au):  <R**2>=            442.6592
 Charge=             -0.0000 electrons
 Dipole moment (field-independent basis, Debye):
    X=             -0.3685    Y=             -0.2279    Z=             -0.0824  Tot=              0.4410
 Quadrupole moment (field-independent basis, Debye-Ang):
   XX=            -31.9309   YY=            -30.8654   ZZ=            -33.0127
   XY=              0.3918   XZ=              1.5596   YZ=              0.4404
 Traceless Quadrupole moment (field-independent basis, Debye-Ang):
   XX=              0.0054   YY=              1.0709   ZZ=             -1.0764
   XY=              0.3918   XZ=              1.5596   YZ=              0.4404
 Octapole moment (field-independent basis, Debye-Ang**2):
  XXX=              1.0602  YYY=             -1.7514  ZZZ=              1.1048  XYY=              0.8507
  XXY=             -3.3086  XXZ=              1.8093  XZZ=             -3.8802  YZZ=             -2.2160
  YYZ=             -0.3828  XYZ=              0.1039
 Hexadecapole moment (field-independent basis, Debye-Ang**3):
 XXXX=           -393.5761 YYYY=           -129.6159 ZZZZ=            -89.8820 XXXY=            -10.9959
 XXXZ=             -0.3906 YYYX=            -18.3744 YYYZ=              4.5501 ZZZX=            -14.8675
 ZZZY=              4.3256 XXYY=            -86.9594 XXZZ=            -83.0047 YYZZ=            -38.1873
 XXYZ=              0.4093 YYXZ=             -3.8308 ZZXY=             -7.0961
 N-N= 1.650281248163D+02 E-N=-7.821353414362D+02  KE= 1.942737203322D+02
 1\1\GINC-BHC0005\SP\RB3LYP\def2TZVP\C5H8\DHANAWAY\10-Jun-2022\0\\# sp 
 B3LYP/Def2TZVP NoSymm\\int_initalOptXYZ_aligned_AlignedSp\\0,1\H,0,2.8
 46465,0.660283,0.659766\H,0,1.449435,1.679499,0.021047\H,0,1.595399,-1
 .367064,0.305058\C,0,1.842359,0.698001,0.257332\H,0,-0.371498,-1.22722
 7,-1.249943\C,0,1.136786,-0.410772,0.063197\H,0,-1.844974,0.761369,-1.
 349978\H,0,-0.824203,1.626865,-0.123338\H,0,-2.262702,-1.089072,0.3344
 23\H,0,-1.210841,-0.208672,1.534888\C,0,-1.178861,0.678081,-0.501666\C
 ,0,-0.250081,-0.500129,-0.453128\C,0,-1.4288,-0.418886,0.496231\\Versi
 on=ES64L-G16RevA.03\HF=-195.3673151\RMSD=4.619e-09\Dipole=-0.1449658,-
 0.0896526,-0.0324053\Quadrupole=0.0040456,0.7962049,-0.8002505,0.29128
 09,1.1595521,0.3274349\PG=C01 [X(C5H8)]\\@


 ASKING DUMB QUESTIONS IS EASIER THAN CORECTING DUMB MISTAKES.
 Job cpu time:       0 days  0 hours  4 minutes  2.0 seconds.
 Elapsed time:       0 days  0 hours  0 minutes 20.9 seconds.
 File lengths (MBytes):  RWF=     25 Int=      0 D2E=      0 Chk=     32 Scr=      1
 Normal termination of Gaussian 16 at Fri Jun 10 22:24:25 2022.
