 Entering Gaussian System, Link 0=g16
 Input=int_initalOpt_zmat_sp.gjf
 Output=int_initalOpt_zmat_sp.out
 Initial command:
 /software/gaussian/g16-a03/l1.exe "/local_scratch/9896076/Gau-1941.inp" -scrdir="/local_scratch/9896076/"
 Entering Link 1 = /software/gaussian/g16-a03/l1.exe PID=      1942.
  
 Copyright (c) 1988,1990,1992,1993,1995,1998,2003,2009,2016,
            Gaussian, Inc.  All Rights Reserved.
  
 This is part of the Gaussian(R) 16 program.  It is based on
 the Gaussian(R) 09 system (copyright 2009, Gaussian, Inc.),
 the Gaussian(R) 03 system (copyright 2003, Gaussian, Inc.),
 the Gaussian(R) 98 system (copyright 1998, Gaussian, Inc.),
 the Gaussian(R) 94 system (copyright 1995, Gaussian, Inc.),
 the Gaussian 92(TM) system (copyright 1992, Gaussian, Inc.),
 the Gaussian 90(TM) system (copyright 1990, Gaussian, Inc.),
 the Gaussian 88(TM) system (copyright 1988, Gaussian, Inc.),
 the Gaussian 86(TM) system (copyright 1986, Carnegie Mellon
 University), and the Gaussian 82(TM) system (copyright 1983,
 Carnegie Mellon University). Gaussian is a federally registered
 trademark of Gaussian, Inc.
  
 This software contains proprietary and confidential information,
 including trade secrets, belonging to Gaussian, Inc.
  
 This software is provided under written license and may be
 used, copied, transmitted, or stored only in accord with that
 written license.
  
 The following legend is applicable only to US Government
 contracts under FAR:
  
                    RESTRICTED RIGHTS LEGEND
  
 Use, reproduction and disclosure by the US Government is
 subject to restrictions as set forth in subparagraphs (a)
 and (c) of the Commercial Computer Software - Restricted
 Rights clause in FAR 52.227-19.
  
 Gaussian, Inc.
 340 Quinnipiac St., Bldg. 40, Wallingford CT 06492
  
  
 ---------------------------------------------------------------
 Warning -- This program may not be used in any manner that
 competes with the business of Gaussian, Inc. or will provide
 assistance to any competitor of Gaussian, Inc.  The licensee
 of this program is prohibited from giving any competitor of
 Gaussian, Inc. access to this program.  By using this program,
 the user acknowledges that Gaussian, Inc. is engaged in the
 business of creating and licensing software in the field of
 computational chemistry and represents and warrants to the
 licensee that it is not a competitor of Gaussian, Inc. and that
 it will not use this program in any manner prohibited above.
 ---------------------------------------------------------------
  

 Cite this work as:
 Gaussian 16, Revision A.03,
 M. J. Frisch, G. W. Trucks, H. B. Schlegel, G. E. Scuseria, 
 M. A. Robb, J. R. Cheeseman, G. Scalmani, V. Barone, 
 G. A. Petersson, H. Nakatsuji, X. Li, M. Caricato, A. V. Marenich, 
 J. Bloino, B. G. Janesko, R. Gomperts, B. Mennucci, H. P. Hratchian, 
 J. V. Ortiz, A. F. Izmaylov, J. L. Sonnenberg, D. Williams-Young, 
 F. Ding, F. Lipparini, F. Egidi, J. Goings, B. Peng, A. Petrone, 
 T. Henderson, D. Ranasinghe, V. G. Zakrzewski, J. Gao, N. Rega, 
 G. Zheng, W. Liang, M. Hada, M. Ehara, K. Toyota, R. Fukuda, 
 J. Hasegawa, M. Ishida, T. Nakajima, Y. Honda, O. Kitao, H. Nakai, 
 T. Vreven, K. Throssell, J. A. Montgomery, Jr., J. E. Peralta, 
 F. Ogliaro, M. J. Bearpark, J. J. Heyd, E. N. Brothers, K. N. Kudin, 
 V. N. Staroverov, T. A. Keith, R. Kobayashi, J. Normand, 
 K. Raghavachari, A. P. Rendell, J. C. Burant, S. S. Iyengar, 
 J. Tomasi, M. Cossi, J. M. Millam, M. Klene, C. Adamo, R. Cammi, 
 J. W. Ochterski, R. L. Martin, K. Morokuma, O. Farkas, 
 J. B. Foresman, and D. J. Fox, Gaussian, Inc., Wallingford CT, 2016.
 
 ******************************************
 Gaussian 16:  ES64L-G16RevA.03 25-Dec-2016
                18-Mar-2022 
 ******************************************
 %nprocshared=12
 Will use up to   12 processors via shared memory.
 %chk=checkpoint.chk
 %mem=12GB
 --------------------------
 # sp B3LYP/Def2TZVP NoSymm
 --------------------------
 1/38=1,172=1/1;
 2/12=2,15=1,17=6,18=5,40=1/2;
 3/5=44,7=101,11=2,25=1,30=1,74=-5/1,2,3;
 4//1;
 5/5=2,38=5/2;
 6/7=2,8=2,9=2,10=2,28=1/1;
 99/5=1,9=1/99;
 ----------------------------
 int_initalOpt_zmat_AlignedSp
 ----------------------------
 Symbolic Z-matrix:
 Charge =  0 Multiplicity = 1
 C
 C                    1    R2
 C                    1    R3       2    A3
 H                    1    R4       2    A4       3    D4       0
 H                    2    R5       1    A5       3    D5       0
 H                    3    R6       1    A6       2    D6       0
 C                    3    R7       1    A7       6    D7       0
 C                    2    R8       1    A8       5    D8       0
 H                    7    R9       3    A9       1    D9       0
 O                    7    R10      3    A10      9    D10      0
 H                    8    R11      2    A11      1    D11      0
 H                    8    R12      2    A12      11   D12      0
       Variables:
  R2                    1.3366                   
  R3                    1.45366                  
  R4                    1.08305                  
  R5                    1.08216                  
  R6                    1.07979                  
  R7                    1.3416                   
  R8                    1.50115                  
  R9                    1.08238                  
  R10                   1.3533                   
  R11                   1.08877                  
  R12                   1.10151                  
  A3                  119.24238                  
  A4                  121.32135                  
  A5                  122.73966                  
  A6                  121.67044                  
  A7                  118.04729                  
  A8                  118.03103                  
  A9                  124.43545                  
  A10                 123.1836                   
  A11                 112.50063                  
  A12                 111.10271                  
  D4                 -175.86874                  
  D5                  175.56055                  
  D6                  172.24232                  
  D7                  172.50146                  
  D8                  178.61574                  
  D9                 -169.0538                   
  D10                 174.73859                  
  D11                 152.56181                  
  D12                 121.43267                  
 
                          Input orientation:                          
 ---------------------------------------------------------------------
 Center     Atomic      Atomic             Coordinates (Angstroms)
 Number     Number       Type             X           Y           Z
 ---------------------------------------------------------------------
      1          6           0        0.000000    0.000000    0.000000
      2          6           0        0.000000    0.000000    1.336596
      3          6           0        1.268408    0.000000   -0.710121
      4          1           0       -0.922809    0.066654   -0.563011
      5          1           0       -0.907517    0.070458    1.921855
      6          1           0        1.318262   -0.124049   -1.781605
      7          6           0        2.376864    0.311564   -0.021541
      8          6           0        1.318214   -0.134451    2.042060
      9          1           0        3.341501    0.508803   -0.471116
     10          8           0        2.385097    0.514785    1.316391
     11          1           0        1.313760    0.331914    3.025884
     12          1           0        1.595922   -1.193236    2.165248
 ---------------------------------------------------------------------
                    Distance matrix (angstroms):
                    1          2          3          4          5
     1  C    0.000000
     2  C    1.336596   0.000000
     3  C    1.453661   2.407885   0.000000
     4  H    1.083052   2.112943   2.197161   0.000000
     5  H    2.126518   1.082165   3.415686   2.484916   0.000000
     6  H    2.219756   3.387681   1.079792   2.558073   4.325222
     7  C    2.397294   2.755193   1.341600   3.352762   3.823883
     8  C    2.434291   1.501148   2.755913   3.442241   2.238374
     9  H    3.412691   3.833058   2.147957   4.288156   4.896183
    10  O    2.772467   2.440102   2.370390   3.830824   3.377177
    11  H    3.315435   2.165601   3.750994   4.237071   2.494255
    12  H    2.942631   2.158111   3.130308   3.921062   2.814849
                    6          7          8          9         10
     6  H    0.000000
     7  C    2.099577   0.000000
     8  C    3.823679   2.361803   0.000000
     9  H    2.492263   1.082380   3.289912   0.000000
    10  O    3.338236   1.353302   1.444417   2.027295   0.000000
    11  H    4.829066   3.227600   1.088773   4.046237   2.025728
    12  H    4.098525   2.767009   1.101510   3.590877   2.064144
                   11         12
    11  H    0.000000
    12  H    1.773808   0.000000
 Symmetry turned off by external request.
 Stoichiometry    C5H6O
 Framework group  C1[X(C5H6O)]
 Deg. of freedom    30
 Full point group                 C1      NOp   1
 Rotational constants (GHZ):           5.5881706           5.3767942           2.8631586
 Standard basis: def2TZVP (5D, 7F)
   222 basis functions,   354 primitive gaussians,   252 cartesian basis functions
    22 alpha electrons       22 beta electrons
       nuclear repulsion energy       223.6886920536 Hartrees.
 NAtoms=   12 NActive=   12 NUniq=   12 SFac= 1.00D+00 NAtFMM=   60 NAOKFM=F Big=F
 Integral buffers will be    131072 words long.
 Raffenetti 2 integral format.
 Two-electron integral symmetry is turned off.
 One-electron integrals computed using PRISM.
   1 Symmetry operations used in ECPInt.
 ECPInt:  NShTT=    4095 NPrTT=   12396 LenC2=    4075 LenP2D=   10423.
 LDataN:  DoStor=T MaxTD1= 6 Len=  172
 NBasis=   222 RedAO= T EigKep=  9.59D-05  NBF=   222
 NBsUse=   222 1.00D-06 EigRej= -1.00D+00 NBFU=   222
 ExpMin= 9.52D-02 ExpMax= 2.70D+04 ExpMxC= 9.22D+02 IAcc=3 IRadAn=         5 AccDes= 0.00D+00
 Harris functional with IExCor=  402 and IRadAn=       5 diagonalized for initial guess.
 HarFok:  IExCor=  402 AccDes= 0.00D+00 IRadAn=         5 IDoV= 1 UseB2=F ITyADJ=14
 ICtDFT=  3500011 ScaDFX=  1.000000  1.000000  1.000000  1.000000
 FoFCou: FMM=F IPFlag=           0 FMFlag=      100000 FMFlg1=           0
         NFxFlg=           0 DoJE=T BraDBF=F KetDBF=T FulRan=T
         wScrn=  0.000000 ICntrl=       500 IOpCl=  0 I1Cent=   200000004 NGrid=           0
         NMat0=    1 NMatS0=      1 NMatT0=    0 NMatD0=    1 NMtDS0=    0 NMtDT0=    0
 Symmetry not used in FoFCou.
 Keep R1 ints in memory in canonical form, NReq=319363885.
 Requested convergence on RMS density matrix=1.00D-08 within 128 cycles.
 Requested convergence on MAX density matrix=1.00D-06.
 Requested convergence on             energy=1.00D-06.
 No special actions if energy rises.
 Integral accuracy reduced to 1.0D-05 until final iterations.
 Initial convergence to 1.0D-05 achieved.  Increase integral accuracy.
 SCF Done:  E(RB3LYP) =  -269.422509590     A.U. after   13 cycles
            NFock= 13  Conv=0.67D-08     -V/T= 2.0050

 **********************************************************************

            Population analysis using the SCF density.

 **********************************************************************

 Alpha  occ. eigenvalues --  -19.16116 -10.23274 -10.23078 -10.17926 -10.17313
 Alpha  occ. eigenvalues --  -10.16645  -1.07060  -0.81408  -0.77439  -0.66565
 Alpha  occ. eigenvalues --   -0.62635  -0.53389  -0.51176  -0.48548  -0.46309
 Alpha  occ. eigenvalues --   -0.43838  -0.40954  -0.37855  -0.36089  -0.33068
 Alpha  occ. eigenvalues --   -0.30118  -0.21129
 Alpha virt. eigenvalues --   -0.03376   0.04616   0.05587   0.07510   0.07893
 Alpha virt. eigenvalues --    0.09293   0.10034   0.10888   0.12582   0.16187
 Alpha virt. eigenvalues --    0.17805   0.19367   0.21561   0.22452   0.22634
 Alpha virt. eigenvalues --    0.24210   0.24995   0.27132   0.28593   0.30459
 Alpha virt. eigenvalues --    0.31096   0.33167   0.34717   0.36067   0.36844
 Alpha virt. eigenvalues --    0.37881   0.38654   0.41274   0.42109   0.42704
 Alpha virt. eigenvalues --    0.43475   0.44817   0.46271   0.49476   0.51103
 Alpha virt. eigenvalues --    0.53002   0.55484   0.57852   0.60143   0.62888
 Alpha virt. eigenvalues --    0.65478   0.66335   0.68609   0.72746   0.74001
 Alpha virt. eigenvalues --    0.78452   0.81336   0.84466   0.86169   0.89470
 Alpha virt. eigenvalues --    0.90780   0.92646   0.95667   0.97657   0.99584
 Alpha virt. eigenvalues --    1.05265   1.07297   1.09018   1.11005   1.11572
 Alpha virt. eigenvalues --    1.15257   1.18128   1.19969   1.23532   1.26425
 Alpha virt. eigenvalues --    1.29867   1.33687   1.36335   1.40362   1.43247
 Alpha virt. eigenvalues --    1.44494   1.45194   1.48299   1.51246   1.52267
 Alpha virt. eigenvalues --    1.56270   1.59933   1.62945   1.65206   1.67301
 Alpha virt. eigenvalues --    1.70312   1.72028   1.74465   1.77983   1.80358
 Alpha virt. eigenvalues --    1.85487   1.87329   1.90516   1.91627   1.96587
 Alpha virt. eigenvalues --    1.99987   2.00839   2.06054   2.10808   2.12982
 Alpha virt. eigenvalues --    2.14362   2.17373   2.20505   2.23013   2.27092
 Alpha virt. eigenvalues --    2.27513   2.37247   2.38710   2.45408   2.46014
 Alpha virt. eigenvalues --    2.50758   2.52137   2.53409   2.57191   2.60264
 Alpha virt. eigenvalues --    2.62118   2.62638   2.65608   2.67775   2.70532
 Alpha virt. eigenvalues --    2.71079   2.73713   2.76824   2.78821   2.80561
 Alpha virt. eigenvalues --    2.83199   2.83943   2.87613   2.88985   2.91545
 Alpha virt. eigenvalues --    2.93754   2.97411   3.02283   3.02809   3.07252
 Alpha virt. eigenvalues --    3.08001   3.11026   3.13479   3.15967   3.16227
 Alpha virt. eigenvalues --    3.18974   3.19868   3.22515   3.24312   3.25349
 Alpha virt. eigenvalues --    3.29222   3.30310   3.33059   3.36531   3.37725
 Alpha virt. eigenvalues --    3.39758   3.42357   3.44842   3.45672   3.49164
 Alpha virt. eigenvalues --    3.54712   3.58840   3.63223   3.67919   3.69424
 Alpha virt. eigenvalues --    3.78314   3.84384   3.86171   3.91153   3.93861
 Alpha virt. eigenvalues --    3.97881   4.03135   4.04072   4.12782   4.17259
 Alpha virt. eigenvalues --    4.19708   4.24914   4.29012   4.36661   4.39752
 Alpha virt. eigenvalues --    4.44999   4.52606   4.57489   4.63941   4.66743
 Alpha virt. eigenvalues --    4.68073   4.79010   4.84201   4.91273   4.95042
 Alpha virt. eigenvalues --    5.12319   5.18032   5.37267   5.45576   5.75615
 Alpha virt. eigenvalues --    5.85383   5.90455   6.23403   6.32207   6.65979
 Alpha virt. eigenvalues --    6.76533   6.86668   7.15211   7.24861  22.06634
 Alpha virt. eigenvalues --   22.31967  22.42788  22.74337  22.92176  44.05308
          Condensed to atoms (all electrons):
               1          2          3          4          5          6
     1  C    4.844192   0.659523   0.369371   0.418575  -0.041379  -0.047689
     2  C    0.659523   5.041221  -0.068528  -0.039871   0.402050   0.005806
     3  C    0.369371  -0.068528   5.091025  -0.049764   0.005328   0.407511
     4  H    0.418575  -0.039871  -0.049764   0.562428  -0.008846  -0.004813
     5  H   -0.041379   0.402050   0.005328  -0.008846   0.561521  -0.000209
     6  H   -0.047689   0.005806   0.407511  -0.004813  -0.000209   0.554039
     7  C   -0.049392  -0.033711   0.588247   0.003912   0.001768  -0.027616
     8  C   -0.043250   0.350162  -0.032591   0.008291  -0.038134  -0.000545
     9  H    0.005392  -0.000360  -0.069857  -0.000359   0.000168  -0.003913
    10  O   -0.021911  -0.021904  -0.072227  -0.001082   0.004156   0.005248
    11  H    0.004408  -0.037403   0.004570  -0.000315  -0.005771   0.000142
    12  H   -0.009260  -0.079062  -0.005102  -0.000189   0.007044  -0.000344
               7          8          9         10         11         12
     1  C   -0.049392  -0.043250   0.005392  -0.021911   0.004408  -0.009260
     2  C   -0.033711   0.350162  -0.000360  -0.021904  -0.037403  -0.079062
     3  C    0.588247  -0.032591  -0.069857  -0.072227   0.004570  -0.005102
     4  H    0.003912   0.008291  -0.000359  -0.001082  -0.000315  -0.000189
     5  H    0.001768  -0.038134   0.000168   0.004156  -0.005771   0.007044
     6  H   -0.027616  -0.000545  -0.003913   0.005248   0.000142  -0.000344
     7  C    4.736595  -0.041609   0.430211   0.335146  -0.000750   0.031102
     8  C   -0.041609   4.670776   0.004842   0.274844   0.409618   0.401595
     9  H    0.430211   0.004842   0.550331  -0.039013  -0.000576   0.002017
    10  O    0.335146   0.274844  -0.039013   7.903656  -0.030839  -0.065976
    11  H   -0.000750   0.409618  -0.000576  -0.030839   0.603382  -0.054809
    12  H    0.031102   0.401595   0.002017  -0.065976  -0.054809   0.696672
 Mulliken charges:
               1
     1  C   -0.088581
     2  C   -0.177922
     3  C   -0.167984
     4  H    0.112034
     5  H    0.112303
     6  H    0.112381
     7  C    0.026097
     8  C    0.035999
     9  H    0.121116
    10  O   -0.270098
    11  H    0.108343
    12  H    0.076311
 Sum of Mulliken charges =  -0.00000
 Mulliken charges with hydrogens summed into heavy atoms:
               1
     1  C    0.023453
     2  C   -0.065619
     3  C   -0.055603
     7  C    0.147213
     8  C    0.220653
    10  O   -0.270098
 Electronic spatial extent (au):  <R**2>=            782.2102
 Charge=             -0.0000 electrons
 Dipole moment (field-independent basis, Debye):
    X=             -0.5844    Y=             -0.4186    Z=             -0.0240  Tot=              0.7192
 Quadrupole moment (field-independent basis, Debye-Ang):
   XX=            -35.9511   YY=            -38.7462   ZZ=            -31.9053
   XY=             -0.8378   XZ=             -2.2743   YZ=             -1.0402
 Traceless Quadrupole moment (field-independent basis, Debye-Ang):
   XX=             -0.4169   YY=             -3.2120   ZZ=              3.6289
   XY=             -0.8378   XZ=             -2.2743   YZ=             -1.0402
 Octapole moment (field-independent basis, Debye-Ang**2):
  XXX=           -128.2482  YYY=            -11.0333  ZZZ=            -62.7079  XYY=            -44.9636
  XXY=             -3.7156  XXZ=            -33.5144  XZZ=            -42.7661  YZZ=             -4.6502
  YYZ=            -24.0175  XYZ=             -3.3941
 Hexadecapole moment (field-independent basis, Debye-Ang**3):
 XXXX=           -567.2712 YYYY=            -64.3631 ZZZZ=           -349.2937 XXXY=            -25.0233
 XXXZ=           -117.5016 YYYX=            -29.3659 YYYZ=             -4.5001 ZZZX=            -79.0530
 ZZZY=              0.1802 XXYY=           -113.3060 XXZZ=           -167.6054 YYZZ=            -76.9982
 XXYZ=            -10.4735 YYXZ=            -26.3936 ZZXY=            -13.4299
 N-N= 2.236886920536D+02 E-N=-1.075162985372D+03  KE= 2.680830707262D+02
 1\1\GINC-BHC0071\SP\RB3LYP\def2TZVP\C5H6O1\DHANAWAY\18-Mar-2022\0\\# s
 p B3LYP/Def2TZVP NoSymm\\int_initalOpt_zmat_AlignedSp\\0,1\C\C,1,1.336
 59615\C,1,1.45366089,2,119.24237867\H,1,1.08305164,2,121.32134865,3,-1
 75.86873757,0\H,2,1.08216452,1,122.73965562,3,175.56055039,0\H,3,1.079
 79233,1,121.67043984,2,172.24232345,0\C,3,1.34159987,1,118.04729408,6,
 172.50145561,0\C,2,1.50114754,1,118.0310261,5,178.61573588,0\H,7,1.082
 3795,3,124.4354456,1,-169.05379551,0\O,7,1.35330208,3,123.18360196,9,1
 74.73859002,0\H,8,1.08877293,2,112.50062942,1,152.56180696,0\H,8,1.101
 50995,2,111.10270891,11,121.43267424,0\\Version=ES64L-G16RevA.03\HF=-2
 69.4225096\RMSD=6.658e-09\Dipole=-0.2299131,-0.1646882,-0.0094344\Quad
 rupole=-0.3099792,-2.3880404,2.6980196,-0.6229196,-1.6908918,-0.773338
 5\PG=C01 [X(C5H6O1)]\\@


 THE ENLIGHTENED ONE, BECAUSE HE SAW MANKIND DROWNING  
 IN THE GREAT SEA OF BIRTH, DEATH, AND SORROW, LONGED TO SAVE 
 THEM, FOR THIS HE WAS MOVED TO PITY.                         
 BECAUSE HE SAW MEN OF THE WORLD STRAYING IN FALSE PATHS, AND 
 NONE TO GUIDE THEM, FOR THIS HE WAS MOVED TO PITY.           
                     ..................                       
 BECAUSE HE SAW THE MEN OF THE WORLD PLOUGHING THEIR FIELDS,  
 SOWING THE SEED, TRAFFICKING, HUCKSTERING, BUYING, SELLING,  
 AND AT THE END WINNOWING NOTHING BUT BITTERNESS,             
 FOR THIS HE WAS MOVED TO PITY......                   
                   BUDAH'S PITY - UPSAKA SILA SUTRA           
 Job cpu time:       0 days  0 hours  2 minutes 58.2 seconds.
 Elapsed time:       0 days  0 hours  0 minutes 22.4 seconds.
 File lengths (MBytes):  RWF=     25 Int=      0 D2E=      0 Chk=     32 Scr=      1
 Normal termination of Gaussian 16 at Fri Mar 18 14:05:41 2022.
