 Entering Gaussian System, Link 0=g16
 Input=ts_zmat_field_N25.gjf
 Output=ts_zmat_field_N25.out
 Initial command:
 /software/gaussian/g16-a03/l1.exe "/local_scratch/11174442/Gau-28221.inp" -scrdir="/local_scratch/11174442/"
 Entering Link 1 = /software/gaussian/g16-a03/l1.exe PID=     28222.
  
 Copyright (c) 1988,1990,1992,1993,1995,1998,2003,2009,2016,
            Gaussian, Inc.  All Rights Reserved.
  
 This is part of the Gaussian(R) 16 program.  It is based on
 the Gaussian(R) 09 system (copyright 2009, Gaussian, Inc.),
 the Gaussian(R) 03 system (copyright 2003, Gaussian, Inc.),
 the Gaussian(R) 98 system (copyright 1998, Gaussian, Inc.),
 the Gaussian(R) 94 system (copyright 1995, Gaussian, Inc.),
 the Gaussian 92(TM) system (copyright 1992, Gaussian, Inc.),
 the Gaussian 90(TM) system (copyright 1990, Gaussian, Inc.),
 the Gaussian 88(TM) system (copyright 1988, Gaussian, Inc.),
 the Gaussian 86(TM) system (copyright 1986, Carnegie Mellon
 University), and the Gaussian 82(TM) system (copyright 1983,
 Carnegie Mellon University). Gaussian is a federally registered
 trademark of Gaussian, Inc.
  
 This software contains proprietary and confidential information,
 including trade secrets, belonging to Gaussian, Inc.
  
 This software is provided under written license and may be
 used, copied, transmitted, or stored only in accord with that
 written license.
  
 The following legend is applicable only to US Government
 contracts under FAR:
  
                    RESTRICTED RIGHTS LEGEND
  
 Use, reproduction and disclosure by the US Government is
 subject to restrictions as set forth in subparagraphs (a)
 and (c) of the Commercial Computer Software - Restricted
 Rights clause in FAR 52.227-19.
  
 Gaussian, Inc.
 340 Quinnipiac St., Bldg. 40, Wallingford CT 06492
  
  
 ---------------------------------------------------------------
 Warning -- This program may not be used in any manner that
 competes with the business of Gaussian, Inc. or will provide
 assistance to any competitor of Gaussian, Inc.  The licensee
 of this program is prohibited from giving any competitor of
 Gaussian, Inc. access to this program.  By using this program,
 the user acknowledges that Gaussian, Inc. is engaged in the
 business of creating and licensing software in the field of
 computational chemistry and represents and warrants to the
 licensee that it is not a competitor of Gaussian, Inc. and that
 it will not use this program in any manner prohibited above.
 ---------------------------------------------------------------
  

 Cite this work as:
 Gaussian 16, Revision A.03,
 M. J. Frisch, G. W. Trucks, H. B. Schlegel, G. E. Scuseria, 
 M. A. Robb, J. R. Cheeseman, G. Scalmani, V. Barone, 
 G. A. Petersson, H. Nakatsuji, X. Li, M. Caricato, A. V. Marenich, 
 J. Bloino, B. G. Janesko, R. Gomperts, B. Mennucci, H. P. Hratchian, 
 J. V. Ortiz, A. F. Izmaylov, J. L. Sonnenberg, D. Williams-Young, 
 F. Ding, F. Lipparini, F. Egidi, J. Goings, B. Peng, A. Petrone, 
 T. Henderson, D. Ranasinghe, V. G. Zakrzewski, J. Gao, N. Rega, 
 G. Zheng, W. Liang, M. Hada, M. Ehara, K. Toyota, R. Fukuda, 
 J. Hasegawa, M. Ishida, T. Nakajima, Y. Honda, O. Kitao, H. Nakai, 
 T. Vreven, K. Throssell, J. A. Montgomery, Jr., J. E. Peralta, 
 F. Ogliaro, M. J. Bearpark, J. J. Heyd, E. N. Brothers, K. N. Kudin, 
 V. N. Staroverov, T. A. Keith, R. Kobayashi, J. Normand, 
 K. Raghavachari, A. P. Rendell, J. C. Burant, S. S. Iyengar, 
 J. Tomasi, M. Cossi, J. M. Millam, M. Klene, C. Adamo, R. Cammi, 
 J. W. Ochterski, R. L. Martin, K. Morokuma, O. Farkas, 
 J. B. Foresman, and D. J. Fox, Gaussian, Inc., Wallingford CT, 2016.
 
 ******************************************
 Gaussian 16:  ES64L-G16RevA.03 25-Dec-2016
                10-Jun-2022 
 ******************************************
 %nprocshared=12
 Will use up to   12 processors via shared memory.
 %chk=checkpoint.chk
 %mem=12GB
 ----------------------------------------------------------------------
 # Opt=(TS, CalcFC, noeigentest, Z-matrix, MaxStep=10) Field=read NoSym
 m B3LYP/Def2TZVP freq=noraman pop=none
 ----------------------------------------------------------------------
 1/5=1,8=10,10=4,11=1,18=40,26=3,38=1/1,3;
 2/12=2,15=1,17=6,18=5,29=3,40=1/2;
 3/5=44,7=101,11=2,14=-6,25=1,30=1,71=2,74=-5,140=1/1,2,3;
 4//1;
 5/5=2,38=5/2;
 8/6=4,10=90,11=11/1;
 11/6=1,8=1,9=11,15=111,16=1,31=1/1,2,10;
 10/6=1,13=1,31=1/2;
 7/10=1,18=20,25=1,30=1/1,2,3,16;
 1/5=1,8=10,10=4,11=1,18=40,26=3/3(2);
 2/15=1,29=3/2;
 99//99;
 2/15=1,29=3/2;
 3/5=44,7=101,11=2,14=-2,25=1,30=1,71=1,74=-5/1,2,3;
 4/5=5,16=3,69=1/1;
 5/5=2,38=5/2;
 7/30=1/1,2,3,16;
 1/5=1,8=10,11=1,18=40,26=3/3(-5);
 2/15=1,29=3/2;
 99/9=1/99;
 -----------------
 ts_zmat_initalOpt
 -----------------
 Symbolic Z-matrix:
 Charge =  0 Multiplicity = 1
 H
 C                    1    R2
 C                    2    R3       1    A3
 C                    2    R4       1    A4       3    D4       0
 H                    3    R5       2    A5       1    D5       0
 C                    3    R6       2    A6       5    D6       0
 C                    4    R3       2    A7       1    D7       0
 H                    4    R2       2    A4       7    D8       0
 C                    6    R9       3    A9       2    D9       0
 C                    6    R10      3    A10      9    D10      0
 H                    7    R5       4    A5       2    D11      0
 H                    9    R12      6    A12      3    D12      0
 C                    10   R9       6    A13      3    D13      0
 H                    9    R14      6    A14      12   D14      0
 H                    13   R12      10   A12      6    D15      0
 H                    13   R14      10   A14      15   D14      0
       Variables:
  R2                    1.08298                  
  R3                    1.38053                  
  R4                    1.41374                  
  R5                    1.08353                  
  R6                    1.40545                  
  R9                    1.42383                  
  R10                   1.41211                  
  R12                   1.07814                  
  R14                   1.0882                   
  A3                  119.65225                  
  A4                  118.80285                  
  A5                  121.06651                  
  A6                  117.09468                  
  A7                  121.49926                  
  A9                  133.35746                  
  A10                 120.32938                  
  A12                 117.95382                  
  A13                 106.24712                  
  A14                 123.04379                  
  D4                 -177.58037                  
  D5                   -1.69594                  
  D6                 -174.74822                  
  D7                 -177.85978                  
  D8                  177.53381                  
  D9                  164.30521                  
  D10                -176.59725                  
  D11                 175.81732                  
  D12                -120.94221                  
  D13                -159.0437                   
  D14                 156.53444                  
  D15                  55.99892                  
 

 GradGradGradGradGradGradGradGradGradGradGradGradGradGradGradGradGradGrad
 Berny optimization.
 Initialization pass.
                       ----------------------------
                       !    Initial Parameters    !
                       ! (Angstroms and Degrees)  !
 ----------------------                            ----------------------
 !      Name          Value   Derivative information (Atomic Units)     !
 ------------------------------------------------------------------------
 !       R2          1.083    calculate D2E/DX2 analytically            !
 !       R3          1.3805   calculate D2E/DX2 analytically            !
 !       R4          1.4137   calculate D2E/DX2 analytically            !
 !       R5          1.0835   calculate D2E/DX2 analytically            !
 !       R6          1.4055   calculate D2E/DX2 analytically            !
 !       R9          1.4238   calculate D2E/DX2 analytically            !
 !       R10         1.4121   calculate D2E/DX2 analytically            !
 !       R12         1.0781   calculate D2E/DX2 analytically            !
 !       R14         1.0882   calculate D2E/DX2 analytically            !
 !       A3        119.6523   calculate D2E/DX2 analytically            !
 !       A4        118.8029   calculate D2E/DX2 analytically            !
 !       A5        121.0665   calculate D2E/DX2 analytically            !
 !       A6        117.0947   calculate D2E/DX2 analytically            !
 !       A7        121.4993   calculate D2E/DX2 analytically            !
 !       A9        133.3575   calculate D2E/DX2 analytically            !
 !       A10       120.3294   calculate D2E/DX2 analytically            !
 !       A12       117.9538   calculate D2E/DX2 analytically            !
 !       A13       106.2471   calculate D2E/DX2 analytically            !
 !       A14       123.0438   calculate D2E/DX2 analytically            !
 !       D4       -177.5804   calculate D2E/DX2 analytically            !
 !       D5         -1.6959   calculate D2E/DX2 analytically            !
 !       D6       -174.7482   calculate D2E/DX2 analytically            !
 !       D7       -177.8598   calculate D2E/DX2 analytically            !
 !       D8        177.5338   calculate D2E/DX2 analytically            !
 !       D9        164.3052   calculate D2E/DX2 analytically            !
 !       D10      -176.5973   calculate D2E/DX2 analytically            !
 !       D11       175.8173   calculate D2E/DX2 analytically            !
 !       D12      -120.9422   calculate D2E/DX2 analytically            !
 !       D13      -159.0437   calculate D2E/DX2 analytically            !
 !       D14       156.5344   calculate D2E/DX2 analytically            !
 !       D15        55.9989   calculate D2E/DX2 analytically            !
 ------------------------------------------------------------------------
 Trust Radius=1.00D-01 FncErr=1.00D-07 GrdErr=1.00D-06 EigMax=2.50D+02 EigMin=1.00D-04
 Number of steps in this run=     41 maximum allowed number of steps=    100.
 Search for a saddle point of order  1.
 GradGradGradGradGradGradGradGradGradGradGradGradGradGradGradGradGradGrad

 ---------------------------------------------------------------------------------------------------
                            Z-MATRIX (ANGSTROMS AND DEGREES)
   CD    Cent   Atom    N1       Length/X        N2       Alpha/Y        N3        Beta/Z          J
 ---------------------------------------------------------------------------------------------------
      1      1  H 
      2      2  C        1   1.082981(     1)
      3      3  C        2   1.380529(     2)      1  119.652(    16)
      4      4  C        2   1.413743(     3)      1  118.803(    17)      3 -177.580(    30)      0
      5      5  H        3   1.083531(     4)      2  121.067(    18)      1   -1.696(    31)      0
      6      6  C        3   1.405453(     5)      2  117.095(    19)      5 -174.748(    32)      0
      7      7  C        4   1.380529(     6)      2  121.499(    20)      1 -177.860(    33)      0
      8      8  H        4   1.082981(     7)      2  118.803(    21)      7  177.534(    34)      0
      9      9  C        6   1.423825(     8)      3  133.357(    22)      2  164.305(    35)      0
     10     10  C        6   1.412115(     9)      3  120.329(    23)      9 -176.597(    36)      0
     11     11  H        7   1.083531(    10)      4  121.067(    24)      2  175.817(    37)      0
     12     12  H        9   1.078139(    11)      6  117.954(    25)      3 -120.942(    38)      0
     13     13  C       10   1.423825(    12)      6  106.247(    26)      3 -159.044(    39)      0
     14     14  H        9   1.088203(    13)      6  123.044(    27)     12  156.534(    40)      0
     15     15  H       13   1.078139(    14)     10  117.954(    28)      6   55.999(    41)      0
     16     16  H       13   1.088203(    15)     10  123.044(    29)     15  156.534(    42)      0
 ---------------------------------------------------------------------------------------------------
                         Z-Matrix orientation:                         
 ---------------------------------------------------------------------
 Center     Atomic      Atomic             Coordinates (Angstroms)
 Number     Number       Type             X           Y           Z
 ---------------------------------------------------------------------
      1          1           0        0.000000    0.000000    0.000000
      2          6           0        0.000000    0.000000    1.082981
      3          6           0        1.199741    0.000000    1.765977
      4          6           0       -1.237734   -0.052301    1.764119
      5          1           0        2.144627   -0.027468    1.236379
      6          6           0        1.138216   -0.077602    3.167937
      7          6           0       -1.304873   -0.011140    3.142400
      8          1           0       -2.151589   -0.085513    1.183933
      9          6           0        2.099237   -0.382929    4.173170
     10          6           0       -0.090164    0.108372    3.839177
     11          1           0       -2.259011    0.015992    3.655162
     12          1           0        1.902275   -1.220429    4.822926
     13          6           0        0.237503    0.460533    5.179287
     14          1           0        3.144881   -0.089857    4.102998
     15          1           0        0.877315    1.314127    5.335495
     16          1           0       -0.377595    0.183108    6.033029
 ---------------------------------------------------------------------
                    Distance matrix (angstroms):
                    1          2          3          4          5
     1  H    0.000000
     2  C    1.082981   0.000000
     3  C    2.134960   1.380529   0.000000
     4  C    2.155652   1.413743   2.438037   0.000000
     5  H    2.475644   2.150282   1.083531   3.423375   0.000000
     6  C    3.367103   2.376678   1.405453   2.759798   2.178599
     7  C    3.402572   2.438037   2.857928   1.380529   3.941096
     8  H    2.457304   2.155652   3.402572   1.082981   4.296928
     9  C    4.687086   3.755355   2.598135   4.128949   2.958573
    10  C    3.841764   2.759798   2.444127   2.376678   3.433264
    11  H    4.296928   3.423375   3.941096   2.150282   5.024384
    12  H    5.326229   4.369815   3.365701   4.536572   3.787508
    13  C    5.205143   4.128949   3.576126   3.755355   4.407016
    14  H    5.170391   4.361061   3.041926   4.967804   3.036759
    15  H    5.564541   4.536572   3.817374   4.369815   4.495410
    16  H    6.047607   4.967804   4.552939   4.361061   5.423450
                    6          7          8          9         10
     6  C    0.000000
     7  C    2.444127   0.000000
     8  H    3.841764   2.134960   0.000000
     9  C    1.423825   3.576126   5.205143   0.000000
    10  C    1.412115   1.405453   3.367103   2.268569   0.000000
    11  H    3.433264   1.083531   2.475644   4.407016   2.178599
    12  H    2.151472   3.817374   5.564541   1.078139   2.589071
    13  C    2.268569   2.598135   4.687086   2.278103   1.423825
    14  H    2.213863   4.552939   6.047607   1.088203   3.251832
    15  H    2.589071   3.365701   5.326229   2.392508   2.151472
    16  H    3.251832   3.041926   5.170391   3.148678   2.213863
                   11         12         13         14         15
    11  H    0.000000
    12  H    4.495410   0.000000
    13  C    2.958573   2.392508   0.000000
    14  H    5.423450   1.827720   3.148678   0.000000
    15  H    3.787508   2.781590   1.078139   2.938039   0.000000
    16  H    3.036759   2.938039   1.088203   4.025837   1.827720
                   16
    16  H    0.000000
 Symmetry turned off by external request.
 Stoichiometry    C8H8
 Framework group  C2[X(C8H8)]
 Deg. of freedom    22
 Full point group                 C2      NOp   2
 Rotational constants (GHZ):           3.8306242           2.2229067           1.4568655
 Standard basis: def2TZVP (5D, 7F)
 The following finite field(s) will be applied:
 An electric field of              0.0012  0.0000  0.0022
   296 basis functions,   472 primitive gaussians,   336 cartesian basis functions
    28 alpha electrons       28 beta electrons
       nuclear repulsion energy       329.7208474733 Hartrees.
 NAtoms=   16 NActive=   16 NUniq=   16 SFac= 1.00D+00 NAtFMM=   60 NAOKFM=F Big=F
 Integral buffers will be    131072 words long.
 Raffenetti 2 integral format.
 Two-electron integral symmetry is turned off.
 One-electron integrals computed using PRISM.
   1 Symmetry operations used in ECPInt.
 ECPInt:  NShTT=    7260 NPrTT=   21936 LenC2=    7161 LenP2D=   17614.
 LDataN:  DoStor=T MaxTD1= 6 Len=  172
 NBasis=   296 RedAO= T EigKep=  1.25D-05  NBF=   296
 NBsUse=   296 1.00D-06 EigRej= -1.00D+00 NBFU=   296
 The nuclear repulsion energy is now       330.4642615198 hartrees.
 ExpMin= 9.52D-02 ExpMax= 1.36D+04 ExpMxC= 4.63D+02 IAcc=3 IRadAn=         5 AccDes= 0.00D+00
 Harris functional with IExCor=  402 and IRadAn=       5 diagonalized for initial guess.
 HarFok:  IExCor=  402 AccDes= 0.00D+00 IRadAn=         5 IDoV= 1 UseB2=F ITyADJ=14
 ICtDFT=  3500011 ScaDFX=  1.000000  1.000000  1.000000  1.000000
 FoFCou: FMM=F IPFlag=           0 FMFlag=      100000 FMFlg1=           0
         NFxFlg=           0 DoJE=T BraDBF=F KetDBF=T FulRan=T
         wScrn=  0.000000 ICntrl=       500 IOpCl=  0 I1Cent=   200000004 NGrid=           0
         NMat0=    1 NMatS0=      1 NMatT0=    0 NMatD0=    1 NMtDS0=    0 NMtDT0=    0
 Symmetry not used in FoFCou.
 Requested convergence on RMS density matrix=1.00D-08 within 128 cycles.
 Requested convergence on MAX density matrix=1.00D-06.
 Requested convergence on             energy=1.00D-06.
 No special actions if energy rises.
 Integral accuracy reduced to 1.0D-05 until final iterations.
 Initial convergence to 1.0D-05 achieved.  Increase integral accuracy.
 SCF Done:  E(RB3LYP) =  -309.678544895     A.U. after   14 cycles
            NFock= 14  Conv=0.96D-08     -V/T= 2.0053
 DoSCS=F DFT=T ScalE2(SS,OS)=  1.000000  1.000000
 Range of M.O.s used for correlation:     1   296
 NBasis=   296 NAE=    28 NBE=    28 NFC=     0 NFV=     0
 NROrb=    296 NOA=    28 NOB=    28 NVA=   268 NVB=   268

 **** Warning!!: The largest alpha MO coefficient is  0.64597099D+02

   1 Symmetry operations used in ECPInt.
 ECPInt:  NShTT=    7260 NPrTT=   21936 LenC2=    7161 LenP2D=   17614.
 LDataN:  DoStor=T MaxTD1= 7 Len=  274
 Symmetrizing basis deriv contribution to polar:
 IMax=3 JMax=2 DiffMx= 0.00D+00
 G2DrvN: will do    17 centers at a time, making    1 passes.
 Calling FoFCou, ICntrl=  3107 FMM=F I1Cent=   0 AccDes= 0.00D+00.
 End of G2Drv F.D. properties file   721 does not exist.
 End of G2Drv F.D. properties file   722 does not exist.
 End of G2Drv F.D. properties file   788 does not exist.
          IDoAtm=1111111111111111
          Differentiating once with respect to nuclear coordinates.
 Keep R1 ints in memory in canonical form, NReq=985231126.
          There are    51 degrees of freedom in the 1st order CPHF.  IDoFFX=6 NUNeed=     0.
     45 vectors produced by pass  0 Test12= 1.47D-14 1.96D-09 XBig12= 1.49D-01 1.51D-01.
 AX will form    45 AO Fock derivatives at one time.
     45 vectors produced by pass  1 Test12= 1.47D-14 1.96D-09 XBig12= 1.58D-02 3.97D-02.
     45 vectors produced by pass  2 Test12= 1.47D-14 1.96D-09 XBig12= 3.42D-04 3.10D-03.
     45 vectors produced by pass  3 Test12= 1.47D-14 1.96D-09 XBig12= 1.17D-06 1.17D-04.
     45 vectors produced by pass  4 Test12= 1.47D-14 1.96D-09 XBig12= 2.23D-09 7.90D-06.
     43 vectors produced by pass  5 Test12= 1.47D-14 1.96D-09 XBig12= 3.51D-12 2.93D-07.
     10 vectors produced by pass  6 Test12= 1.47D-14 1.96D-09 XBig12= 4.12D-15 1.25D-08.
 InvSVY:  IOpt=1 It=  1 EMax= 4.16D-16
 Solved reduced A of dimension   278 with    51 vectors.
 End of Minotr F.D. properties file   721 does not exist.
 End of Minotr F.D. properties file   722 does not exist.
 End of Minotr F.D. properties file   788 does not exist.
   1 Symmetry operations used in ECPInt.
 ECPInt:  NShTT=    7260 NPrTT=   21936 LenC2=    7161 LenP2D=   17614.
 LDataN:  DoStor=T MaxTD1= 8 Len=  415
 Calling FoFJK, ICntrl=    100147 FMM=F ISym2X=0 I1Cent= 0 IOpClX= 0 NMat=1 NMatS=1 NMatT=0.
 -------------------------------------------------------------------
 Center     Atomic                   Forces (Hartrees/Bohr)
 Number     Number              X              Y              Z
 -------------------------------------------------------------------
      1        1          -0.000072387   -0.000019107    0.000212120
      2        6           0.000407807    0.000038682   -0.000094910
      3        6          -0.000007575   -0.000101893   -0.000116199
      4        6          -0.000296577   -0.000036726    0.000299333
      5        1          -0.000118168   -0.000057955   -0.000100053
      6        6           0.000036968    0.000601515   -0.000205822
      7        6          -0.000097698    0.000096455   -0.000075567
      8        1           0.000217142    0.000023993    0.000051982
      9        6           0.000166420   -0.000010654    0.000309293
     10        6          -0.000183838   -0.000604877   -0.000069058
     11        1          -0.000021817    0.000053337   -0.000154792
     12        1           0.000147484   -0.000067246   -0.000092349
     13        6           0.000170279    0.000023047    0.000309104
     14        1           0.000357082   -0.000191465   -0.000417415
     15        1          -0.000157798    0.000067497    0.000072490
     16        1          -0.000547322    0.000185398    0.000071846
 -------------------------------------------------------------------
 Cartesian Forces:  Max     0.000604877 RMS     0.000221989
 -----------------------------------------------------------------------------------------------
                       Internal Coordinate Forces (Hartree/Bohr or radian)
  Cent   Atom   N1       Length/X         N2         Alpha/Y        N3         Beta/Z          J
 -----------------------------------------------------------------------------------------------
      1  H 
      2  C        1  -0.000212(     1)
      3  C        2  -0.000236(     2)      1  -0.000604(    16)
      4  C        2   0.000227(     3)      1  -0.000735(    17)      3  -0.000473(    30)     0
      5  H        3  -0.000053(     4)      2  -0.000299(    18)      1   0.000815(    31)     0
      6  C        3  -0.000022(     5)      2  -0.000020(    19)      5   0.000915(    32)     0
      7  C        4  -0.000220(     6)      2   0.000608(    20)      1   0.000355(    33)     0
      8  H        4  -0.000212(     7)      2  -0.000149(    21)      7  -0.000028(    34)     0
      9  C        6   0.000369(     8)      3  -0.002599(    22)      2   0.000933(    35)     0
     10  C        6   0.000765(     9)      3  -0.002469(    23)      9   0.001520(    36)     0
     11  H        7  -0.000053(    10)      4  -0.000298(    24)      2  -0.000101(    37)     0
     12  H        9  -0.000030(    11)      6   0.000145(    25)      3  -0.000441(    38)     0
     13  C       10   0.000372(    12)      6   0.002580(    26)      3   0.000387(    39)     0
     14  H        9   0.000318(    13)      6  -0.000457(    27)     12  -0.000747(    40)     0
     15  H       13  -0.000030(    14)     10   0.000144(    28)      6  -0.000443(    41)     0
     16  H       13   0.000318(    15)     10  -0.000457(    29)     15  -0.000748(    42)     0
 -----------------------------------------------------------------------------------------------
 Internal  Forces:  Max     0.002599443 RMS     0.000837547

 GradGradGradGradGradGradGradGradGradGradGradGradGradGradGradGradGradGrad
 Berny optimization.
 Search for a saddle point.
 Step number   1 out of a maximum of   41
 All quantities printed in internal units (Hartrees-Bohrs-Radians)
 Swapping is turned off.
 Second derivative matrix not updated -- analytic derivatives used.
 ITU=  0
     Eigenvalues ---   -0.40731   0.01854   0.02187   0.03665   0.04782
     Eigenvalues ---    0.06381   0.08453   0.10537   0.11480   0.17639
     Eigenvalues ---    0.21511   0.23530   0.24515   0.29542   0.32969
     Eigenvalues ---    0.34211   0.40074   0.46036   0.54739   0.56377
     Eigenvalues ---    0.58484   0.68860   0.70261   0.71337   0.72308
     Eigenvalues ---    0.74415   0.90153   0.94690   2.45774   3.30573
     Eigenvalues ---   31.18976
 Eigenvectors required to have negative eigenvalues:
                          A13       D15       D12       A9        R9
   1                    0.47987  -0.42545  -0.42483  -0.39865  -0.23672
                          A10       R10       D14       D9        A6
   1                   -0.19887   0.19235  -0.16879  -0.13618   0.10655
 RFO step:  Lambda0=2.870680153D-05 Lambda=-5.35625369D-05.
 Linear search not attempted -- option 19 set.
 Variable       Old X    -DE/DX   Delta X   Delta X   Delta X     New X
                                 (Linear)    (Quad)   (Total)
    R2        2.04654  -0.00042   0.00000  -0.00057  -0.00057   2.04597
    R3        2.60882  -0.00046   0.00000  -0.00025  -0.00025   2.60857
    R4        2.67159   0.00023   0.00000  -0.00022  -0.00022   2.67137
    R5        2.04758  -0.00011   0.00000  -0.00017  -0.00017   2.04741
    R6        2.65592  -0.00002   0.00000  -0.00040  -0.00040   2.65552
    R9        2.69064   0.00074   0.00000   0.00245   0.00245   2.69309
   R10        2.66851   0.00076   0.00000  -0.00086  -0.00086   2.66765
   R12        2.03739  -0.00006   0.00000   0.00007   0.00007   2.03745
   R14        2.05641   0.00064   0.00000   0.00117   0.00117   2.05757
    A3        2.08833  -0.00060   0.00000   0.00060   0.00060   2.08893
    A4        2.07350  -0.00088   0.00000  -0.00084  -0.00084   2.07266
    A5        2.11301  -0.00060   0.00000  -0.00105  -0.00105   2.11196
    A6        2.04369  -0.00002   0.00000  -0.00017  -0.00017   2.04352
    A7        2.12056   0.00061   0.00000   0.00025   0.00025   2.12081
    A9        2.32753  -0.00260   0.00000  -0.00060  -0.00060   2.32693
   A10        2.10014  -0.00247   0.00000   0.00095   0.00095   2.10109
   A12        2.05868   0.00029   0.00000  -0.00056  -0.00056   2.05812
   A13        1.85436   0.00258   0.00000  -0.00054  -0.00054   1.85383
   A14        2.14752  -0.00091   0.00000  -0.00395  -0.00395   2.14357
    D4       -3.09936  -0.00047   0.00000   0.00015   0.00015  -3.09922
    D5       -0.02960   0.00082   0.00000  -0.00009  -0.00009  -0.02969
    D6       -3.04993   0.00092   0.00000  -0.00029  -0.00029  -3.05022
    D7       -3.10424   0.00035   0.00000  -0.00234  -0.00234  -3.10658
    D8        3.09855  -0.00003   0.00000  -0.00011  -0.00011   3.09844
    D9        2.86767   0.00093   0.00000   0.00103   0.00103   2.86869
   D10       -3.08220   0.00152   0.00000   0.00478   0.00478  -3.07742
   D11        3.06859  -0.00010   0.00000  -0.00026  -0.00026   3.06833
   D12       -2.11084  -0.00044   0.00000   0.01585   0.01585  -2.09498
   D13       -2.77584   0.00039   0.00000  -0.00471  -0.00471  -2.78055
   D14        2.73204  -0.00149   0.00000  -0.01813  -0.01813   2.71391
   D15        0.97737  -0.00044   0.00000   0.01156   0.01156   0.98892
         Item               Value     Threshold  Converged?
 Maximum Force            0.002599     0.000450     NO 
 RMS     Force            0.001018     0.000300     NO 
 Maximum Displacement     0.018135     0.001800     NO 
 RMS     Displacement     0.005061     0.001200     NO 
 Predicted change in Energy=-1.244625D-05
 GradGradGradGradGradGradGradGradGradGradGradGradGradGradGradGradGradGrad

 ---------------------------------------------------------------------------------------------------
                            Z-MATRIX (ANGSTROMS AND DEGREES)
   CD    Cent   Atom    N1       Length/X        N2       Alpha/Y        N3        Beta/Z          J
 ---------------------------------------------------------------------------------------------------
      1      1  H 
      2      2  C        1   1.082681(     1)
      3      3  C        2   1.380397(     2)      1  119.687(    16)
      4      4  C        2   1.413629(     3)      1  118.755(    17)      3 -177.572(    30)      0
      5      5  H        3   1.083441(     4)      2  121.006(    18)      1   -1.701(    31)      0
      6      6  C        3   1.405239(     5)      2  117.085(    19)      5 -174.765(    32)      0
      7      7  C        4   1.380397(     6)      2  121.513(    20)      1 -177.994(    33)      0
      8      8  H        4   1.082681(     7)      2  118.755(    21)      7  177.528(    34)      0
      9      9  C        6   1.425121(     8)      3  133.323(    22)      2  164.364(    35)      0
     10     10  C        6   1.411659(     9)      3  120.384(    23)      9 -176.323(    36)      0
     11     11  H        7   1.083441(    10)      4  121.006(    24)      2  175.802(    37)      0
     12     12  H        9   1.078175(    11)      6  117.922(    25)      3 -120.034(    38)      0
     13     13  C       10   1.425121(    12)      6  106.216(    26)      3 -159.314(    39)      0
     14     14  H        9   1.088820(    13)      6  122.817(    27)     12  155.495(    40)      0
     15     15  H       13   1.078175(    14)     10  117.922(    28)      6   56.661(    41)      0
     16     16  H       13   1.088820(    15)     10  122.817(    29)     15  155.495(    42)      0
 ---------------------------------------------------------------------------------------------------
                         Z-Matrix orientation:                         
 ---------------------------------------------------------------------
 Center     Atomic      Atomic             Coordinates (Angstroms)
 Number     Number       Type             X           Y           Z
 ---------------------------------------------------------------------
      1          1           0        0.000000    0.000000    0.000000
      2          6           0        0.000000    0.000000    1.082681
      3          6           0        1.199214    0.000000    1.766334
      4          6           0       -1.238199   -0.052503    1.762719
      5          1           0        2.143782   -0.027566    1.236357
      6          6           0        1.136598   -0.077127    3.168057
      7          6           0       -1.306672   -0.014170    3.140884
      8          1           0       -2.150908   -0.083478    1.181168
      9          6           0        2.098501   -0.381672    4.174518
     10          6           0       -0.092530    0.102108    3.838804
     11          1           0       -2.261753    0.013036    3.651693
     12          1           0        1.908821   -1.228392    4.814477
     13          6           0        0.233941    0.450702    5.181513
     14          1           0        3.144156   -0.087488    4.099740
     15          1           0        0.862064    1.312390    5.340938
     16          1           0       -0.386672    0.171080    6.031326
 ---------------------------------------------------------------------
                    Distance matrix (angstroms):
                    1          2          3          4          5
     1  H    0.000000
     2  C    1.082681   0.000000
     3  C    2.134959   1.380397   0.000000
     4  C    2.154779   1.413629   2.437982   0.000000
     5  H    2.474902   2.149460   1.083441   3.422788   0.000000
     6  C    3.366659   2.376257   1.405239   2.759573   2.179069
     7  C    3.401874   2.437990   2.858156   1.380397   3.941198
     8  H    2.455307   2.154779   3.401868   1.082681   4.295409
     9  C    4.687855   3.756174   2.598796   4.130218   2.959769
    10  C    3.841276   2.759566   2.444210   2.376256   3.433750
    11  H    4.295411   3.422794   3.941198   2.149460   5.024364
    12  H    5.322756   4.367934   3.362092   4.538687   3.781552
    13  C    5.206336   4.130168   3.577476   3.756137   4.409137
    14  H    5.167324   4.358442   3.038953   4.966682   3.033694
    15  H    5.566968   4.538532   3.822804   4.367801   4.503983
    16  H    6.046129   4.966676   4.553510   4.358450   5.425346
                    6          7          8          9         10
     6  C    0.000000
     7  C    2.444232   0.000000
     8  H    3.841284   2.134953   0.000000
     9  C    1.425121   3.577522   5.206394   0.000000
    10  C    1.411659   1.405260   3.366658   2.268780   0.000000
    11  H    3.433776   1.083441   2.474893   4.409190   2.179099
    12  H    2.152309   3.822910   5.567150   1.078175   2.593757
    13  C    2.268787   2.598800   4.687815   2.276723   1.425121
    14  H    2.213239   4.553532   6.046137   1.088820   3.252717
    15  H    2.593749   3.362055   5.322605   2.399824   2.152309
    16  H    3.252732   3.038975   5.167335   3.151087   2.213239
                   11         12         13         14         15
    11  H    0.000000
    12  H    4.504097   0.000000
    13  C    2.959796   2.399853   0.000000
    14  H    5.425375   1.827174   3.151068   0.000000
    15  H    3.781547   2.797934   1.078175   2.950961   0.000000
    16  H    3.033737   2.951022   1.088820   4.032942   1.827174
                   16
    16  H    0.000000
 Symmetry turned off by external request.
 Stoichiometry    C8H8
 Framework group  C1[X(C8H8)]
 Deg. of freedom    42
 Full point group                 C1      NOp   1
 Rotational constants (GHZ):           3.8297476           2.2228335           1.4562183
 Standard basis: def2TZVP (5D, 7F)
 The following finite field(s) will be applied:
 An electric field of              0.0012  0.0000  0.0022
   296 basis functions,   472 primitive gaussians,   336 cartesian basis functions
    28 alpha electrons       28 beta electrons
       nuclear repulsion energy       329.6873378724 Hartrees.
 NAtoms=   16 NActive=   16 NUniq=   16 SFac= 1.00D+00 NAtFMM=   60 NAOKFM=F Big=F
 Integral buffers will be    131072 words long.
 Raffenetti 2 integral format.
 Two-electron integral symmetry is turned off.
 One-electron integrals computed using PRISM.
   1 Symmetry operations used in ECPInt.
 ECPInt:  NShTT=    7260 NPrTT=   21936 LenC2=    7161 LenP2D=   17614.
 LDataN:  DoStor=T MaxTD1= 6 Len=  172
 NBasis=   296 RedAO= T EigKep=  1.23D-05  NBF=   296
 NBsUse=   296 1.00D-06 EigRej= -1.00D+00 NBFU=   296
 The nuclear repulsion energy is now       330.4304941376 hartrees.
 Initial guess from the checkpoint file:  "checkpoint.chk"
 B after Tr=     0.001407    0.007494   -0.000794
         Rot=    0.999999   -0.001091    0.000378   -0.000813 Ang=  -0.16 deg.
 Requested convergence on RMS density matrix=1.00D-08 within 128 cycles.
 Requested convergence on MAX density matrix=1.00D-06.
 Requested convergence on             energy=1.00D-06.
 No special actions if energy rises.
 SCF Done:  E(RB3LYP) =  -309.678557302     A.U. after   10 cycles
            NFock= 10  Conv=0.36D-08     -V/T= 2.0054
   1 Symmetry operations used in ECPInt.
 ECPInt:  NShTT=    7260 NPrTT=   21936 LenC2=    7161 LenP2D=   17614.
 LDataN:  DoStor=T MaxTD1= 7 Len=  274
 Calling FoFJK, ICntrl=      2127 FMM=F ISym2X=0 I1Cent= 0 IOpClX= 0 NMat=1 NMatS=1 NMatT=0.
 -------------------------------------------------------------------
 Center     Atomic                   Forces (Hartrees/Bohr)
 Number     Number              X              Y              Z
 -------------------------------------------------------------------
      1        1           0.000002459   -0.000000400    0.000000077
      2        6          -0.000001501   -0.000006920    0.000000100
      3        6           0.000002371    0.000001241    0.000000536
      4        6          -0.000000573   -0.000000121    0.000002949
      5        1           0.000000015    0.000000366   -0.000000822
      6        6           0.000002248    0.000013660    0.000002938
      7        6           0.000011704    0.000002902    0.000002729
      8        1          -0.000001652   -0.000000388    0.000001870
      9        6           0.000004851   -0.000008778   -0.000002269
     10        6          -0.000013160   -0.000004670   -0.000011770
     11        1           0.000000940   -0.000000508    0.000000604
     12        1          -0.000006268   -0.000001758    0.000001659
     13        6          -0.000006765    0.000002496    0.000006688
     14        1           0.000002031    0.000005763   -0.000001437
     15        1           0.000005136    0.000002379   -0.000005261
     16        1          -0.000001837   -0.000005261    0.000001409
 -------------------------------------------------------------------
 Cartesian Forces:  Max     0.000013660 RMS     0.000004890
 -----------------------------------------------------------------------------------------------
                       Internal Coordinate Forces (Hartree/Bohr or radian)
  Cent   Atom   N1       Length/X         N2         Alpha/Y        N3         Beta/Z          J
 -----------------------------------------------------------------------------------------------
      1  H 
      2  C        1  -0.000000(     1)
      3  C        2  -0.000014(     2)      1   0.000077(    16)
      4  C        2  -0.000005(     3)      1   0.000073(    17)      3  -0.000003(    30)     0
      5  H        3   0.000000(     4)      2  -0.000001(    18)      1   0.000010(    31)     0
      6  C        3  -0.000008(     5)      2  -0.000082(    19)      5   0.000009(    32)     0
      7  C        4   0.000003(     6)      2  -0.000036(    20)      1   0.000004(    33)     0
      8  H        4   0.000000(     7)      2   0.000005(    21)      7   0.000001(    34)     0
      9  C        6  -0.000000(     8)      3  -0.000002(    22)      2   0.000013(    35)     0
     10  C        6   0.000010(     9)      3  -0.000043(    23)      9   0.000021(    36)     0
     11  H        7  -0.000001(    10)      4   0.000002(    24)      2   0.000001(    37)     0
     12  H        9   0.000003(    11)      6  -0.000010(    25)      3   0.000001(    38)     0
     13  C       10   0.000002(    12)      6   0.000004(    26)      3  -0.000001(    39)     0
     14  H        9   0.000004(    13)      6  -0.000007(    27)     12   0.000007(    40)     0
     15  H       13   0.000004(    14)     10  -0.000012(    28)      6   0.000001(    41)     0
     16  H       13   0.000003(    15)     10  -0.000006(    29)     15   0.000006(    42)     0
 -----------------------------------------------------------------------------------------------
 Internal  Forces:  Max     0.000082337 RMS     0.000023382

 GradGradGradGradGradGradGradGradGradGradGradGradGradGradGradGradGradGrad
 Berny optimization.
 Search for a saddle point.
 Step number   2 out of a maximum of   41
 All quantities printed in internal units (Hartrees-Bohrs-Radians)
 Swapping is turned off.
 Update second derivatives using D2CorN and points    1    2
 ITU=  0  0
     Eigenvalues ---   -0.40732   0.01847   0.02187   0.03665   0.04782
     Eigenvalues ---    0.06409   0.08453   0.10538   0.11478   0.17639
     Eigenvalues ---    0.21512   0.23531   0.24515   0.29542   0.32969
     Eigenvalues ---    0.34211   0.40074   0.46036   0.54739   0.56375
     Eigenvalues ---    0.58484   0.68859   0.70260   0.71337   0.72307
     Eigenvalues ---    0.74414   0.90153   0.94691   2.45773   3.30572
     Eigenvalues ---   31.18976
 Eigenvectors required to have negative eigenvalues:
                          A13       D15       D12       A9        R9
   1                    0.47986  -0.42545  -0.42485  -0.39864  -0.23675
                          A10       R10       D14       D9        A6
   1                   -0.19885   0.19233  -0.16889  -0.13617   0.10657
 RFO step:  Lambda0=1.591587973D-12 Lambda= 0.00000000D+00.
 Linear search not attempted -- option 19 set.
 Variable       Old X    -DE/DX   Delta X   Delta X   Delta X     New X
                                 (Linear)    (Quad)   (Total)
    R2        2.04597   0.00000   0.00000   0.00000   0.00000   2.04597
    R3        2.60857  -0.00001   0.00000   0.00000   0.00000   2.60857
    R4        2.67137  -0.00001   0.00000   0.00000   0.00000   2.67137
    R5        2.04741  -0.00000   0.00000   0.00000   0.00000   2.04741
    R6        2.65552  -0.00001   0.00000   0.00000   0.00000   2.65552
    R9        2.69309   0.00000   0.00000   0.00001   0.00001   2.69310
   R10        2.66765   0.00001   0.00000   0.00000   0.00000   2.66765
   R12        2.03745   0.00001   0.00000   0.00001   0.00001   2.03746
   R14        2.05757   0.00001   0.00000   0.00001   0.00001   2.05758
    A3        2.08893   0.00008   0.00000   0.00000   0.00000   2.08893
    A4        2.07266   0.00008   0.00000   0.00000   0.00000   2.07266
    A5        2.11196   0.00000   0.00000   0.00000   0.00000   2.11196
    A6        2.04352  -0.00008   0.00000  -0.00000  -0.00000   2.04351
    A7        2.12081  -0.00004   0.00000  -0.00000  -0.00000   2.12081
    A9        2.32693  -0.00000   0.00000  -0.00001  -0.00001   2.32692
   A10        2.10109  -0.00004   0.00000   0.00001   0.00001   2.10110
   A12        2.05812  -0.00002   0.00000  -0.00003  -0.00003   2.05809
   A13        1.85383   0.00000   0.00000  -0.00000  -0.00000   1.85383
   A14        2.14357  -0.00001   0.00000  -0.00000  -0.00000   2.14357
    D4       -3.09922  -0.00000   0.00000   0.00003   0.00003  -3.09919
    D5       -0.02969   0.00001   0.00000   0.00002   0.00002  -0.02967
    D6       -3.05022   0.00001   0.00000  -0.00003  -0.00003  -3.05025
    D7       -3.10658   0.00000   0.00000  -0.00003  -0.00003  -3.10661
    D8        3.09844   0.00000   0.00000   0.00002   0.00002   3.09846
    D9        2.86869   0.00001   0.00000  -0.00012  -0.00012   2.86857
   D10       -3.07742   0.00002   0.00000   0.00021   0.00021  -3.07721
   D11        3.06833   0.00000   0.00000   0.00004   0.00004   3.06837
   D12       -2.09498   0.00000   0.00000   0.00011   0.00011  -2.09487
   D13       -2.78055  -0.00000   0.00000  -0.00013  -0.00013  -2.78068
   D14        2.71391   0.00001   0.00000   0.00013   0.00013   2.71403
   D15        0.98892   0.00000   0.00000  -0.00004  -0.00004   0.98888
         Item               Value     Threshold  Converged?
 Maximum Force            0.000082     0.000450     YES
 RMS     Force            0.000028     0.000300     YES
 Maximum Displacement     0.000209     0.001800     YES
 RMS     Displacement     0.000060     0.001200     YES
 Predicted change in Energy=-2.638732D-09
 Optimization completed.
    -- Stationary point found.
                       ----------------------------
                       !   Optimized Parameters   !
                       ! (Angstroms and Degrees)  !
 ----------------------                            ----------------------
 !      Name          Value   Derivative information (Atomic Units)     !
 ------------------------------------------------------------------------
 !       R2          1.0827   -DE/DX =    0.0                           !
 !       R3          1.3804   -DE/DX =    0.0                           !
 !       R4          1.4136   -DE/DX =    0.0                           !
 !       R5          1.0834   -DE/DX =    0.0                           !
 !       R6          1.4052   -DE/DX =    0.0                           !
 !       R9          1.4251   -DE/DX =    0.0                           !
 !       R10         1.4117   -DE/DX =    0.0                           !
 !       R12         1.0782   -DE/DX =    0.0                           !
 !       R14         1.0888   -DE/DX =    0.0                           !
 !       A3        119.6868   -DE/DX =    0.0001                        !
 !       A4        118.7546   -DE/DX =    0.0001                        !
 !       A5        121.0062   -DE/DX =    0.0                           !
 !       A6        117.0848   -DE/DX =   -0.0001                        !
 !       A7        121.5134   -DE/DX =    0.0                           !
 !       A9        133.3233   -DE/DX =    0.0                           !
 !       A10       120.3837   -DE/DX =    0.0                           !
 !       A12       117.9218   -DE/DX =    0.0                           !
 !       A13       106.2164   -DE/DX =    0.0                           !
 !       A14       122.8174   -DE/DX =    0.0                           !
 !       D4       -177.5719   -DE/DX =    0.0                           !
 !       D5         -1.701    -DE/DX =    0.0                           !
 !       D6       -174.7647   -DE/DX =    0.0                           !
 !       D7       -177.9937   -DE/DX =    0.0                           !
 !       D8        177.5277   -DE/DX =    0.0                           !
 !       D9        164.3641   -DE/DX =    0.0                           !
 !       D10      -176.3233   -DE/DX =    0.0                           !
 !       D11       175.8022   -DE/DX =    0.0                           !
 !       D12      -120.0338   -DE/DX =    0.0                           !
 !       D13      -159.3138   -DE/DX =    0.0                           !
 !       D14       155.4954   -DE/DX =    0.0                           !
 !       D15        56.6612   -DE/DX =    0.0                           !
 ------------------------------------------------------------------------
 GradGradGradGradGradGradGradGradGradGradGradGradGradGradGradGradGradGrad

 ---------------------------------------------------------------------------------------------------
                            Z-MATRIX (ANGSTROMS AND DEGREES)
   CD    Cent   Atom    N1       Length/X        N2       Alpha/Y        N3        Beta/Z          J
 ---------------------------------------------------------------------------------------------------
      1      1  H 
      2      2  C        1   1.082681(     1)
      3      3  C        2   1.380397(     2)      1  119.687(    16)
      4      4  C        2   1.413629(     3)      1  118.755(    17)      3 -177.572(    30)      0
      5      5  H        3   1.083441(     4)      2  121.006(    18)      1   -1.701(    31)      0
      6      6  C        3   1.405239(     5)      2  117.085(    19)      5 -174.765(    32)      0
      7      7  C        4   1.380397(     6)      2  121.513(    20)      1 -177.994(    33)      0
      8      8  H        4   1.082681(     7)      2  118.755(    21)      7  177.528(    34)      0
      9      9  C        6   1.425121(     8)      3  133.323(    22)      2  164.364(    35)      0
     10     10  C        6   1.411659(     9)      3  120.384(    23)      9 -176.323(    36)      0
     11     11  H        7   1.083441(    10)      4  121.006(    24)      2  175.802(    37)      0
     12     12  H        9   1.078175(    11)      6  117.922(    25)      3 -120.034(    38)      0
     13     13  C       10   1.425121(    12)      6  106.216(    26)      3 -159.314(    39)      0
     14     14  H        9   1.088820(    13)      6  122.817(    27)     12  155.495(    40)      0
     15     15  H       13   1.078175(    14)     10  117.922(    28)      6   56.661(    41)      0
     16     16  H       13   1.088820(    15)     10  122.817(    29)     15  155.495(    42)      0
 ---------------------------------------------------------------------------------------------------
                         Z-Matrix orientation:                         
 ---------------------------------------------------------------------
 Center     Atomic      Atomic             Coordinates (Angstroms)
 Number     Number       Type             X           Y           Z
 ---------------------------------------------------------------------
      1          1           0        0.000000    0.000000    0.000000
      2          6           0        0.000000    0.000000    1.082681
      3          6           0        1.199214    0.000000    1.766334
      4          6           0       -1.238199   -0.052503    1.762719
      5          1           0        2.143782   -0.027566    1.236357
      6          6           0        1.136598   -0.077127    3.168057
      7          6           0       -1.306672   -0.014170    3.140884
      8          1           0       -2.150908   -0.083478    1.181168
      9          6           0        2.098501   -0.381672    4.174518
     10          6           0       -0.092530    0.102108    3.838804
     11          1           0       -2.261753    0.013036    3.651693
     12          1           0        1.908821   -1.228392    4.814477
     13          6           0        0.233941    0.450702    5.181513
     14          1           0        3.144156   -0.087488    4.099740
     15          1           0        0.862064    1.312390    5.340938
     16          1           0       -0.386672    0.171080    6.031326
 ---------------------------------------------------------------------
                    Distance matrix (angstroms):
                    1          2          3          4          5
     1  H    0.000000
     2  C    1.082681   0.000000
     3  C    2.134959   1.380397   0.000000
     4  C    2.154779   1.413629   2.437982   0.000000
     5  H    2.474902   2.149460   1.083441   3.422788   0.000000
     6  C    3.366659   2.376257   1.405239   2.759573   2.179069
     7  C    3.401874   2.437990   2.858156   1.380397   3.941198
     8  H    2.455307   2.154779   3.401868   1.082681   4.295409
     9  C    4.687855   3.756174   2.598796   4.130218   2.959769
    10  C    3.841276   2.759566   2.444210   2.376256   3.433750
    11  H    4.295411   3.422794   3.941198   2.149460   5.024364
    12  H    5.322756   4.367934   3.362092   4.538687   3.781552
    13  C    5.206336   4.130168   3.577476   3.756137   4.409137
    14  H    5.167324   4.358442   3.038953   4.966682   3.033694
    15  H    5.566968   4.538532   3.822804   4.367801   4.503983
    16  H    6.046129   4.966676   4.553510   4.358450   5.425346
                    6          7          8          9         10
     6  C    0.000000
     7  C    2.444232   0.000000
     8  H    3.841284   2.134953   0.000000
     9  C    1.425121   3.577522   5.206394   0.000000
    10  C    1.411659   1.405260   3.366658   2.268780   0.000000
    11  H    3.433776   1.083441   2.474893   4.409190   2.179099
    12  H    2.152309   3.822910   5.567150   1.078175   2.593757
    13  C    2.268787   2.598800   4.687815   2.276723   1.425121
    14  H    2.213239   4.553532   6.046137   1.088820   3.252717
    15  H    2.593749   3.362055   5.322605   2.399824   2.152309
    16  H    3.252732   3.038975   5.167335   3.151087   2.213239
                   11         12         13         14         15
    11  H    0.000000
    12  H    4.504097   0.000000
    13  C    2.959796   2.399853   0.000000
    14  H    5.425375   1.827174   3.151068   0.000000
    15  H    3.781547   2.797934   1.078175   2.950961   0.000000
    16  H    3.033737   2.951022   1.088820   4.032942   1.827174
                   16
    16  H    0.000000
 Symmetry turned off by external request.
 Stoichiometry    C8H8
 Framework group  C1[X(C8H8)]
 Deg. of freedom    42
 Full point group                 C1      NOp   1
 Rotational constants (GHZ):           3.8297476           2.2228335           1.4562183
 1\1\GINC-BHC0005\PTS\RB3LYP\def2TZVP\C8H8\DHANAWAY\10-Jun-2022\1\\# Op
 t=(TS, CalcFC, noeigentest, Z-matrix, MaxStep=10) Field=read NoSymm B3
 LYP/Def2TZVP freq=noraman pop=none\\ts_zmat_initalOpt\\0,1\H\C,1,R2\C,
 2,R3,1,A3\C,2,R4,1,A4,3,D4,0\H,3,R5,2,A5,1,D5,0\C,3,R6,2,A6,5,D6,0\C,4
 ,R3,2,A7,1,D7,0\H,4,R2,2,A4,7,D8,0\C,6,R9,3,A9,2,D9,0\C,6,R10,3,A10,9,
 D10,0\H,7,R5,4,A5,2,D11,0\H,9,R12,6,A12,3,D12,0\C,10,R9,6,A13,3,D13,0\
 H,9,R14,6,A14,12,D14,0\H,13,R12,10,A12,6,D15,0\H,13,R14,10,A14,15,D14,
 0\\R2=1.08268067\R3=1.38039729\R4=1.41362896\R5=1.083441\R6=1.40523932
 \R9=1.42512063\R10=1.41165929\R12=1.07817454\R14=1.08882047\A3=119.686
 79091\A4=118.75456621\A5=121.00619382\A6=117.08479078\A7=121.513354\A9
 =133.32333548\A10=120.38366045\A12=117.92176686\A13=106.21639809\A14=1
 22.81737238\D4=-177.57194405\D5=-1.70103948\D6=-174.76467491\D7=-177.9
 9369387\D8=177.52766844\D9=164.36410492\D10=-176.3233026\D11=175.80221
 538\D12=-120.0337908\D13=-159.31380008\D14=155.49538108\D15=56.6611836
 6\\Version=ES64L-G16RevA.03\HF=-309.6785573\RMSD=3.559e-09\RMSF=4.890e
 -06\Dipole=-0.1183384,-0.0041239,-0.2151667\PG=C01 [X(C8H8)]\\@


 ALL PAPERS THAT YOU SAVE WILL NEVER BE NEEDED UNTIL
 SUCH TIME AS THEY ARE DISPOSED OF, WHEN THEY BECOME
 ESSENTIAL.

           -- JOHN CORCORAN IN
              PAUL DICKSON'S "THE OFFICIAL RULES"
 Job cpu time:       0 days  1 hours 40 minutes  4.0 seconds.
 Elapsed time:       0 days  0 hours  8 minutes 49.2 seconds.
 File lengths (MBytes):  RWF=    123 Int=      0 D2E=      0 Chk=     32 Scr=      1
 Normal termination of Gaussian 16 at Fri Jun 10 22:33:54 2022.
 Link1:  Proceeding to internal job step number  2.
 --------------------------------------------------------------------
 #N Geom=AllCheck Guess=TCheck SCRF=Check GenChk RB3LYP/def2TZVP Freq
 --------------------------------------------------------------------
 1/5=1,8=10,10=4,11=1,29=7,30=1,38=1,40=1/1,3;
 2/12=2,15=1,40=1/2;
 3/5=44,7=101,11=2,14=-4,25=1,30=1,70=2,71=2,74=-5,116=1,140=1/1,2,3;
 4/5=101/1;
 5/5=2,38=6,98=1/2;
 8/6=4,10=90,11=11/1;
 11/6=1,8=1,9=11,15=111,16=1,31=1/1,2,10;
 10/6=1,31=1/2;
 7/8=1,10=1,25=1,30=1/1,2,3,16;
 1/5=1,8=10,10=4,11=1,30=1/3;
 99//99;
 Structure from the checkpoint file:  "checkpoint.chk"
 -----------------
 ts_zmat_initalOpt
 -----------------
 Charge =  0 Multiplicity = 1
 Z-Matrix found in chk file.
 H
 C,1,R2
 C,2,R3,1,A3
 C,2,R4,1,A4,3,D4,0
 H,3,R5,2,A5,1,D5,0
 C,3,R6,2,A6,5,D6,0
 C,4,R3,2,A7,1,D7,0
 H,4,R2,2,A4,7,D8,0
 C,6,R9,3,A9,2,D9,0
 C,6,R10,3,A10,9,D10,0
 H,7,R5,4,A5,2,D11,0
 H,9,R12,6,A12,3,D12,0
 C,10,R9,6,A13,3,D13,0
 H,9,R14,6,A14,12,D14,0
 H,13,R12,10,A12,6,D15,0
 H,13,R14,10,A14,15,D14,0
      Variables:
 R2=1.08268067
 R3=1.38039729
 R4=1.41362896
 R5=1.083441
 R6=1.40523932
 R9=1.42512063
 R10=1.41165929
 R12=1.07817454
 R14=1.08882047
 A3=119.68679091
 A4=118.75456621
 A5=121.00619382
 A6=117.08479078
 A7=121.513354
 A9=133.32333548
 A10=120.38366045
 A12=117.92176686
 A13=106.21639809
 A14=122.81737238
 D4=-177.57194405
 D5=-1.70103948
 D6=-174.76467491
 D7=-177.99369387
 D8=177.52766844
 D9=164.36410492
 D10=-176.3233026
 D11=175.80221538
 D12=-120.0337908
 D13=-159.31380008
 D14=155.49538108
 D15=56.66118366
 Recover connectivity data from disk.

 GradGradGradGradGradGradGradGradGradGradGradGradGradGradGradGradGradGrad
 Berny optimization.
 Initialization pass.
                       ----------------------------
                       !    Initial Parameters    !
                       ! (Angstroms and Degrees)  !
 ----------------------                            ----------------------
 !      Name          Value   Derivative information (Atomic Units)     !
 ------------------------------------------------------------------------
 !       R2          1.0827   calculate D2E/DX2 analytically            !
 !       R3          1.3804   calculate D2E/DX2 analytically            !
 !       R4          1.4136   calculate D2E/DX2 analytically            !
 !       R5          1.0834   calculate D2E/DX2 analytically            !
 !       R6          1.4052   calculate D2E/DX2 analytically            !
 !       R9          1.4251   calculate D2E/DX2 analytically            !
 !       R10         1.4117   calculate D2E/DX2 analytically            !
 !       R12         1.0782   calculate D2E/DX2 analytically            !
 !       R14         1.0888   calculate D2E/DX2 analytically            !
 !       A3        119.6868   calculate D2E/DX2 analytically            !
 !       A4        118.7546   calculate D2E/DX2 analytically            !
 !       A5        121.0062   calculate D2E/DX2 analytically            !
 !       A6        117.0848   calculate D2E/DX2 analytically            !
 !       A7        121.5134   calculate D2E/DX2 analytically            !
 !       A9        133.3233   calculate D2E/DX2 analytically            !
 !       A10       120.3837   calculate D2E/DX2 analytically            !
 !       A12       117.9218   calculate D2E/DX2 analytically            !
 !       A13       106.2164   calculate D2E/DX2 analytically            !
 !       A14       122.8174   calculate D2E/DX2 analytically            !
 !       D4       -177.5719   calculate D2E/DX2 analytically            !
 !       D5         -1.701    calculate D2E/DX2 analytically            !
 !       D6       -174.7647   calculate D2E/DX2 analytically            !
 !       D7       -177.9937   calculate D2E/DX2 analytically            !
 !       D8        177.5277   calculate D2E/DX2 analytically            !
 !       D9        164.3641   calculate D2E/DX2 analytically            !
 !       D10      -176.3233   calculate D2E/DX2 analytically            !
 !       D11       175.8022   calculate D2E/DX2 analytically            !
 !       D12      -120.0338   calculate D2E/DX2 analytically            !
 !       D13      -159.3138   calculate D2E/DX2 analytically            !
 !       D14       155.4954   calculate D2E/DX2 analytically            !
 !       D15        56.6612   calculate D2E/DX2 analytically            !
 ------------------------------------------------------------------------
 Trust Radius=1.00D-01 FncErr=1.00D-07 GrdErr=1.00D-07 EigMax=2.50D+02 EigMin=1.00D-04
 Number of steps in this run=      2 maximum allowed number of steps=      2.
 Search for a saddle point of order  1.
 GradGradGradGradGradGradGradGradGradGradGradGradGradGradGradGradGradGrad

                          Input orientation:                          
 ---------------------------------------------------------------------
 Center     Atomic      Atomic             Coordinates (Angstroms)
 Number     Number       Type             X           Y           Z
 ---------------------------------------------------------------------
      1          1           0        0.000000    0.000000    0.000000
      2          6           0        0.000000    0.000000    1.082681
      3          6           0        1.199214    0.000000    1.766334
      4          6           0       -1.238199   -0.052503    1.762719
      5          1           0        2.143782   -0.027566    1.236357
      6          6           0        1.136598   -0.077127    3.168057
      7          6           0       -1.306672   -0.014170    3.140884
      8          1           0       -2.150908   -0.083478    1.181168
      9          6           0        2.098501   -0.381672    4.174518
     10          6           0       -0.092530    0.102108    3.838804
     11          1           0       -2.261753    0.013036    3.651693
     12          1           0        1.908821   -1.228392    4.814477
     13          6           0        0.233941    0.450702    5.181513
     14          1           0        3.144156   -0.087488    4.099740
     15          1           0        0.862064    1.312390    5.340938
     16          1           0       -0.386672    0.171080    6.031326
 ---------------------------------------------------------------------
                    Distance matrix (angstroms):
                    1          2          3          4          5
     1  H    0.000000
     2  C    1.082681   0.000000
     3  C    2.134959   1.380397   0.000000
     4  C    2.154779   1.413629   2.437982   0.000000
     5  H    2.474902   2.149460   1.083441   3.422788   0.000000
     6  C    3.366659   2.376257   1.405239   2.759573   2.179069
     7  C    3.401874   2.437990   2.858156   1.380397   3.941198
     8  H    2.455307   2.154779   3.401868   1.082681   4.295409
     9  C    4.687855   3.756174   2.598796   4.130218   2.959769
    10  C    3.841276   2.759566   2.444210   2.376256   3.433750
    11  H    4.295411   3.422794   3.941198   2.149460   5.024364
    12  H    5.322756   4.367934   3.362092   4.538687   3.781552
    13  C    5.206336   4.130168   3.577476   3.756137   4.409137
    14  H    5.167324   4.358442   3.038953   4.966682   3.033694
    15  H    5.566968   4.538532   3.822804   4.367801   4.503983
    16  H    6.046129   4.966676   4.553510   4.358450   5.425346
                    6          7          8          9         10
     6  C    0.000000
     7  C    2.444232   0.000000
     8  H    3.841284   2.134953   0.000000
     9  C    1.425121   3.577522   5.206394   0.000000
    10  C    1.411659   1.405260   3.366658   2.268780   0.000000
    11  H    3.433776   1.083441   2.474893   4.409190   2.179099
    12  H    2.152309   3.822910   5.567150   1.078175   2.593757
    13  C    2.268787   2.598800   4.687815   2.276723   1.425121
    14  H    2.213239   4.553532   6.046137   1.088820   3.252717
    15  H    2.593749   3.362055   5.322605   2.399824   2.152309
    16  H    3.252732   3.038975   5.167335   3.151087   2.213239
                   11         12         13         14         15
    11  H    0.000000
    12  H    4.504097   0.000000
    13  C    2.959796   2.399853   0.000000
    14  H    5.425375   1.827174   3.151068   0.000000
    15  H    3.781547   2.797934   1.078175   2.950961   0.000000
    16  H    3.033737   2.951022   1.088820   4.032942   1.827174
                   16
    16  H    0.000000
 Symmetry turned off by external request.
 Stoichiometry    C8H8
 Framework group  C1[X(C8H8)]
 Deg. of freedom    42
 Full point group                 C1      NOp   1
 Rotational constants (GHZ):           3.8297476           2.2228335           1.4562183
 Standard basis: def2TZVP (5D, 7F)
 The following finite field(s) will be applied:
 An electric field of              0.0012  0.0000  0.0022
   296 basis functions,   472 primitive gaussians,   336 cartesian basis functions
    28 alpha electrons       28 beta electrons
       nuclear repulsion energy       329.6873378724 Hartrees.
 NAtoms=   16 NActive=   16 NUniq=   16 SFac= 1.00D+00 NAtFMM=   60 NAOKFM=F Big=F
 Integral buffers will be    131072 words long.
 Raffenetti 2 integral format.
 Two-electron integral symmetry is turned off.
 One-electron integrals computed using PRISM.
   1 Symmetry operations used in ECPInt.
 ECPInt:  NShTT=    7260 NPrTT=   21936 LenC2=    7161 LenP2D=   17614.
 LDataN:  DoStor=T MaxTD1= 6 Len=  172
 NBasis=   296 RedAO= T EigKep=  1.23D-05  NBF=   296
 NBsUse=   296 1.00D-06 EigRej= -1.00D+00 NBFU=   296
 The nuclear repulsion energy is now       330.4304941376 hartrees.
 Initial guess from the checkpoint file:  "checkpoint.chk"
 B after Tr=     0.000000    0.000000    0.000000
         Rot=    1.000000    0.000000    0.000000    0.000000 Ang=   0.00 deg.
 Requested convergence on RMS density matrix=1.00D-08 within 128 cycles.
 Requested convergence on MAX density matrix=1.00D-06.
 Requested convergence on             energy=1.00D-06.
 No special actions if energy rises.
 SCF Done:  E(RB3LYP) =  -309.678557302     A.U. after    1 cycles
            NFock=  1  Conv=0.16D-08     -V/T= 2.0054
 DoSCS=F DFT=T ScalE2(SS,OS)=  1.000000  1.000000
 Range of M.O.s used for correlation:     1   296
 NBasis=   296 NAE=    28 NBE=    28 NFC=     0 NFV=     0
 NROrb=    296 NOA=    28 NOB=    28 NVA=   268 NVB=   268

 **** Warning!!: The largest alpha MO coefficient is  0.64689938D+02

   1 Symmetry operations used in ECPInt.
 ECPInt:  NShTT=    7260 NPrTT=   21936 LenC2=    7161 LenP2D=   17614.
 LDataN:  DoStor=T MaxTD1= 7 Len=  274
 Symmetrizing basis deriv contribution to polar:
 IMax=3 JMax=2 DiffMx= 0.00D+00
 G2DrvN: will do    17 centers at a time, making    1 passes.
 Calling FoFCou, ICntrl=  3107 FMM=F I1Cent=   0 AccDes= 0.00D+00.
 End of G2Drv F.D. properties file   721 does not exist.
 End of G2Drv F.D. properties file   722 does not exist.
 End of G2Drv F.D. properties file   788 does not exist.
          IDoAtm=1111111111111111
          Differentiating once with respect to electric field.
                with respect to dipole field.
          Differentiating once with respect to nuclear coordinates.
 Keep R1 ints in memory in canonical form, NReq=985231126.
          There are    51 degrees of freedom in the 1st order CPHF.  IDoFFX=6 NUNeed=     3.
     48 vectors produced by pass  0 Test12= 1.47D-14 1.96D-09 XBig12= 2.10D+02 9.62D+00.
 AX will form    48 AO Fock derivatives at one time.
     48 vectors produced by pass  1 Test12= 1.47D-14 1.96D-09 XBig12= 4.94D+01 1.26D+00.
     48 vectors produced by pass  2 Test12= 1.47D-14 1.96D-09 XBig12= 7.30D-01 1.34D-01.
     48 vectors produced by pass  3 Test12= 1.47D-14 1.96D-09 XBig12= 1.59D-03 4.21D-03.
     48 vectors produced by pass  4 Test12= 1.47D-14 1.96D-09 XBig12= 2.78D-06 1.88D-04.
     43 vectors produced by pass  5 Test12= 1.47D-14 1.96D-09 XBig12= 4.60D-09 8.25D-06.
     10 vectors produced by pass  6 Test12= 1.47D-14 1.96D-09 XBig12= 6.77D-12 3.79D-07.
      3 vectors produced by pass  7 Test12= 1.47D-14 1.96D-09 XBig12= 6.63D-15 9.72D-09.
 InvSVY:  IOpt=1 It=  1 EMax= 1.24D-14
 Solved reduced A of dimension   296 with    51 vectors.
 Isotropic polarizability for W=    0.000000       98.26 Bohr**3.
 End of Minotr F.D. properties file   721 does not exist.
 End of Minotr F.D. properties file   722 does not exist.
 End of Minotr F.D. properties file   788 does not exist.
   1 Symmetry operations used in ECPInt.
 ECPInt:  NShTT=    7260 NPrTT=   21936 LenC2=    7161 LenP2D=   17614.
 LDataN:  DoStor=T MaxTD1= 8 Len=  415
 Calling FoFJK, ICntrl=    100127 FMM=F ISym2X=0 I1Cent= 0 IOpClX= 0 NMat=1 NMatS=1 NMatT=0.
 Full mass-weighted force constant matrix:
 Low frequencies --- -626.9251   -5.5838   -4.4757    0.0003    0.0005    0.0007
 Low frequencies ---    3.5208  224.8050  225.9354
 ******    1 imaginary frequencies (negative Signs) ****** 
 Diagonal vibrational polarizability:
        2.5286078       7.0364923       4.2432901
 Harmonic frequencies (cm**-1), IR intensities (KM/Mole), Raman scattering
 activities (A**4/AMU), depolarization ratios for plane and unpolarized
 incident light, reduced masses (AMU), force constants (mDyne/A),
 and normal coordinates:
                      1                      2                      3
                      A                      A                      A
 Frequencies --   -626.9251               224.8050               225.9346
 Red. masses --      2.1697                 2.8765                 3.2451
 Frc consts  --      0.5024                 0.0856                 0.0976
 IR Inten    --      7.4688                 0.9422                 5.0750
  Atom  AN      X      Y      Z        X      Y      Z        X      Y      Z
     1   1    -0.02   0.01  -0.01     0.00  -0.25  -0.02     0.00  -0.36  -0.02
     2   6    -0.03  -0.00  -0.01    -0.00  -0.12  -0.02     0.01  -0.15  -0.02
     3   6    -0.00  -0.03   0.00    -0.01  -0.14  -0.01     0.01   0.11  -0.02
     4   6     0.00   0.00  -0.03    -0.01   0.13  -0.02     0.02  -0.15   0.01
     5   1    -0.00  -0.04   0.00    -0.01  -0.26  -0.00     0.01   0.09  -0.01
     6   6    -0.05   0.00  -0.05     0.00   0.02   0.01    -0.00   0.21  -0.01
     7   6     0.00   0.03  -0.00    -0.00   0.14  -0.02     0.02   0.12  -0.00
     8   1    -0.00  -0.02  -0.02    -0.02   0.26  -0.01     0.02  -0.35   0.02
     9   6    -0.12   0.07   0.16     0.11   0.19  -0.04    -0.07  -0.11  -0.05
    10   6    -0.01  -0.00  -0.07     0.01  -0.03   0.01     0.01   0.21   0.00
    11   1     0.00   0.04  -0.00     0.00   0.25  -0.02     0.02   0.10  -0.01
    12   1     0.08  -0.32  -0.28     0.30   0.18   0.00    -0.23  -0.22  -0.24
    13   6     0.21  -0.07  -0.01    -0.09  -0.18   0.08     0.01  -0.12   0.09
    14   1    -0.17   0.31   0.36     0.05   0.39  -0.11    -0.00  -0.31   0.03
    15   1    -0.28   0.31  -0.10    -0.16  -0.17   0.25     0.07  -0.21   0.34
    16   1     0.40  -0.30   0.06    -0.11  -0.38  -0.01    -0.02  -0.32  -0.00
                      4                      5                      6
                      A                      A                      A
 Frequencies --    397.0704               432.5795               525.9266
 Red. masses --      2.7301                 3.0019                 3.1271
 Frc consts  --      0.2536                 0.3310                 0.5096
 IR Inten    --      6.1623                 5.3584                 1.2509
  Atom  AN      X      Y      Z        X      Y      Z        X      Y      Z
     1   1    -0.15   0.05   0.01    -0.07  -0.07   0.06    -0.01  -0.50   0.06
     2   6    -0.08   0.06   0.01    -0.06  -0.08   0.06     0.05  -0.20   0.06
     3   6     0.00  -0.10  -0.10    -0.00   0.18  -0.01     0.08   0.10  -0.01
     4   6    -0.05   0.06   0.06    -0.08  -0.08   0.02     0.02   0.20   0.06
     5   1    -0.08  -0.31  -0.23    -0.06   0.53  -0.13     0.08   0.05  -0.01
     6   6     0.14   0.08  -0.06     0.11  -0.12  -0.01     0.02   0.16  -0.03
     7   6     0.09  -0.10   0.05     0.01   0.18   0.00    -0.05  -0.10   0.06
     8   1    -0.09   0.05   0.12    -0.08  -0.07   0.03     0.04   0.50   0.01
     9   6    -0.03  -0.01   0.13     0.05  -0.02   0.11    -0.07  -0.01  -0.04
    10   6     0.12   0.08  -0.09     0.07  -0.13  -0.09    -0.03  -0.16   0.00
    11   1     0.16  -0.30   0.20     0.07   0.53   0.10    -0.05  -0.05   0.06
    12   1    -0.25  -0.03   0.03     0.04  -0.02   0.11    -0.23  -0.10  -0.20
    13   6    -0.12  -0.01  -0.05    -0.07  -0.02  -0.10     0.01   0.01  -0.08
    14   1     0.02  -0.11   0.40     0.03   0.09   0.27    -0.02  -0.18   0.05
    15   1    -0.16  -0.03   0.20    -0.07  -0.02  -0.09    -0.05   0.09  -0.30
    16   1    -0.33  -0.12  -0.23    -0.21   0.08  -0.17     0.05   0.19   0.01
                      7                      8                      9
                      A                      A                      A
 Frequencies --    577.5412               593.6010               653.8726
 Red. masses --      5.1833                 4.0366                 1.2855
 Frc consts  --      1.0187                 0.8380                 0.3238
 IR Inten    --      0.0227                 4.6447                19.8856
  Atom  AN      X      Y      Z        X      Y      Z        X      Y      Z
     1   1    -0.09   0.20   0.20     0.16  -0.17   0.19    -0.01  -0.02  -0.02
     2   6     0.13   0.09   0.20    -0.02   0.03   0.19     0.01  -0.02  -0.02
     3   6     0.23  -0.07  -0.04     0.00  -0.02   0.18     0.01   0.01  -0.04
     4   6     0.10  -0.09   0.22    -0.17   0.03  -0.09    -0.02   0.02  -0.00
     5   1     0.25  -0.10  -0.01    -0.06  -0.31   0.08     0.00   0.07  -0.06
     6   6    -0.07  -0.09  -0.12     0.09   0.10   0.12     0.01  -0.03  -0.00
     7   6    -0.16   0.07   0.17    -0.15  -0.03  -0.10    -0.04  -0.01  -0.01
     8   1     0.22  -0.20   0.04    -0.07  -0.18  -0.24    -0.01   0.02  -0.02
     9   6    -0.11   0.06  -0.14     0.17  -0.05   0.03    -0.06   0.06   0.04
    10   6    -0.07   0.08  -0.12    -0.05   0.10  -0.14    -0.01   0.03   0.01
    11   1    -0.14   0.11   0.20    -0.10  -0.31   0.02    -0.05  -0.07  -0.03
    12   1     0.06   0.08  -0.06     0.29  -0.20  -0.12    -0.27   0.42   0.45
    13   6    -0.06  -0.06  -0.17     0.07  -0.06  -0.16     0.07  -0.06  -0.03
    14   1    -0.16   0.22  -0.25     0.14   0.07  -0.01    -0.04   0.00   0.17
    15   1    -0.08  -0.08   0.02     0.26  -0.20  -0.17     0.53  -0.41   0.02
    16   1    -0.12  -0.23  -0.26     0.08   0.06  -0.11     0.17  -0.00   0.06
                     10                     11                     12
                      A                      A                      A
 Frequencies --    660.9429               745.6984               773.1163
 Red. masses --      1.0943                 3.1885                 1.2352
 Frc consts  --      0.2816                 1.0446                 0.4350
 IR Inten    --      3.2177                 5.1294                55.7252
  Atom  AN      X      Y      Z        X      Y      Z        X      Y      Z
     1   1    -0.02  -0.16  -0.04    -0.03   0.16  -0.00    -0.01   0.52   0.00
     2   6     0.00   0.01  -0.04    -0.00   0.15  -0.00     0.00  -0.05  -0.00
     3   6    -0.01   0.02  -0.02     0.01  -0.13  -0.03    -0.01  -0.07   0.01
     4   6     0.03   0.01   0.02     0.00  -0.15   0.00     0.00  -0.05   0.00
     5   1     0.00  -0.16   0.01    -0.01  -0.38  -0.06     0.02   0.35   0.03
     6   6    -0.03  -0.01  -0.02     0.06   0.23   0.00     0.00   0.05   0.01
     7   6     0.01   0.02   0.01    -0.03   0.13  -0.01    -0.01  -0.07   0.00
     8   1     0.02  -0.16   0.04     0.02  -0.16  -0.02    -0.02   0.52  -0.00
     9   6    -0.02  -0.01   0.00    -0.00   0.04  -0.00     0.01  -0.00   0.01
    10   6     0.00  -0.01   0.03    -0.02  -0.23   0.06    -0.01   0.05  -0.01
    11   1    -0.00  -0.16  -0.00    -0.05   0.37  -0.06    -0.02   0.35  -0.04
    12   1     0.20  -0.25  -0.24    -0.33   0.06  -0.09     0.07  -0.17  -0.20
    13   6    -0.01  -0.01   0.01    -0.00  -0.04  -0.00     0.00  -0.00  -0.01
    14   1    -0.13   0.45   0.24     0.09  -0.27   0.17    -0.01   0.11   0.09
    15   1     0.32  -0.25  -0.03     0.11  -0.06  -0.33     0.20  -0.17   0.05
    16   1    -0.28   0.45  -0.03     0.09   0.27   0.16    -0.08   0.11  -0.04
                     13                     14                     15
                      A                      A                      A
 Frequencies --    815.7416               859.0759               879.4639
 Red. masses --      3.6653                 1.3039                 1.5283
 Frc consts  --      1.4370                 0.5670                 0.6965
 IR Inten    --      0.1739                 9.6567                14.5292
  Atom  AN      X      Y      Z        X      Y      Z        X      Y      Z
     1   1     0.19  -0.06   0.05    -0.00   0.29  -0.00    -0.05  -0.16  -0.07
     2   6    -0.01   0.02   0.05     0.01  -0.05  -0.00    -0.00   0.02  -0.07
     3   6    -0.16   0.01   0.21    -0.00  -0.08  -0.01    -0.03  -0.01  -0.00
     4   6     0.04  -0.02   0.02    -0.01   0.05   0.01     0.06   0.03   0.04
     5   1    -0.09  -0.18   0.35     0.03   0.52   0.01    -0.01   0.06   0.04
     6   6    -0.09   0.01   0.05     0.00   0.01   0.01    -0.00  -0.02   0.02
     7   6     0.26  -0.00  -0.02    -0.01   0.08  -0.01    -0.02  -0.01   0.03
     8   1    -0.06   0.06   0.19     0.00  -0.29   0.01     0.04  -0.15   0.09
     9   6    -0.16   0.08  -0.08    -0.02   0.06   0.02     0.02   0.07   0.10
    10   6     0.09  -0.01  -0.05     0.01  -0.01   0.01    -0.02  -0.02  -0.01
    11   1     0.34   0.18   0.11     0.01  -0.52   0.04    -0.04   0.06  -0.02
    12   1    -0.17   0.15   0.00    -0.04  -0.04  -0.12     0.15  -0.31  -0.34
    13   6     0.02  -0.08  -0.17     0.03  -0.05  -0.00    -0.08   0.07  -0.07
    14   1    -0.14  -0.08  -0.31     0.06  -0.27  -0.19     0.12  -0.34  -0.27
    15   1     0.10  -0.16  -0.14    -0.08   0.04  -0.10     0.38  -0.30   0.07
    16   1    -0.19   0.07  -0.28    -0.20   0.26  -0.06     0.30  -0.33   0.06
                     16                     17                     18
                      A                      A                      A
 Frequencies --    885.5166               890.9891               950.6886
 Red. masses --      3.3062                 1.5882                 1.3610
 Frc consts  --      1.5275                 0.7429                 0.7247
 IR Inten    --      1.8294                40.3882                 5.7927
  Atom  AN      X      Y      Z        X      Y      Z        X      Y      Z
     1   1     0.11   0.04   0.21     0.02   0.21   0.02     0.05  -0.44   0.02
     2   6     0.00  -0.00   0.21    -0.00  -0.04   0.02     0.00   0.07   0.02
     3   6     0.13   0.00  -0.02    -0.03  -0.06   0.04     0.00  -0.10   0.00
     4   6    -0.18  -0.01  -0.11     0.02   0.04   0.01    -0.01   0.07  -0.01
     5   1     0.04  -0.05  -0.17     0.00   0.27   0.08     0.02   0.52   0.01
     6   6     0.02  -0.07  -0.08    -0.01   0.06  -0.00    -0.00   0.01  -0.00
     7   6     0.08   0.00  -0.10     0.05   0.06  -0.00    -0.00  -0.10  -0.00
     8   1    -0.12   0.03  -0.21     0.01  -0.21   0.04     0.02  -0.44  -0.03
     9   6    -0.14   0.10  -0.05     0.01  -0.09  -0.08    -0.00  -0.00  -0.03
    10   6     0.08  -0.07   0.03     0.00  -0.06  -0.01     0.00   0.01   0.00
    11   1     0.16  -0.04   0.06     0.07  -0.27   0.06    -0.01   0.51  -0.04
    12   1    -0.09  -0.21  -0.45    -0.06   0.06   0.09    -0.08   0.03  -0.02
    13   6    -0.03   0.10   0.14    -0.08   0.09  -0.04     0.03  -0.00   0.02
    14   1    -0.09  -0.08  -0.18    -0.11   0.42   0.38    -0.01   0.05   0.12
    15   1     0.34  -0.20   0.32     0.11  -0.06  -0.00    -0.03   0.03   0.08
    16   1     0.11  -0.08   0.18     0.39  -0.41   0.13    -0.11   0.05  -0.06
                     19                     20                     21
                      A                      A                      A
 Frequencies --    986.1796              1009.6391              1015.9861
 Red. masses --      1.2933                 1.4691                 2.1577
 Frc consts  --      0.7411                 0.8823                 1.3123
 IR Inten    --      0.3858                 2.5123                 0.0028
  Atom  AN      X      Y      Z        X      Y      Z        X      Y      Z
     1   1     0.04  -0.59  -0.01     0.13   0.04  -0.02    -0.22  -0.09   0.18
     2   6     0.00   0.10  -0.01     0.02  -0.01  -0.02    -0.07   0.00   0.16
     3   6     0.00  -0.06  -0.00    -0.07   0.02   0.06    -0.10   0.00  -0.01
     4   6    -0.01  -0.10   0.00     0.03  -0.01  -0.01     0.18   0.00   0.03
     5   1     0.03   0.37   0.03    -0.02  -0.11   0.15    -0.29   0.05  -0.33
     6   6    -0.00   0.00   0.01    -0.00  -0.05  -0.03     0.01  -0.07  -0.04
     7   6    -0.00   0.06  -0.00    -0.09   0.02   0.02     0.05  -0.00  -0.08
     8   1    -0.04   0.59   0.01     0.08   0.04  -0.10     0.27   0.10  -0.10
     9   6    -0.01  -0.01  -0.00     0.05   0.06  -0.06     0.05   0.04  -0.02
    10   6     0.01  -0.00   0.00     0.03  -0.05   0.02    -0.05   0.07  -0.01
    11   1     0.01  -0.37   0.05    -0.14  -0.11  -0.06    -0.12  -0.07  -0.42
    12   1     0.03  -0.00   0.02    -0.39   0.01  -0.25    -0.21  -0.01  -0.17
    13   6     0.00   0.01  -0.01     0.07   0.06  -0.01    -0.04  -0.04   0.03
    14   1    -0.02   0.04  -0.01     0.13  -0.15   0.41     0.11  -0.13   0.25
    15   1     0.00   0.00   0.03     0.00   0.02   0.46    -0.03   0.01  -0.27
    16   1     0.00  -0.04  -0.02    -0.28  -0.17  -0.33     0.15   0.14   0.22
                     22                     23                     24
                      A                      A                      A
 Frequencies --   1042.2295              1145.4641              1181.9093
 Red. masses --      1.5542                 1.4795                 1.1032
 Frc consts  --      0.9947                 1.1437                 0.9080
 IR Inten    --     12.8473                 0.6855                 0.0004
  Atom  AN      X      Y      Z        X      Y      Z        X      Y      Z
     1   1    -0.13   0.03   0.07     0.48   0.02  -0.01     0.59   0.02  -0.01
     2   6    -0.02  -0.01   0.07     0.06  -0.00  -0.01     0.06   0.00  -0.01
     3   6    -0.04  -0.01  -0.04    -0.11  -0.00   0.01    -0.01  -0.00  -0.01
     4   6     0.07   0.01   0.01     0.04  -0.00  -0.04    -0.04   0.00   0.05
[...]

 Dipole orientation:
     1          0.00000000          0.00000000         -0.00000000
     6         -0.98583435          0.03435615         -1.79246851
     6          0.37740560          0.06582367         -4.01625780
     6         -3.65490970          0.14504621         -1.78922106
     1          2.42428042          0.10878832         -3.99803740
     6         -1.00198869          0.25552060         -6.27746531
     6         -5.02349154          0.11579234         -4.00975706
     1         -4.63645089          0.17767801          0.00563412
     6         -0.32315513          0.87071714         -8.80994226
     6         -3.64947080         -0.07186738         -6.27444840
     1         -7.07031683          0.07281341         -3.98665902
     1         -1.21305328          2.48930761         -9.66986517
     6         -4.33432153         -0.68524613         -8.80574594
     1          1.47400308          0.32102251         -9.64759533
     1         -3.44641974         -2.30317729         -9.66896689
     1         -6.13349225         -0.13500896         -9.63870949

 Electric dipole moment (dipole orientation):
 (Debye = 10**-18 statcoulomb cm , SI units = C m)
                  (au)            (Debye)         (10**-30 SI)
   Tot        0.245597D+00      0.624246D+00      0.208226D+01
   x          0.000000D+00      0.000000D+00      0.000000D+00
   y          0.000000D+00      0.000000D+00      0.000000D+00
   z          0.245597D+00      0.624246D+00      0.208226D+01

 Dipole polarizability, Alpha (dipole orientation).
 (esu units = cm**3 , SI units = C**2 m**2 J**-1)
 Alpha(0;0):
               (au)            (10**-24 esu)      (10**-40 SI)
   iso        0.982561D+02      0.145600D+02      0.162002D+02
   aniso      0.636032D+02      0.942502D+01      0.104867D+02
   xx         0.111802D+03      0.165674D+02      0.184337D+02
   yx         0.724559D+01      0.107369D+01      0.119464D+01
   yy         0.574487D+02      0.851302D+01      0.947202D+01
   zx         0.191508D-01      0.283786D-02      0.315754D-02
   zy        -0.386046D-01     -0.572061D-02     -0.636504D-02
   zz         0.125517D+03      0.185997D+02      0.206950D+02

 ----------------------------------------------------------------------
 1\1\GINC-BHC0005\Freq\RB3LYP\def2TZVP\C8H8\DHANAWAY\10-Jun-2022\1\\#N 
 Geom=AllCheck Guess=TCheck SCRF=Check GenChk RB3LYP/def2TZVP Freq\\ts_
 zmat_initalOpt\\0,1\H\C,1,R2\C,2,R3,1,A3\C,2,R4,1,A4,3,D4,0\H,3,R5,2,A
 5,1,D5,0\C,3,R6,2,A6,5,D6,0\C,4,R3,2,A7,1,D7,0\H,4,R2,2,A4,7,D8,0\C,6,
 R9,3,A9,2,D9,0\C,6,R10,3,A10,9,D10,0\H,7,R5,4,A5,2,D11,0\H,9,R12,6,A12
 ,3,D12,0\C,10,R9,6,A13,3,D13,0\H,9,R14,6,A14,12,D14,0\H,13,R12,10,A12,
 6,D15,0\H,13,R14,10,A14,15,D14,0\\R2=1.08268067\R3=1.38039729\R4=1.413
 62896\R5=1.083441\R6=1.40523932\R9=1.42512063\R10=1.41165929\R12=1.078
 17454\R14=1.08882047\A3=119.68679091\A4=118.75456621\A5=121.00619382\A
 6=117.08479078\A7=121.513354\A9=133.32333548\A10=120.38366045\A12=117.
 92176686\A13=106.21639809\A14=122.81737238\D4=-177.57194405\D5=-1.7010
 3948\D6=-174.76467491\D7=-177.99369387\D8=177.52766844\D9=164.36410492
 \D10=-176.3233026\D11=175.80221538\D12=-120.0337908\D13=-159.31380008\
 D14=155.49538108\D15=56.66118366\\Version=ES64L-G16RevA.03\HF=-309.678
 5573\RMSD=1.630e-09\RMSF=4.895e-06\ZeroPoint=0.1306238\Thermal=0.13667
 8\Dipole=-0.1183391,-0.0041241,-0.215167\DipoleDeriv=0.0718262,-0.0012
 75,-0.0035927,-0.0153185,0.1370418,0.0096255,0.0046842,0.0009194,-0.08
 39751,-0.0799616,0.0030759,-0.1143559,-0.006996,-0.1339286,-0.0111301,
 -0.0508713,-0.000121,0.0733158,0.1241597,-0.0228209,-0.0793216,0.01176
 53,-0.1280387,0.0411516,-0.0630225,0.0173757,0.0605191,0.1036791,0.007
 4209,0.066066,0.009467,-0.1334401,0.0136114,0.0027803,-0.0019119,-0.11
 09372,-0.0589256,0.0042217,0.0844527,0.0431817,0.1258686,0.0030193,0.0
 39378,0.0037624,0.025614,-0.1873427,-0.0464906,0.1205568,-0.1453253,-0
 .0374426,-0.1741312,0.0943033,-0.0523887,0.0171228,0.1442283,-0.024099
 3,-0.04951,-0.0260312,-0.129356,-0.0279458,-0.0664996,0.0137325,0.0418
 447,-0.0390686,-0.0061191,-0.0662283,-0.0212588,0.136816,0.0035574,-0.
 0739656,-0.0037199,0.0271899,0.1132117,0.1339053,-0.1267056,-0.006089,
 -0.0261508,-0.0311172,-0.2042656,-0.0246874,-0.0179206,-0.1407368,0.02
 09799,0.1208761,0.0713114,-0.0277626,0.2180346,0.1480313,0.069741,-0.0
 390547,-0.0551761,-0.0025365,0.0425673,0.0203548,0.1248445,-0.0403094,
 0.086469,-0.0071613,0.0229484,-0.0467473,-0.0314225,-0.0336356,0.03522
 89,-0.0094233,0.0250402,-0.0123354,0.0401954,0.0485491,0.1682077,0.090
 9957,-0.1710475,0.02344,-0.026671,0.017812,-0.0895531,-0.1024222,-0.07
 23885,-0.1781616,-0.0384764,-0.0738793,0.04065,0.0708771,0.0666515,0.1
 108545,0.0284615,0.1198001,0.042636,-0.0486724,0.0462433,-0.0006887,-0
 .0113633,-0.0432991,0.0228033,0.0044229,-0.0389608,0.0181716,-0.038686
 7,0.2375143,-0.0336915,0.0681291,-0.0705707,0.051209,0.0138017,-0.0736
 67\Polar=115.0242866,-6.0216004,57.530123,5.8674024,4.5709427,122.2138
 392\PG=C01 [X(C8H8)]\NImag=1\\0.05930338,0.00117205,0.02515775,0.00004
 636,-0.00026480,0.35711131,-0.05889075,-0.00136654,0.00031832,0.638930
 08,-0.00092466,-0.03550814,0.00040102,0.01152924,0.13273038,0.00042824
 ,-0.00036524,-0.33638493,0.03122738,-0.00381785,0.72760943,0.00362115,
 0.00197590,0.00177193,-0.30046812,-0.00283972,-0.12817380,0.73101131,-
 0.00051209,0.00287670,-0.00016630,-0.00065815,-0.05849349,-0.00298910,
 -0.01326323,0.13053800,-0.02892992,0.00001807,-0.01200945,-0.06723118,
 -0.00537779,-0.18191538,-0.03301710,-0.01478678,0.64096011,0.00364685,
 -0.00076222,-0.00214819,-0.24344559,-0.00861096,0.09722187,-0.05772926
 ,0.00209242,-0.02435089,0.67322610,0.00003850,0.00214141,-0.00020616,-
 0.01021227,-0.06345995,0.00364404,-0.00017749,0.00727879,0.00242932,0.
 01944073,0.13326049,0.02882295,0.00194556,-0.01118129,0.03172654,0.004
 34701,-0.16162913,0.01942065,-0.00149996,0.05687292,0.05297090,0.00917
 641,0.69284041,0.00109888,-0.00039454,-0.00022316,-0.01911723,0.000825
 48,0.01598827,-0.26610050,0.00712961,0.11636826,-0.00242385,0.00048271
 ,-0.00428606,0.28240878,-0.00008831,-0.00457852,-0.00006376,-0.0014968
 1,0.00291684,-0.00082514,0.00949518,-0.03534553,0.00095768,0.00020295,
 0.00824268,-0.00080520,-0.00745858,0.02413142,0.00055161,-0.00003490,0
 .00090878,-0.01499870,0.00046800,0.01195267,0.11894339,-0.00175715,-0.
 12636433,-0.00302136,0.00002090,-0.00089418,-0.12826529,0.00286813,0.1
 2797246,-0.00513835,0.00189258,-0.00308060,0.01057864,0.00293763,-0.03
 578183,-0.12227537,-0.01391729,0.01718563,-0.00702812,-0.00203269,0.00
 987393,0.00270285,-0.00229004,0.02982425,0.59401629,0.00014500,0.00823
 507,0.00015803,-0.00033153,0.00546893,0.00398648,0.00281031,-0.0600354
 4,0.01764650,-0.00191850,-0.00619645,-0.00194019,0.00024981,0.00310716
 ,-0.00172727,-0.06683105,0.18090673,-0.00286572,0.00065950,0.00049234,
 -0.07459184,0.00536135,-0.03560314,0.03853357,0.00894016,-0.28701141,0
 .03045455,-0.00101880,-0.04368864,-0.00008495,-0.00462281,-0.00877570,
 0.00283702,-0.04431647,0.71099664,-0.00454751,-0.00087053,0.00273996,0
 .02596106,-0.00102049,0.02908956,-0.01174224,0.00037173,-0.02102800,-0
 .12766420,0.00314570,0.04290736,0.00023123,0.00082213,-0.00065696,-0.0
 4024610,-0.00101231,0.01376930,0.69659546,-0.00041785,0.00516497,0.000
 07828,0.00476829,0.00723821,-0.00147550,-0.00237333,-0.00274255,-0.002
 83446,0.00056925,-0.05847362,-0.00563125,0.00003361,-0.00042181,-0.000
 04611,0.01273214,0.00670325,0.00335416,0.01266305,0.13237252,0.0022298
 4,-0.00081662,0.00056137,0.07270524,-0.00099585,-0.02677753,-0.0261157
 8,0.00199466,-0.04182369,-0.01802807,-0.00347263,-0.35477486,-0.000293
 48,0.00072338,-0.00092284,-0.01159086,0.00284070,0.05275970,-0.0554661
 0,0.03380923,0.67351856,0.00097617,0.00016069,0.00024161,-0.01895122,-
 0.00061060,-0.01656497,-0.00316630,-0.00031821,0.00361069,-0.25641576,
 -0.00790045,-0.12554104,-0.00099770,0.00002214,-0.00075294,0.00041826,
 0.00004920,0.00109183,0.00480846,-0.00003125,0.00256732,0.27087359,0.0
 0019030,-0.00292730,0.00001142,-0.00196673,0.00210397,-0.00039554,0.00
 017794,0.00520258,0.00105588,-0.00749164,-0.03572716,-0.00357685,-0.00
 015331,0.00018727,-0.00015855,-0.00147582,-0.00040606,0.00008374,0.000
 27234,0.00283425,-0.00209335,0.00857573,0.02541880,-0.00047672,-0.0000
 6651,0.00083272,0.01444633,0.00057177,0.01145573,0.00310015,0.00018673
 ,-0.00085759,-0.12542952,-0.00435751,-0.13865455,0.00075419,-0.0000916
 9,0.00036058,0.00029996,0.00015879,-0.00082556,-0.02818737,-0.00038048
 ,-0.01315373,0.13484670,0.00471063,0.14529192,0.00067451,0.00016256,0.
 00040595,0.00242187,0.00083198,0.00413053,0.00834087,0.00314282,-0.007
 41048,-0.00053971,-0.00055953,-0.00132845,0.00054310,-0.00028512,-0.00
 029023,-0.19954668,0.02190308,-0.10987340,0.00011073,0.00342525,0.0047
 3796,0.00007916,-0.00013552,-0.00026697,0.58383199,0.00031443,0.000695
 05,0.00014406,-0.00140797,0.00606875,-0.00019175,0.00568774,0.00020221
 ,0.00356141,0.00130435,-0.00111650,-0.00013263,0.00021223,-0.00305773,
 -0.00047516,0.03371936,-0.07260521,0.05212033,-0.00072164,0.00379388,-
 0.00077080,0.00000987,-0.00065600,-0.00009009,0.08759890,0.37121703,-0
 .00018422,-0.00159586,-0.00015717,0.02167778,-0.00172285,-0.00138594,-
 0.02548747,0.01956559,-0.03733211,-0.00882869,0.00086745,0.01286887,0.
 00017596,0.00095970,0.00123172,-0.09025921,0.04811433,-0.16545588,-0.0
 0545153,-0.00927082,-0.00927812,-0.00024013,0.00122444,0.00033276,0.10
 841403,-0.22930077,0.35700056,-0.00108206,-0.00087007,0.00015231,-0.05
 136229,-0.00087488,0.00217315,0.02485546,0.00588215,0.05516333,0.02787
 575,-0.00441125,-0.06348379,0.00183324,0.00139590,-0.00186303,-0.24433
 296,0.02242504,0.05424414,-0.26412285,-0.01972443,-0.05150658,0.001555
 30,0.00039653,0.00139936,-0.06364168,0.00403535,-0.00369039,0.67442851
 ,-0.00013747,-0.00038984,-0.00009459,-0.00062809,-0.00606638,0.0028807
 5,-0.00178505,0.00636715,-0.00033782,-0.00389787,0.00506287,-0.0045296
 0,-0.00064987,0.00614607,0.00109886,0.03025835,-0.08590183,-0.00838952
 ,-0.01868438,-0.06080001,-0.01508095,-0.00012564,0.00816668,-0.0005968
 4,0.01568021,0.00625177,-0.00100043,0.01071646,0.18612650,-0.00068136,
 0.00121939,0.00065917,-0.01841512,0.00216312,0.00050915,0.03019608,-0.
 01260983,-0.01202464,-0.02461599,-0.00739629,-0.05250952,-0.00115513,-
 0.00048335,-0.00399499,0.08249486,-0.02173114,-0.15602010,-0.07317795,
 0.00336261,-0.14436524,0.00122697,-0.00234183,-0.00613383,-0.03148741,
 0.00529757,0.03749749,0.05262129,0.09380513,0.62540973,-0.00003484,0.0
 0004378,-0.00013928,0.00196164,0.00013706,-0.00022318,-0.00015592,0.00
 003568,-0.00088914,0.00252115,0.00000821,-0.00122669,-0.00006126,-0.00
 000031,0.00016531,-0.00093836,-0.00149056,-0.00357660,-0.27354680,0.00
 484574,0.11428424,0.00081616,-0.00008804,0.00037128,-0.00137325,0.0001
 1502,0.00045759,-0.01900475,0.00169958,0.01590276,0.28907085,0.0001247
 1,0.00019626,0.00000556,0.00064759,0.00824044,-0.00012898,-0.00017879,
 -0.00045523,-0.00109876,0.00073784,0.00293981,0.00132723,-0.00009822,-
 0.00167267,-0.00002671,0.00096261,0.00610565,-0.00118397,0.00375304,-0
 .03560727,-0.00911721,0.00007895,-0.00456235,0.00027921,-0.00100371,-0
 .00003174,-0.00056719,0.00191807,0.00332497,0.00494119,-0.00581796,0.0
 2423913,0.00136305,0.00021317,-0.00061133,-0.00149141,-0.00082874,-0.0
 0527786,-0.00053718,-0.00001426,-0.00050216,0.02978938,-0.00084116,-0.
 00970828,0.00010007,0.00014963,0.00010512,-0.00295221,-0.00029862,-0.0
 0118402,0.11168364,-0.00570109,-0.11865070,-0.00041187,0.00050929,0.00
 117517,-0.00045816,0.00016692,0.00043062,-0.01396341,0.00077653,0.0127
 0700,-0.12404731,0.00557974,0.12120757,-0.00006961,-0.00005260,-0.0000
 7770,0.00148277,-0.00098065,0.00004560,-0.00185964,0.00092983,-0.00172
 920,-0.00114166,-0.00003913,0.00053646,0.00001192,0.00042298,-0.000170
 37,0.00735784,0.01438889,-0.00679200,0.00009664,-0.00167540,-0.0006447
 9,-0.00000664,0.00022258,0.00003736,-0.05578271,-0.05411989,0.02058605
 ,-0.00151466,0.00343568,0.00323520,-0.00001180,0.00014119,0.00001096,0
 .06382751,-0.00001994,-0.00029397,-0.00000634,-0.00574342,0.00038124,-
 0.00026961,0.00262632,0.00057055,0.00531820,0.00259861,0.00001830,-0.0
 0418957,0.00009485,-0.00032514,-0.00002974,-0.01302569,0.00351820,-0.0
 0981031,0.00254848,0.00223049,0.00360656,0.00006855,-0.00032906,-0.000
 07345,-0.05565734,-0.22328622,0.17077353,-0.00076108,-0.00092078,-0.01
 136898,-0.00009567,-0.00009083,0.00004548,0.05320841,0.22792856,-0.000
 29541,-0.00036777,-0.00011686,-0.00569178,-0.00044031,-0.00135374,-0.0
 0013936,0.00141794,0.00697234,0.00282987,0.00026311,-0.00354790,0.0002
 2149,-0.00006220,0.00006763,-0.00954019,0.01981446,-0.02577931,0.00135
 594,0.00200720,0.00248467,0.00002114,-0.00025833,-0.00006426,0.0249441
 4,0.15091592,-0.11952462,0.00161563,-0.00437567,-0.01160348,-0.0001278
 1,-0.00006159,0.00001880,-0.02942849,-0.16153620,0.14716065,0.00050497
 ,-0.00108608,0.00005182,0.01359552,-0.00079503,0.00022684,-0.00639326,
 0.00922233,-0.00978531,-0.01200144,0.00197279,0.01241545,-0.00008845,-
 0.00002607,0.00127985,0.02408951,0.01104850,0.05212050,-0.00897382,-0.
 01599544,-0.03612539,-0.00004027,0.00140322,-0.00066017,0.02324517,-0.
 00458973,-0.04342372,-0.08371398,-0.02941966,-0.01518017,0.00109035,-0
 .00088119,0.00054668,-0.00977644,0.01488643,0.01560344,0.31670381,0.00
 009955,-0.00068610,0.00005785,0.00126542,-0.00114191,-0.00102897,0.000
 12015,0.00402885,0.00067329,-0.00102438,0.00613730,0.00168557,-0.00006
 989,-0.00000597,-0.00019101,-0.00130280,0.00581048,-0.00704491,-0.0006
 1891,-0.00064613,-0.00783492,0.00003481,0.00072891,-0.00035766,-0.0071
 0775,-0.02296083,0.00029485,-0.02701771,-0.07655740,-0.06259178,0.0005
 8069,-0.00306844,0.00019146,0.00644801,-0.00741015,-0.00901286,0.23782
 282,0.38176490,0.00000023,-0.00052649,-0.00006368,0.00765198,0.0001224
 8,-0.00124135,0.00065259,0.00190710,-0.00300520,-0.00503319,0.00034234
 ,0.01296868,0.00034404,0.00113247,-0.00087977,0.02477473,-0.01390175,-
 0.04976859,-0.01838608,-0.01401100,-0.01916711,-0.00004762,0.00071449,
 0.00052439,-0.01233151,0.00593883,-0.01256932,-0.03505915,-0.05079368,
 -0.27733112,0.00004168,-0.00016664,0.00069237,-0.00251968,0.00169456,0
 .00442637,-0.06479901,0.05530300,0.61356145,-0.00008341,0.00005378,-0.
 00006743,-0.00197379,0.00052003,-0.00040932,0.00117541,0.00030111,0.00
 265508,0.00094249,0.00004235,-0.00138939,0.00007754,-0.00056860,-0.000
 67094,-0.01618552,-0.00339479,0.00298107,0.00017131,0.00166078,0.00204
 685,0.00002099,-0.00019984,-0.00007179,-0.29537273,-0.07784071,0.01587
 043,-0.00426555,-0.00161893,-0.00729601,-0.00038486,-0.00026466,-0.000
 15317,-0.00318389,-0.00018204,-0.00014914,0.00179293,-0.00142108,0.000
 10692,0.31753044,0.00002114,-0.00006574,-0.00001009,0.00333206,-0.0005
 3758,0.00053099,-0.00172690,-0.00031847,-0.00439632,-0.00173064,-0.000
 00352,0.00199669,-0.00034637,0.00043642,0.00020948,0.01700784,0.001653
 76,0.00745390,-0.00048950,-0.00180017,-0.00157133,-0.00003361,0.000315
 57,0.00010172,-0.07144982,-0.06278533,0.00679715,0.00269385,0.00457261
 ,0.01076221,0.00033920,0.00033498,-0.00006469,-0.02187840,-0.00227335,
 0.00068417,-0.00858839,0.00576313,-0.00177300,0.08246232,0.05585597,0.
 00002092,0.00004768,-0.00004015,0.00389560,-0.00013435,0.00039680,-0.0
 0095395,0.00002712,-0.00278282,-0.00189304,-0.00010624,0.00271433,0.00
 032561,0.00012753,-0.00023219,-0.01150955,-0.00757438,0.01702126,-0.00
 240924,-0.00150881,-0.00114668,-0.00001878,0.00034350,0.00006561,0.020
 01688,0.01535328,-0.06102165,-0.00133757,0.00314037,0.00673700,-0.0001
 3134,0.00014836,-0.00028022,0.01629578,0.00566631,0.00082864,-0.008415
 74,0.00581117,-0.00214802,-0.01396316,-0.02050153,0.03962433,-0.000081
 02,0.00034073,-0.00003133,-0.00445145,-0.00029112,0.00077309,0.0015390
 3,-0.00253763,0.00237099,0.00207388,-0.00028461,-0.00541759,0.00006233
 ,0.00012790,-0.00008480,-0.01111799,0.00524709,-0.00461754,0.00532404,
 -0.00049160,0.00450216,0.00006152,0.00028136,-0.00021729,-0.00588895,0
 .01161734,0.01814506,-0.00867269,-0.00973527,-0.01982816,0.00002337,0.
 00029416,0.00022516,0.00096004,-0.00175370,-0.00183949,-0.11655363,-0.
 15507241,-0.01195332,-0.00047580,0.00062461,0.00057592,0.14457489,0.00
 010245,-0.00032379,-0.00000930,0.00481275,0.00008884,0.00006245,-0.001
 67369,0.00205586,-0.00407899,-0.00282246,0.00050339,0.00483304,-0.0000
 8558,-0.00009113,0.00005587,0.00893402,-0.00051602,0.00663850,-0.00291
 330,0.00032529,-0.00501779,0.00000039,-0.00028201,0.00001766,0.0065998
 4,-0.00752307,-0.01295364,0.00059731,0.00317407,0.01556849,0.00007674,
 -0.00033119,-0.00004953,-0.00087034,0.00136839,0.00145386,-0.17276247,
 -0.23065375,-0.04005611,0.00044449,-0.00110438,-0.00111288,0.16413547,
 0.23540651,-0.00000788,-0.00003949,0.00000485,-0.00166596,-0.00014406,
 -0.00030954,0.00027530,0.00030901,0.00121761,0.00045752,0.00100078,-0.
 00206739,0.00006246,-0.00008393,-0.00005517,-0.00298925,-0.00064486,-0
 .00240710,0.00292462,-0.00151623,0.00003659,0.00000492,0.00024319,-0.0
 0025981,-0.00004701,-0.00036481,0.00064729,-0.01675552,-0.02341557,-0.
 00940819,-0.00015672,-0.00031365,0.00006204,0.00039550,-0.00008009,-0.
 00001723,-0.01595035,-0.03075019,-0.05138031,0.00016454,-0.00007779,0.
 00015204,0.01999075,0.03737654,0.05893586,0.00010165,-0.00039949,0.000
 03944,0.00372888,0.00016667,-0.00015145,-0.00065262,0.00209890,-0.0029
 8275,-0.00189662,0.00048644,0.00399877,-0.00018088,-0.00027532,0.00001
 020,0.00764606,-0.00328819,0.00637009,-0.00245541,0.00001120,-0.003302
 54,-0.00003172,-0.00000910,0.00005448,0.00289830,-0.00593466,-0.007761
 53,0.01116521,0.00489197,0.00616014,0.00002831,-0.00041365,0.00029578,
 -0.00038968,0.00120723,0.00062001,-0.14348095,-0.05273653,0.11655741,0
 .00021444,-0.00023737,-0.00049833,-0.00737755,-0.00457560,0.01329709,0
 .13068258,-0.00010781,0.00030619,-0.00003488,-0.00254385,-0.00003013,0
 .00038298,0.00112466,-0.00172998,0.00125057,0.00131252,-0.00060784,-0.
 00300625,0.00022805,0.00033065,-0.00027464,-0.00756914,0.00415179,-0.0
 0822484,0.00275458,-0.00017129,0.00379689,0.00001943,-0.00006808,-0.00
 001229,-0.00314583,0.00579394,0.00781453,0.00359876,0.00144356,-0.0185
 9653,-0.00038916,0.00043848,0.00016587,0.00041885,-0.00108622,-0.00044
 174,-0.04221203,-0.06110291,0.05407342,0.00000578,-0.00004389,0.000272
 88,-0.01250233,-0.00209700,0.01850115,0.05900751,0.05447272,-0.0000219
 9,-0.00002568,-0.00000569,0.00043682,0.00002704,-0.00004523,0.00153099
 ,-0.00052493,-0.00039418,-0.00037514,-0.00034559,0.00039053,-0.0000322
 7,0.00011958,-0.00047980,0.00041332,-0.00058460,-0.00475050,0.00029285
 ,-0.00023573,0.00069961,-0.00003382,-0.00007213,-0.00008955,0.00084413
 ,-0.00217231,-0.00328450,0.02029022,0.00691302,-0.01012843,-0.00070479
 ,0.00038342,-0.00018414,0.00021932,0.00025964,0.00004830,0.11209530,0.
 05479513,-0.21461880,0.00034546,-0.00014155,0.00011171,-0.00259360,-0.
 00272818,0.00484845,-0.13270681,-0.05566713,0.22788223\\-0.00000246,0.
 00000040,-0.00000008,0.00000150,0.00000691,-0.00000015,-0.00000234,-0.
 00000124,-0.00000050,0.00000054,0.00000013,-0.00000300,0.,-0.00000036,
 0.00000081,-0.00000227,-0.00001366,-0.00000287,-0.00001169,-0.00000291
 ,-0.00000268,0.00000165,0.00000039,-0.00000187,-0.00000486,0.00000879,
 0.00000222,0.00001324,0.00000467,0.00001180,-0.00000097,0.00000051,-0.
 00000060,0.00000627,0.00000175,-0.00000165,0.00000674,-0.00000250,-0.0
 0000672,-0.00000203,-0.00000577,0.00000144,-0.00000514,-0.00000238,0.0
 0000526,0.00000183,0.00000526,-0.00000141\\\@


 NO SCIENCE HAS EVER MADE MORE RAPID PROGRESS IN A
 SHORTER TIME THAN CHEMISTRY.
   -- MARTIN HEINRICH KLOPROTH, 1791
 (FIRST PROFESSOR OF CHEMISTRY AT THE UNIVERSITY OF BERLIN)
 Job cpu time:       0 days  1 hours 22 minutes 40.7 seconds.
 Elapsed time:       0 days  0 hours  7 minutes  2.0 seconds.
 File lengths (MBytes):  RWF=    123 Int=      0 D2E=      0 Chk=     32 Scr=      1
 Normal termination of Gaussian 16 at Fri Jun 10 22:40:56 2022.
