 Entering Gaussian System, Link 0=g16
 Input=ts_zmat_field_N50.gjf
 Output=ts_zmat_field_N50.out
 Initial command:
 /software/gaussian/g16-a03/l1.exe "/local_scratch/11174529/Gau-15630.inp" -scrdir="/local_scratch/11174529/"
 Entering Link 1 = /software/gaussian/g16-a03/l1.exe PID=     15631.
  
 Copyright (c) 1988,1990,1992,1993,1995,1998,2003,2009,2016,
            Gaussian, Inc.  All Rights Reserved.
  
 This is part of the Gaussian(R) 16 program.  It is based on
 the Gaussian(R) 09 system (copyright 2009, Gaussian, Inc.),
 the Gaussian(R) 03 system (copyright 2003, Gaussian, Inc.),
 the Gaussian(R) 98 system (copyright 1998, Gaussian, Inc.),
 the Gaussian(R) 94 system (copyright 1995, Gaussian, Inc.),
 the Gaussian 92(TM) system (copyright 1992, Gaussian, Inc.),
 the Gaussian 90(TM) system (copyright 1990, Gaussian, Inc.),
 the Gaussian 88(TM) system (copyright 1988, Gaussian, Inc.),
 the Gaussian 86(TM) system (copyright 1986, Carnegie Mellon
 University), and the Gaussian 82(TM) system (copyright 1983,
 Carnegie Mellon University). Gaussian is a federally registered
 trademark of Gaussian, Inc.
  
 This software contains proprietary and confidential information,
 including trade secrets, belonging to Gaussian, Inc.
  
 This software is provided under written license and may be
 used, copied, transmitted, or stored only in accord with that
 written license.
  
 The following legend is applicable only to US Government
 contracts under FAR:
  
                    RESTRICTED RIGHTS LEGEND
  
 Use, reproduction and disclosure by the US Government is
 subject to restrictions as set forth in subparagraphs (a)
 and (c) of the Commercial Computer Software - Restricted
 Rights clause in FAR 52.227-19.
  
 Gaussian, Inc.
 340 Quinnipiac St., Bldg. 40, Wallingford CT 06492
  
  
 ---------------------------------------------------------------
 Warning -- This program may not be used in any manner that
 competes with the business of Gaussian, Inc. or will provide
 assistance to any competitor of Gaussian, Inc.  The licensee
 of this program is prohibited from giving any competitor of
 Gaussian, Inc. access to this program.  By using this program,
 the user acknowledges that Gaussian, Inc. is engaged in the
 business of creating and licensing software in the field of
 computational chemistry and represents and warrants to the
 licensee that it is not a competitor of Gaussian, Inc. and that
 it will not use this program in any manner prohibited above.
 ---------------------------------------------------------------
  

 Cite this work as:
 Gaussian 16, Revision A.03,
 M. J. Frisch, G. W. Trucks, H. B. Schlegel, G. E. Scuseria, 
 M. A. Robb, J. R. Cheeseman, G. Scalmani, V. Barone, 
 G. A. Petersson, H. Nakatsuji, X. Li, M. Caricato, A. V. Marenich, 
 J. Bloino, B. G. Janesko, R. Gomperts, B. Mennucci, H. P. Hratchian, 
 J. V. Ortiz, A. F. Izmaylov, J. L. Sonnenberg, D. Williams-Young, 
 F. Ding, F. Lipparini, F. Egidi, J. Goings, B. Peng, A. Petrone, 
 T. Henderson, D. Ranasinghe, V. G. Zakrzewski, J. Gao, N. Rega, 
 G. Zheng, W. Liang, M. Hada, M. Ehara, K. Toyota, R. Fukuda, 
 J. Hasegawa, M. Ishida, T. Nakajima, Y. Honda, O. Kitao, H. Nakai, 
 T. Vreven, K. Throssell, J. A. Montgomery, Jr., J. E. Peralta, 
 F. Ogliaro, M. J. Bearpark, J. J. Heyd, E. N. Brothers, K. N. Kudin, 
 V. N. Staroverov, T. A. Keith, R. Kobayashi, J. Normand, 
 K. Raghavachari, A. P. Rendell, J. C. Burant, S. S. Iyengar, 
 J. Tomasi, M. Cossi, J. M. Millam, M. Klene, C. Adamo, R. Cammi, 
 J. W. Ochterski, R. L. Martin, K. Morokuma, O. Farkas, 
 J. B. Foresman, and D. J. Fox, Gaussian, Inc., Wallingford CT, 2016.
 
 ******************************************
 Gaussian 16:  ES64L-G16RevA.03 25-Dec-2016
                10-Jun-2022 
 ******************************************
 %nprocshared=12
 Will use up to   12 processors via shared memory.
 %chk=checkpoint.chk
 %mem=12GB
 ----------------------------------------------------------------------
 # Opt=(TS, CalcFC, noeigentest, Z-matrix, MaxStep=10) geom=allcheckpoi
 nt guess=read Field=read NoSymm B3LYP/Def2TZVP freq=noraman pop=none
 ----------------------------------------------------------------------
 1/5=1,8=10,10=4,11=1,18=40,26=3,29=7,38=1/1,3;
 2/12=2,15=1,29=3,40=1/2;
 3/5=44,7=101,11=2,14=-6,25=1,30=1,71=2,74=-5,116=-2,140=1/1,2,3;
 4/5=1/1;
 5/5=2,38=6/2;
 8/6=4,10=90,11=11/1;
 11/6=1,8=1,9=11,15=111,16=1,31=1/1,2,10;
 10/6=1,13=1,31=1/2;
 7/10=1,18=20,25=1,30=1/1,2,3,16;
 1/5=1,8=10,10=4,11=1,18=40,26=3/3(2);
 2/15=1,29=3/2;
 99//99;
 2/15=1,29=3/2;
 3/5=44,7=101,11=2,14=-2,25=1,30=1,71=1,74=-5/1,2,3;
 4/5=5,16=3,69=1/1;
 5/5=2,38=5/2;
 7/30=1/1,2,3,16;
 1/5=1,8=10,11=1,18=40,26=3/3(-5);
 2/15=1,29=3/2;
 99/9=1/99;
 Structure from the checkpoint file:  "checkpoint.chk"
 -----------------
 ts_zmat_initalOpt
 -----------------
 Charge =  0 Multiplicity = 1
 Z-Matrix found in chk file.
 H
 C,1,R2
 H,2,R3,1,A3
 C,2,R4,1,A4,3,D4,0
 H,4,R5,2,A5,1,D5,0
 C,4,R6,2,A6,5,D6,0
 H,6,R7,4,A7,2,D7,0
 C,6,R8,4,A8,7,D8,0
 H,8,R9,6,A9,4,D9,0
 H,8,R10,6,A10,9,D10,0
 C,8,R11,6,A11,9,D11,0
 H,11,R12,8,A12,6,D12,0
 H,11,R13,8,A13,12,D13,0
      Variables:
 R2=1.08473328
 R3=1.07692052
 R4=1.37101215
 R5=1.09326288
 R6=1.38860678
 R7=1.0866632
 R8=1.50650155
 R9=1.09557123
 R10=1.09269767
 R11=1.45740692
 R12=1.080379
 R13=1.07878913
 A3=116.9994509
 A4=121.19822728
 A5=117.37172529
 A6=127.9351239
 A7=118.96470076
 A8=123.54607223
 A9=107.89454628
 A10=112.36493316
 A11=103.25077738
 A12=119.033758
 A13=122.88167131
 D4=169.63533476
 D5=-21.36742135
 D6=177.71539001
 D7=151.04492055
 D8=178.40144358
 D9=167.98456158
 D10=118.60988011
 D11=-118.2322778
 D12=66.66918898
 D13=-179.72224099
 Recover connectivity data from disk.

 GradGradGradGradGradGradGradGradGradGradGradGradGradGradGradGradGradGrad
 Berny optimization.
 Initialization pass.
                       ----------------------------
                       !    Initial Parameters    !
                       ! (Angstroms and Degrees)  !
 ----------------------                            ----------------------
 !      Name          Value   Derivative information (Atomic Units)     !
 ------------------------------------------------------------------------
 !       R2          1.0847   calculate D2E/DX2 analytically            !
 !       R3          1.0769   calculate D2E/DX2 analytically            !
 !       R4          1.371    calculate D2E/DX2 analytically            !
 !       R5          1.0933   calculate D2E/DX2 analytically            !
 !       R6          1.3886   calculate D2E/DX2 analytically            !
 !       R7          1.0867   calculate D2E/DX2 analytically            !
 !       R8          1.5065   calculate D2E/DX2 analytically            !
 !       R9          1.0956   calculate D2E/DX2 analytically            !
 !       R10         1.0927   calculate D2E/DX2 analytically            !
 !       R11         1.4574   calculate D2E/DX2 analytically            !
 !       R12         1.0804   calculate D2E/DX2 analytically            !
 !       R13         1.0788   calculate D2E/DX2 analytically            !
 !       A3        116.9995   calculate D2E/DX2 analytically            !
 !       A4        121.1982   calculate D2E/DX2 analytically            !
 !       A5        117.3717   calculate D2E/DX2 analytically            !
 !       A6        127.9351   calculate D2E/DX2 analytically            !
 !       A7        118.9647   calculate D2E/DX2 analytically            !
 !       A8        123.5461   calculate D2E/DX2 analytically            !
 !       A9        107.8945   calculate D2E/DX2 analytically            !
 !       A10       112.3649   calculate D2E/DX2 analytically            !
 !       A11       103.2508   calculate D2E/DX2 analytically            !
 !       A12       119.0338   calculate D2E/DX2 analytically            !
 !       A13       122.8817   calculate D2E/DX2 analytically            !
 !       D4        169.6353   calculate D2E/DX2 analytically            !
 !       D5        -21.3674   calculate D2E/DX2 analytically            !
 !       D6        177.7154   calculate D2E/DX2 analytically            !
 !       D7        151.0449   calculate D2E/DX2 analytically            !
 !       D8        178.4014   calculate D2E/DX2 analytically            !
 !       D9        167.9846   calculate D2E/DX2 analytically            !
 !       D10       118.6099   calculate D2E/DX2 analytically            !
 !       D11      -118.2323   calculate D2E/DX2 analytically            !
 !       D12        66.6692   calculate D2E/DX2 analytically            !
 !       D13      -179.7222   calculate D2E/DX2 analytically            !
 ------------------------------------------------------------------------
 Trust Radius=1.00D-01 FncErr=1.00D-07 GrdErr=1.00D-06 EigMax=2.50D+02 EigMin=1.00D-04
 Number of steps in this run=     43 maximum allowed number of steps=    100.
 Search for a saddle point of order  1.
 GradGradGradGradGradGradGradGradGradGradGradGradGradGradGradGradGradGrad

 ---------------------------------------------------------------------------------------------------
                            Z-MATRIX (ANGSTROMS AND DEGREES)
   CD    Cent   Atom    N1       Length/X        N2       Alpha/Y        N3        Beta/Z          J
 ---------------------------------------------------------------------------------------------------
      1      1  H 
      2      2  C        1   1.084733(     1)
      3      3  H        2   1.076921(     2)      1  116.999(    13)
      4      4  C        2   1.371012(     3)      1  121.198(    14)      3  169.635(    24)      0
      5      5  H        4   1.093263(     4)      2  117.372(    15)      1  -21.367(    25)      0
      6      6  C        4   1.388607(     5)      2  127.935(    16)      5  177.715(    26)      0
      7      7  H        6   1.086663(     6)      4  118.965(    17)      2  151.045(    27)      0
      8      8  C        6   1.506502(     7)      4  123.546(    18)      7  178.401(    28)      0
      9      9  H        8   1.095571(     8)      6  107.895(    19)      4  167.985(    29)      0
     10     10  H        8   1.092698(     9)      6  112.365(    20)      9  118.610(    30)      0
     11     11  C        8   1.457407(    10)      6  103.251(    21)      9 -118.232(    31)      0
     12     12  H       11   1.080379(    11)      8  119.034(    22)      6   66.669(    32)      0
     13     13  H       11   1.078789(    12)      8  122.882(    23)     12 -179.722(    33)      0
 ---------------------------------------------------------------------------------------------------
                         Z-Matrix orientation:                         
 ---------------------------------------------------------------------
 Center     Atomic      Atomic             Coordinates (Angstroms)
 Number     Number       Type             X           Y           Z
 ---------------------------------------------------------------------
      1          1           0        0.000000    0.000000    0.000000
      2          6           0        0.000000    0.000000    1.084733
      3          1           0        0.959548    0.000000    1.573636
      4          6           0       -1.153601    0.210990    1.794918
      5          1           0       -1.973591    0.720563    1.281912
      6          6           0       -1.439767   -0.183335    3.095244
      7          1           0       -2.132142    0.411211    3.685133
      8          6           0       -0.867161   -1.421295    3.734870
      9          1           0       -1.079354   -1.374290    4.808668
     10          1           0       -1.319067   -2.337104    3.346201
     11          6           0        0.560489   -1.306830    3.465150
     12          1           0        1.120134   -0.509606    3.932535
     13          1           0        1.089221   -1.983319    2.812012
 ---------------------------------------------------------------------
                    Distance matrix (angstroms):
                    1          2          3          4          5
     1  H    0.000000
     2  C    1.084733   0.000000
     3  H    1.843112   1.076921   0.000000
     4  C    2.144072   1.371012   2.135153   0.000000
     5  H    2.461213   2.110249   3.034405   1.093263   0.000000
     6  C    3.418636   2.479656   2.847036   1.388607   2.095273
     7  H    4.277304   3.387802   3.766439   2.137883   2.428232
     8  C    4.089169   3.129740   3.166683   2.551434   3.439295
     9  H    5.116343   4.113559   4.063401   3.406070   4.198342
    10  H    4.289412   3.509448   3.714314   2.987748   3.746868
    11  C    3.745560   2.772785   2.333427   2.834000   3.911319
    12  H    4.120586   3.102317   2.418655   3.202895   4.255614
    13  H    3.609345   2.846656   2.341783   3.298443   4.362683
                    6          7          8          9         10
     6  C    0.000000
     7  H    1.086663   0.000000
     8  C    1.506502   2.227269   0.000000
     9  H    2.117568   2.357691   1.095571   0.000000
    10  H    2.171698   2.886035   1.092698   1.767281   0.000000
    11  C    2.323811   3.201612   1.457407   2.121008   2.146705
    12  H    2.713044   3.389161   2.195357   2.520523   3.103746
    13  H    3.117042   4.107712   2.234943   3.010028   2.492062
                   11         12         13
    11  C    0.000000
    12  H    1.080379   0.000000
    13  H    1.078789   1.851583   0.000000
 Symmetry turned off by external request.
 Stoichiometry    C5H8
 Framework group  C1[X(C5H8)]
 Deg. of freedom    33
 Full point group                 C1      NOp   1
 Rotational constants (GHZ):           8.5079614           4.4899980           3.1933734
 Standard basis: def2TZVP (5D, 7F)
 The following finite field(s) will be applied:
 An electric field of              0.0005  0.0005 -0.0049
   203 basis functions,   319 primitive gaussians,   228 cartesian basis functions
    19 alpha electrons       19 beta electrons
       nuclear repulsion energy       162.0334717818 Hartrees.
 NAtoms=   13 NActive=   13 NUniq=   13 SFac= 1.00D+00 NAtFMM=   60 NAOKFM=F Big=F
 Integral buffers will be    131072 words long.
 Raffenetti 2 integral format.
 Two-electron integral symmetry is turned off.
 One-electron integrals computed using PRISM.
   1 Symmetry operations used in ECPInt.
 ECPInt:  NShTT=    3828 NPrTT=   11160 LenC2=    3812 LenP2D=    9471.
 LDataN:  DoStor=T MaxTD1= 6 Len=  172
 NBasis=   203 RedAO= T EigKep=  1.52D-04  NBF=   203
 NBsUse=   203 1.00D-06 EigRej= -1.00D+00 NBFU=   203
 The nuclear repulsion energy is now       161.0528950180 hartrees.
 Initial guess from the checkpoint file:  "checkpoint.chk"
 B after Tr=     0.000000   -0.000000    0.000000
         Rot=    1.000000    0.000000    0.000000   -0.000000 Ang=   0.00 deg.
 Requested convergence on RMS density matrix=1.00D-08 within 128 cycles.
 Requested convergence on MAX density matrix=1.00D-06.
 Requested convergence on             energy=1.00D-06.
 No special actions if energy rises.
 SCF Done:  E(RB3LYP) =  -195.278414581     A.U. after   11 cycles
            NFock= 11  Conv=0.54D-08     -V/T= 2.0056
 DoSCS=F DFT=T ScalE2(SS,OS)=  1.000000  1.000000
 Range of M.O.s used for correlation:     1   203
 NBasis=   203 NAE=    19 NBE=    19 NFC=     0 NFV=     0
 NROrb=    203 NOA=    19 NOB=    19 NVA=   184 NVB=   184

 **** Warning!!: The largest alpha MO coefficient is  0.19260135D+02

   1 Symmetry operations used in ECPInt.
 ECPInt:  NShTT=    3828 NPrTT=   11160 LenC2=    3812 LenP2D=    9471.
 LDataN:  DoStor=T MaxTD1= 7 Len=  274
 Symmetrizing basis deriv contribution to polar:
 IMax=3 JMax=2 DiffMx= 0.00D+00
 G2DrvN: will do    14 centers at a time, making    1 passes.
 Calling FoFCou, ICntrl=  3107 FMM=F I1Cent=   0 AccDes= 0.00D+00.
 End of G2Drv F.D. properties file   721 does not exist.
 End of G2Drv F.D. properties file   722 does not exist.
 End of G2Drv F.D. properties file   788 does not exist.
          IDoAtm=1111111111111
          Differentiating once with respect to nuclear coordinates.
 Keep R1 ints in memory in canonical form, NReq=227048987.
          There are    42 degrees of freedom in the 1st order CPHF.  IDoFFX=6 NUNeed=     0.
     36 vectors produced by pass  0 Test12= 8.32D-15 2.38D-09 XBig12= 8.73D-02 1.14D-01.
 AX will form    36 AO Fock derivatives at one time.
     36 vectors produced by pass  1 Test12= 8.32D-15 2.38D-09 XBig12= 9.66D-03 3.67D-02.
     36 vectors produced by pass  2 Test12= 8.32D-15 2.38D-09 XBig12= 1.29D-04 2.06D-03.
     36 vectors produced by pass  3 Test12= 8.32D-15 2.38D-09 XBig12= 5.90D-07 1.16D-04.
     36 vectors produced by pass  4 Test12= 8.32D-15 2.38D-09 XBig12= 1.09D-09 4.88D-06.
     32 vectors produced by pass  5 Test12= 8.32D-15 2.38D-09 XBig12= 1.30D-12 1.41D-07.
      2 vectors produced by pass  6 Test12= 8.32D-15 2.38D-09 XBig12= 1.66D-15 5.88D-09.
 InvSVY:  IOpt=1 It=  1 EMax= 1.89D-15
 Solved reduced A of dimension   214 with    36 vectors.
 End of Minotr F.D. properties file   721 does not exist.
 End of Minotr F.D. properties file   722 does not exist.
 End of Minotr F.D. properties file   788 does not exist.
   1 Symmetry operations used in ECPInt.
 ECPInt:  NShTT=    3828 NPrTT=   11160 LenC2=    3812 LenP2D=    9471.
 LDataN:  DoStor=T MaxTD1= 8 Len=  415
 Calling FoFJK, ICntrl=    100147 FMM=F ISym2X=0 I1Cent= 0 IOpClX= 0 NMat=1 NMatS=1 NMatT=0.
 -------------------------------------------------------------------
 Center     Atomic                   Forces (Hartrees/Bohr)
 Number     Number              X              Y              Z
 -------------------------------------------------------------------
      1        1          -0.000113364   -0.000020386   -0.000409728
      2        6           0.001027625   -0.000096875   -0.000150494
      3        1           0.000046138   -0.000014630   -0.000163775
      4        6          -0.000586989   -0.000121814    0.000657844
      5        1          -0.000215322    0.000136633    0.000067570
      6        6          -0.000154412    0.000532610   -0.000387160
      7        1           0.000184688   -0.000210290    0.000004887
      8        6           0.000629925   -0.000521161    0.000115574
      9        1           0.000166300   -0.000013917   -0.000154128
     10        1           0.000004805    0.000058160    0.000169879
     11        6          -0.001035134    0.000520735   -0.000011892
     12        1           0.000006816   -0.000058399    0.000137555
     13        1           0.000038923   -0.000190666    0.000123869
 -------------------------------------------------------------------
 Cartesian Forces:  Max     0.001035134 RMS     0.000353731
 -----------------------------------------------------------------------------------------------
                       Internal Coordinate Forces (Hartree/Bohr or radian)
  Cent   Atom   N1       Length/X         N2         Alpha/Y        N3         Beta/Z          J
 -----------------------------------------------------------------------------------------------
      1  H 
      2  C        1   0.000410(     1)
      3  H        2  -0.000033(     2)      1  -0.000340(    13)
      4  C        2   0.001203(     3)      1  -0.000373(    14)      3  -0.000002(    24)     0
      5  H        4   0.000193(     4)      2   0.000345(    15)      1   0.000427(    25)     0
      6  C        4  -0.000002(     5)      2   0.001112(    16)      5   0.000548(    26)     0
      7  H        6  -0.000230(     6)      4   0.000323(    17)      2   0.000342(    27)     0
      8  C        6   0.000259(     7)      4   0.001007(    18)      7   0.000389(    28)     0
      9  H        8  -0.000184(     8)      6   0.000143(    19)      4   0.000274(    29)     0
     10  H        8  -0.000111(     9)      6   0.000153(    20)      9  -0.000229(    30)     0
     11  C        8  -0.000994(    10)      6  -0.000397(    21)      9   0.000728(    31)     0
     12  H       11   0.000020(    11)      8  -0.000077(    22)      6  -0.000117(    32)     0
     13  H       11   0.000064(    12)      8  -0.000083(    23)     12  -0.000373(    33)     0
 -----------------------------------------------------------------------------------------------
 Internal  Forces:  Max     0.001203430 RMS     0.000470912

 GradGradGradGradGradGradGradGradGradGradGradGradGradGradGradGradGradGrad
 Berny optimization.
 Search for a saddle point.
 Step number   1 out of a maximum of   43
 All quantities printed in internal units (Hartrees-Bohrs-Radians)
 Swapping is turned off.
 Second derivative matrix not updated -- analytic derivatives used.
 ITU=  0
     Eigenvalues ---   -0.20420   0.01564   0.01854   0.02278   0.03247
     Eigenvalues ---    0.04409   0.08608   0.09417   0.10769   0.11554
     Eigenvalues ---    0.12164   0.13555   0.15031   0.19803   0.25504
     Eigenvalues ---    0.28366   0.28721   0.30596   0.31113   0.32424
     Eigenvalues ---    0.33132   0.34171   0.34568   0.36573   0.36651
     Eigenvalues ---    0.37200   0.37464   0.38703   0.40507   0.44982
     Eigenvalues ---    0.46316   0.55816   0.97958
 Eigenvectors required to have negative eigenvalues:
                          D9        A11       D5        D11       A8
   1                    0.55705  -0.33544   0.31448   0.28223   0.28124
                          A6        D4        D13       D12       R6
   1                    0.24302   0.23097   0.20312   0.19610   0.16296
 RFO step:  Lambda0=4.961479626D-06 Lambda=-2.88946694D-05.
 Linear search not attempted -- option 19 set.
 Variable       Old X    -DE/DX   Delta X   Delta X   Delta X     New X
                                 (Linear)    (Quad)   (Total)
    R2        2.04985   0.00041   0.00000   0.00116   0.00116   2.05100
    R3        2.03508  -0.00003   0.00000  -0.00010  -0.00010   2.03499
    R4        2.59084   0.00120   0.00000   0.00260   0.00260   2.59344
    R5        2.06597   0.00019   0.00000   0.00061   0.00061   2.06658
    R6        2.62409  -0.00000   0.00000  -0.00127  -0.00127   2.62281
    R7        2.05350  -0.00023   0.00000  -0.00062  -0.00062   2.05288
    R8        2.84688   0.00026   0.00000   0.00216   0.00216   2.84904
    R9        2.07033  -0.00018   0.00000  -0.00032  -0.00032   2.07001
   R10        2.06490  -0.00011   0.00000  -0.00046  -0.00046   2.06444
   R11        2.75410  -0.00099   0.00000  -0.00357  -0.00357   2.75053
   R12        2.04162   0.00002   0.00000  -0.00003  -0.00003   2.04159
   R13        2.03862   0.00006   0.00000   0.00021   0.00021   2.03882
    A3        2.04203  -0.00034   0.00000  -0.00122  -0.00122   2.04081
    A4        2.11531  -0.00037   0.00000  -0.00156  -0.00156   2.11375
    A5        2.04852   0.00034   0.00000   0.00014   0.00014   2.04866
    A6        2.23289   0.00111   0.00000   0.00198   0.00198   2.23487
    A7        2.07633   0.00032   0.00000   0.00031   0.00031   2.07664
    A8        2.15629   0.00101   0.00000   0.00210   0.00210   2.15839
    A9        1.88312   0.00014   0.00000  -0.00192  -0.00192   1.88120
   A10        1.96114   0.00015   0.00000   0.00180   0.00180   1.96294
   A11        1.80207  -0.00040   0.00000  -0.00151  -0.00151   1.80055
   A12        2.07753  -0.00008   0.00000  -0.00027  -0.00027   2.07726
   A13        2.14469  -0.00008   0.00000   0.00046   0.00046   2.14515
    D4        2.96070  -0.00000   0.00000  -0.00779  -0.00779   2.95291
    D5       -0.37293   0.00043   0.00000   0.00320   0.00320  -0.36973
    D6        3.10172   0.00055   0.00000   0.00206   0.00206   3.10378
    D7        2.63623   0.00034   0.00000   0.00169   0.00169   2.63792
    D8        3.11369   0.00039   0.00000   0.00471   0.00471   3.11840
    D9        2.93188   0.00027   0.00000  -0.01006  -0.01006   2.92182
   D10        2.07013  -0.00023   0.00000  -0.00033  -0.00033   2.06980
   D11       -2.06354   0.00073   0.00000   0.00382   0.00382  -2.05973
   D12        1.16360  -0.00012   0.00000   0.00616   0.00616   1.16975
   D13       -3.13674  -0.00037   0.00000  -0.01471  -0.01471  -3.15146
         Item               Value     Threshold  Converged?
 Maximum Force            0.001203     0.000450     NO 
 RMS     Force            0.000471     0.000300     NO 
 Maximum Displacement     0.014712     0.001800     NO 
 RMS     Displacement     0.003972     0.001200     NO 
 Predicted change in Energy=-1.197371D-05
 GradGradGradGradGradGradGradGradGradGradGradGradGradGradGradGradGradGrad

 ---------------------------------------------------------------------------------------------------
                            Z-MATRIX (ANGSTROMS AND DEGREES)
   CD    Cent   Atom    N1       Length/X        N2       Alpha/Y        N3        Beta/Z          J
 ---------------------------------------------------------------------------------------------------
      1      1  H 
      2      2  C        1   1.085345(     1)
      3      3  H        2   1.076869(     2)      1  116.930(    13)
      4      4  C        2   1.372388(     3)      1  121.109(    14)      3  169.189(    24)      0
      5      5  H        4   1.093587(     4)      2  117.380(    15)      1  -21.184(    25)      0
      6      6  C        4   1.387934(     5)      2  128.049(    16)      5  177.833(    26)      0
      7      7  H        6   1.086336(     6)      4  118.983(    17)      2  151.142(    27)      0
      8      8  C        6   1.507646(     7)      4  123.667(    18)      7  178.671(    28)      0
      9      9  H        8   1.095401(     8)      6  107.785(    19)      4  167.408(    29)      0
     10     10  H        8   1.092455(     9)      6  112.468(    20)      9  118.591(    30)      0
     11     11  C        8   1.455517(    10)      6  103.164(    21)      9 -118.014(    31)      0
     12     12  H       11   1.080365(    11)      8  119.018(    22)      6   67.022(    32)      0
     13     13  H       11   1.078900(    12)      8  122.908(    23)     12 -180.565(    33)      0
 ---------------------------------------------------------------------------------------------------
                         Z-Matrix orientation:                         
 ---------------------------------------------------------------------
 Center     Atomic      Atomic             Coordinates (Angstroms)
 Number     Number       Type             X           Y           Z
 ---------------------------------------------------------------------
      1          1           0        0.000000    0.000000    0.000000
      2          6           0        0.000000    0.000000    1.085345
      3          1           0        0.960098    0.000000    1.573053
      4          6           0       -1.154165    0.220396    1.794412
      5          1           0       -1.970818    0.733596    1.279014
      6          6           0       -1.445577   -0.164996    3.095532
      7          1           0       -2.136915    0.435441    3.680044
      8          6           0       -0.876541   -1.398711    3.749095
      9          1           0       -1.086273   -1.335741    4.822385
     10          1           0       -1.332923   -2.317863    3.374483
     11          6           0        0.549314   -1.289878    3.477760
     12          1           0        1.111564   -0.492119    3.941058
     13          1           0        1.078425   -1.978588    2.837648
 ---------------------------------------------------------------------
                    Distance matrix (angstroms):
                    1          2          3          4          5
     1  H    0.000000
     2  C    1.085345   0.000000
     3  H    1.842901   1.076869   0.000000
     4  C    2.144898   1.372388   2.137213   0.000000
     5  H    2.461334   2.111823   3.035604   1.093587   0.000000
     6  C    3.420414   2.481485   2.851742   1.387934   2.093582
     7  H    4.277702   3.389465   3.771008   2.137205   2.425166
     8  C    4.096392   3.133732   3.172506   2.553304   3.441726
     9  H    5.120506   4.114567   4.065709   3.405112   4.197625
    10  H    4.305382   3.519848   3.724994   2.995219   3.756236
    11  C    3.749713   2.772937   2.336758   2.831330   3.908964
    12  H    4.124281   3.103683   2.423338   3.201451   4.253226
    13  H    3.623542   2.854537   2.351173   3.302776   4.368429
                    6          7          8          9         10
     6  C    0.000000
     7  H    1.086336   0.000000
     8  C    1.507646   2.226527   0.000000
     9  H    2.117018   2.354968   1.095401   0.000000
    10  H    2.173785   2.884519   1.092455   1.766866   0.000000
    11  C    2.321863   3.198979   1.455517   2.117844   2.147146
    12  H    2.713096   3.388378   2.193472   2.513747   3.103202
    13  H    3.118687   4.107990   2.233582   3.006385   2.493572
                   11         12         13
    11  C    0.000000
    12  H    1.080365   0.000000
    13  H    1.078900   1.851541   0.000000
 Symmetry turned off by external request.
 Stoichiometry    C5H8
 Framework group  C1[X(C5H8)]
 Deg. of freedom    33
 Full point group                 C1      NOp   1
 Rotational constants (GHZ):           8.5167076           4.4844060           3.1903293
 Standard basis: def2TZVP (5D, 7F)
 The following finite field(s) will be applied:
 An electric field of              0.0005  0.0005 -0.0049
   203 basis functions,   319 primitive gaussians,   228 cartesian basis functions
    19 alpha electrons       19 beta electrons
       nuclear repulsion energy       162.0082907798 Hartrees.
 NAtoms=   13 NActive=   13 NUniq=   13 SFac= 1.00D+00 NAtFMM=   60 NAOKFM=F Big=F
 Integral buffers will be    131072 words long.
 Raffenetti 2 integral format.
 Two-electron integral symmetry is turned off.
 One-electron integrals computed using PRISM.
   1 Symmetry operations used in ECPInt.
 ECPInt:  NShTT=    3828 NPrTT=   11160 LenC2=    3812 LenP2D=    9469.
 LDataN:  DoStor=T MaxTD1= 6 Len=  172
 NBasis=   203 RedAO= T EigKep=  1.52D-04  NBF=   203
 NBsUse=   203 1.00D-06 EigRej= -1.00D+00 NBFU=   203
 The nuclear repulsion energy is now       161.0259060569 hartrees.
 Initial guess from the checkpoint file:  "checkpoint.chk"
 B after Tr=     0.001083   -0.017188    0.004872
         Rot=    0.999990    0.003946    0.000755    0.001751 Ang=   0.50 deg.
 Requested convergence on RMS density matrix=1.00D-08 within 128 cycles.
 Requested convergence on MAX density matrix=1.00D-06.
 Requested convergence on             energy=1.00D-06.
 No special actions if energy rises.
 SCF Done:  E(RB3LYP) =  -195.278426539     A.U. after   10 cycles
            NFock= 10  Conv=0.40D-08     -V/T= 2.0056
   1 Symmetry operations used in ECPInt.
 ECPInt:  NShTT=    3828 NPrTT=   11160 LenC2=    3812 LenP2D=    9469.
 LDataN:  DoStor=T MaxTD1= 7 Len=  274
 Calling FoFJK, ICntrl=      2127 FMM=F ISym2X=0 I1Cent= 0 IOpClX= 0 NMat=1 NMatS=1 NMatT=0.
 -------------------------------------------------------------------
 Center     Atomic                   Forces (Hartrees/Bohr)
 Number     Number              X              Y              Z
 -------------------------------------------------------------------
      1        1          -0.000135667   -0.000285593   -0.000000656
      2        6           0.000138878    0.000301719   -0.000000094
      3        1           0.000001125   -0.000016652   -0.000001380
      4        6          -0.000003532    0.000001112   -0.000001049
      5        1          -0.000000842   -0.000000931   -0.000000336
      6        6          -0.000000260    0.000002008    0.000003120
      7        1           0.000000067    0.000000511   -0.000000065
      8        6          -0.000008971   -0.000001900    0.000001894
      9        1          -0.000000912    0.000000086   -0.000000177
     10        1           0.000000334   -0.000000039   -0.000000067
     11        6           0.000012536   -0.000000888   -0.000000522
     12        1          -0.000001530    0.000003134    0.000001565
     13        1          -0.000001225   -0.000002567   -0.000002232
 -------------------------------------------------------------------
 Cartesian Forces:  Max     0.000301719 RMS     0.000073533
 -----------------------------------------------------------------------------------------------
                       Internal Coordinate Forces (Hartree/Bohr or radian)
  Cent   Atom   N1       Length/X         N2         Alpha/Y        N3         Beta/Z          J
 -----------------------------------------------------------------------------------------------
      1  H 
      2  C        1   0.000001(     1)
      3  H        2   0.000000(     2)      1  -0.000004(    13)
      4  C        2   0.000005(     3)      1  -0.000003(    14)      3  -0.000001(    24)     0
      5  H        4   0.000000(     4)      2   0.000001(    15)      1   0.000003(    25)     0
      6  C        4   0.000003(     5)      2   0.000004(    16)      5   0.000001(    26)     0
      7  H        6   0.000000(     6)      4  -0.000001(    17)      2  -0.000002(    27)     0
      8  C        6   0.000002(     7)      4   0.000002(    18)      7  -0.000001(    28)     0
      9  H        8   0.000000(     8)      6  -0.000001(    19)      4   0.000002(    29)     0
     10  H        8  -0.000000(     9)      6   0.000000(    20)      9   0.000001(    30)     0
     11  C        8   0.000010(    10)      6   0.000002(    21)      9  -0.000000(    31)     0
     12  H       11   0.000002(    11)      8  -0.000006(    22)      6  -0.000001(    32)     0
     13  H       11   0.000002(    12)      8  -0.000005(    23)     12   0.000001(    33)     0
 -----------------------------------------------------------------------------------------------
 Internal  Forces:  Max     0.000009779 RMS     0.000002931

 GradGradGradGradGradGradGradGradGradGradGradGradGradGradGradGradGradGrad
 Berny optimization.
 Search for a saddle point.
 Step number   2 out of a maximum of   43
 All quantities printed in internal units (Hartrees-Bohrs-Radians)
 Swapping is turned off.
 Update second derivatives using D2CorN and points    1    2
 ITU=  0  0
     Eigenvalues ---   -0.20418   0.01570   0.01852   0.02278   0.03248
     Eigenvalues ---    0.04409   0.08608   0.09416   0.10769   0.11555
     Eigenvalues ---    0.12165   0.13555   0.15031   0.19803   0.25506
     Eigenvalues ---    0.28365   0.28723   0.30595   0.31113   0.32424
     Eigenvalues ---    0.33132   0.34172   0.34568   0.36573   0.36651
     Eigenvalues ---    0.37201   0.37465   0.38704   0.40507   0.44981
     Eigenvalues ---    0.46316   0.55814   0.97957
 Eigenvectors required to have negative eigenvalues:
                          D9        A11       D5        D11       A8
   1                    0.55697  -0.33549   0.31448   0.28229   0.28126
                          A6        D4        D13       D12       R6
   1                    0.24302   0.23092   0.20296   0.19621   0.16294
 RFO step:  Lambda0=2.947782296D-11 Lambda= 0.00000000D+00.
 Linear search not attempted -- option 19 set.
 Variable       Old X    -DE/DX   Delta X   Delta X   Delta X     New X
                                 (Linear)    (Quad)   (Total)
    R2        2.05100   0.00000   0.00000   0.00000   0.00000   2.05101
    R3        2.03499   0.00000   0.00000   0.00000   0.00000   2.03499
    R4        2.59344   0.00000   0.00000   0.00001   0.00001   2.59345
    R5        2.06658   0.00000   0.00000   0.00000   0.00000   2.06658
    R6        2.62281   0.00000   0.00000   0.00000   0.00000   2.62282
    R7        2.05288   0.00000   0.00000  -0.00000  -0.00000   2.05288
    R8        2.84904   0.00000   0.00000  -0.00000  -0.00000   2.84904
    R9        2.07001   0.00000   0.00000   0.00000   0.00000   2.07001
   R10        2.06444  -0.00000   0.00000  -0.00000  -0.00000   2.06444
   R11        2.75053   0.00001   0.00000   0.00004   0.00004   2.75057
   R12        2.04159   0.00000   0.00000   0.00001   0.00001   2.04160
   R13        2.03882   0.00000   0.00000   0.00001   0.00001   2.03883
    A3        2.04081  -0.00000   0.00000  -0.00002  -0.00002   2.04079
    A4        2.11375  -0.00000   0.00000  -0.00001  -0.00001   2.11374
    A5        2.04866   0.00000   0.00000   0.00000   0.00000   2.04866
    A6        2.23487   0.00000   0.00000  -0.00000  -0.00000   2.23487
    A7        2.07664  -0.00000   0.00000  -0.00000  -0.00000   2.07664
    A8        2.15839   0.00000   0.00000  -0.00001  -0.00001   2.15838
    A9        1.88120  -0.00000   0.00000   0.00000   0.00000   1.88120
   A10        1.96294   0.00000   0.00000  -0.00000  -0.00000   1.96293
   A11        1.80055   0.00000   0.00000   0.00002   0.00002   1.80057
   A12        2.07726  -0.00001   0.00000  -0.00002  -0.00002   2.07724
   A13        2.14515  -0.00001   0.00000  -0.00002  -0.00002   2.14513
    D4        2.95291  -0.00000   0.00000  -0.00008  -0.00008   2.95283
    D5       -0.36973   0.00000   0.00000   0.00007   0.00007  -0.36966
    D6        3.10378   0.00000   0.00000  -0.00001  -0.00001   3.10377
    D7        2.63792  -0.00000   0.00000   0.00001   0.00001   2.63792
    D8        3.11840  -0.00000   0.00000  -0.00002  -0.00002   3.11838
    D9        2.92182   0.00000   0.00000   0.00001   0.00001   2.92182
   D10        2.06980   0.00000   0.00000  -0.00001  -0.00001   2.06980
   D11       -2.05973  -0.00000   0.00000  -0.00001  -0.00001  -2.05974
   D12        1.16975  -0.00000   0.00000  -0.00006  -0.00006   1.16970
   D13       -3.15146   0.00000   0.00000   0.00007   0.00007  -3.15139
         Item               Value     Threshold  Converged?
 Maximum Force            0.000010     0.000450     YES
 RMS     Force            0.000003     0.000300     YES
 Maximum Displacement     0.000082     0.001800     YES
 RMS     Displacement     0.000027     0.001200     YES
 Predicted change in Energy=-5.943337D-10
 Optimization completed.
    -- Stationary point found.
                       ----------------------------
                       !   Optimized Parameters   !
                       ! (Angstroms and Degrees)  !
 ----------------------                            ----------------------
 !      Name          Value   Derivative information (Atomic Units)     !
 ------------------------------------------------------------------------
 !       R2          1.0853   -DE/DX =    0.0                           !
 !       R3          1.0769   -DE/DX =    0.0                           !
 !       R4          1.3724   -DE/DX =    0.0                           !
 !       R5          1.0936   -DE/DX =    0.0                           !
 !       R6          1.3879   -DE/DX =    0.0                           !
 !       R7          1.0863   -DE/DX =    0.0                           !
 !       R8          1.5076   -DE/DX =    0.0                           !
 !       R9          1.0954   -DE/DX =    0.0                           !
 !       R10         1.0925   -DE/DX =    0.0                           !
 !       R11         1.4555   -DE/DX =    0.0                           !
 !       R12         1.0804   -DE/DX =    0.0                           !
 !       R13         1.0789   -DE/DX =    0.0                           !
 !       A3        116.9296   -DE/DX =    0.0                           !
 !       A4        121.1089   -DE/DX =    0.0                           !
 !       A5        117.3797   -DE/DX =    0.0                           !
 !       A6        128.0488   -DE/DX =    0.0                           !
 !       A7        118.9827   -DE/DX =    0.0                           !
 !       A8        123.6665   -DE/DX =    0.0                           !
 !       A9        107.7848   -DE/DX =    0.0                           !
 !       A10       112.468    -DE/DX =    0.0                           !
 !       A11       103.1642   -DE/DX =    0.0                           !
 !       A12       119.0184   -DE/DX =    0.0                           !
 !       A13       122.9082   -DE/DX =    0.0                           !
 !       D4        169.1891   -DE/DX =    0.0                           !
 !       D5        -21.184    -DE/DX =    0.0                           !
 !       D6        177.8333   -DE/DX =    0.0                           !
 !       D7        151.1416   -DE/DX =    0.0                           !
 !       D8        178.6714   -DE/DX =    0.0                           !
 !       D9        167.4079   -DE/DX =    0.0                           !
 !       D10       118.5911   -DE/DX =    0.0                           !
 !       D11      -118.0136   -DE/DX =    0.0                           !
 !       D12        67.022    -DE/DX =    0.0                           !
 !       D13      -180.5652   -DE/DX =    0.0                           !
 ------------------------------------------------------------------------
 GradGradGradGradGradGradGradGradGradGradGradGradGradGradGradGradGradGrad

 ---------------------------------------------------------------------------------------------------
                            Z-MATRIX (ANGSTROMS AND DEGREES)
   CD    Cent   Atom    N1       Length/X        N2       Alpha/Y        N3        Beta/Z          J
 ---------------------------------------------------------------------------------------------------
      1      1  H 
      2      2  C        1   1.085345(     1)
      3      3  H        2   1.076869(     2)      1  116.930(    13)
      4      4  C        2   1.372388(     3)      1  121.109(    14)      3  169.189(    24)      0
      5      5  H        4   1.093587(     4)      2  117.380(    15)      1  -21.184(    25)      0
      6      6  C        4   1.387934(     5)      2  128.049(    16)      5  177.833(    26)      0
      7      7  H        6   1.086336(     6)      4  118.983(    17)      2  151.142(    27)      0
      8      8  C        6   1.507646(     7)      4  123.667(    18)      7  178.671(    28)      0
      9      9  H        8   1.095401(     8)      6  107.785(    19)      4  167.408(    29)      0
     10     10  H        8   1.092455(     9)      6  112.468(    20)      9  118.591(    30)      0
     11     11  C        8   1.455517(    10)      6  103.164(    21)      9 -118.014(    31)      0
     12     12  H       11   1.080365(    11)      8  119.018(    22)      6   67.022(    32)      0
     13     13  H       11   1.078900(    12)      8  122.908(    23)     12 -180.565(    33)      0
 ---------------------------------------------------------------------------------------------------
                         Z-Matrix orientation:                         
 ---------------------------------------------------------------------
 Center     Atomic      Atomic             Coordinates (Angstroms)
 Number     Number       Type             X           Y           Z
 ---------------------------------------------------------------------
      1          1           0        0.000000    0.000000    0.000000
      2          6           0        0.000000    0.000000    1.085345
      3          1           0        0.960098    0.000000    1.573053
      4          6           0       -1.154165    0.220396    1.794412
      5          1           0       -1.970818    0.733596    1.279014
      6          6           0       -1.445577   -0.164996    3.095532
      7          1           0       -2.136915    0.435441    3.680044
      8          6           0       -0.876541   -1.398711    3.749095
      9          1           0       -1.086273   -1.335741    4.822385
     10          1           0       -1.332923   -2.317863    3.374483
     11          6           0        0.549314   -1.289878    3.477760
     12          1           0        1.111564   -0.492119    3.941058
     13          1           0        1.078425   -1.978588    2.837648
 ---------------------------------------------------------------------
                    Distance matrix (angstroms):
                    1          2          3          4          5
     1  H    0.000000
     2  C    1.085345   0.000000
     3  H    1.842901   1.076869   0.000000
     4  C    2.144898   1.372388   2.137213   0.000000
     5  H    2.461334   2.111823   3.035604   1.093587   0.000000
     6  C    3.420414   2.481485   2.851742   1.387934   2.093582
     7  H    4.277702   3.389465   3.771008   2.137205   2.425166
     8  C    4.096392   3.133732   3.172506   2.553304   3.441726
     9  H    5.120506   4.114567   4.065709   3.405112   4.197625
    10  H    4.305382   3.519848   3.724994   2.995219   3.756236
    11  C    3.749713   2.772937   2.336758   2.831330   3.908964
    12  H    4.124281   3.103683   2.423338   3.201451   4.253226
    13  H    3.623542   2.854537   2.351173   3.302776   4.368429
                    6          7          8          9         10
     6  C    0.000000
     7  H    1.086336   0.000000
     8  C    1.507646   2.226527   0.000000
     9  H    2.117018   2.354968   1.095401   0.000000
    10  H    2.173785   2.884519   1.092455   1.766866   0.000000
    11  C    2.321863   3.198979   1.455517   2.117844   2.147146
    12  H    2.713096   3.388378   2.193472   2.513747   3.103202
    13  H    3.118687   4.107990   2.233582   3.006385   2.493572
                   11         12         13
    11  C    0.000000
    12  H    1.080365   0.000000
    13  H    1.078900   1.851541   0.000000
 Symmetry turned off by external request.
 Stoichiometry    C5H8
 Framework group  C1[X(C5H8)]
 Deg. of freedom    33
 Full point group                 C1      NOp   1
 Rotational constants (GHZ):           8.5167076           4.4844060           3.1903293
 1\1\GINC-BHC0069\FTS\RB3LYP\def2TZVP\C5H8\DHANAWAY\10-Jun-2022\1\\# Op
 t=(TS, CalcFC, noeigentest, Z-matrix, MaxStep=10) geom=allcheckpoint g
 uess=read Field=read NoSymm B3LYP/Def2TZVP freq=noraman pop=none\\ts_z
 mat_initalOpt\\0,1\H\C,1,R2\H,2,R3,1,A3\C,2,R4,1,A4,3,D4,0\H,4,R5,2,A5
 ,1,D5,0\C,4,R6,2,A6,5,D6,0\H,6,R7,4,A7,2,D7,0\C,6,R8,4,A8,7,D8,0\H,8,R
 9,6,A9,4,D9,0\H,8,R10,6,A10,9,D10,0\C,8,R11,6,A11,9,D11,0\H,11,R12,8,A
 12,6,D12,0\H,11,R13,8,A13,12,D13,0\\R2=1.08534494\R3=1.07686879\R4=1.3
 7238758\R5=1.09358733\R6=1.38793359\R7=1.08633612\R8=1.50764644\R9=1.0
 9540107\R10=1.09245529\R11=1.45551746\R12=1.0803649\R13=1.07889965\A3=
 116.92955093\A4=121.10894432\A5=117.37968416\A6=128.04882881\A7=118.98
 273397\A8=123.66654924\A9=107.78477022\A10=112.46795232\A11=103.164201
 24\A12=119.01843068\A13=122.9081767\D4=169.18913881\D5=-21.18404146\D6
 =177.83334785\D7=151.14158398\D8=178.67137505\D9=167.40790743\D10=118.
 59105408\D11=-118.01359734\D12=67.02196652\D13=-180.56515404\\Version=
 ES64L-G16RevA.03\HF=-195.2784265\RMSD=4.018e-09\RMSF=7.353e-05\Dipole=
 -0.1209184,-0.1923071,0.6685951\PG=C01 [X(C5H8)]\\@


 AS FAR AS THE LAWS OF MATHEMATICS REFER TO REALITY,
 THEY ARE NOT CERTAIN; AND AS FAR AS THEY ARE CERTAIN,
 THEY DO NOT REFER TO REALITY.

                                         -- ALBERT EINSTEIN
 Job cpu time:       0 days  0 hours 32 minutes  9.5 seconds.
 Elapsed time:       0 days  0 hours  2 minutes 41.8 seconds.
 File lengths (MBytes):  RWF=     46 Int=      0 D2E=      0 Chk=     32 Scr=      1
 Normal termination of Gaussian 16 at Fri Jun 10 22:48:29 2022.
 Link1:  Proceeding to internal job step number  2.
 --------------------------------------------------------------------
 #N Geom=AllCheck Guess=TCheck SCRF=Check GenChk RB3LYP/def2TZVP Freq
 --------------------------------------------------------------------
 1/5=1,8=10,10=4,11=1,29=7,30=1,38=1,40=1/1,3;
 2/12=2,15=1,40=1/2;
 3/5=44,7=101,11=2,14=-4,25=1,30=1,70=2,71=2,74=-5,116=1,140=1/1,2,3;
 4/5=101/1;
 5/5=2,38=6,98=1/2;
 8/6=4,10=90,11=11/1;
 11/6=1,8=1,9=11,15=111,16=1,31=1/1,2,10;
 10/6=1,31=1/2;
 7/8=1,10=1,25=1,30=1/1,2,3,16;
 1/5=1,8=10,10=4,11=1,30=1/3;
 99//99;
 Structure from the checkpoint file:  "checkpoint.chk"
 -----------------
 ts_zmat_initalOpt
 -----------------
 Charge =  0 Multiplicity = 1
 Z-Matrix found in chk file.
 H
 C,1,R2
 H,2,R3,1,A3
 C,2,R4,1,A4,3,D4,0
 H,4,R5,2,A5,1,D5,0
 C,4,R6,2,A6,5,D6,0
 H,6,R7,4,A7,2,D7,0
 C,6,R8,4,A8,7,D8,0
 H,8,R9,6,A9,4,D9,0
 H,8,R10,6,A10,9,D10,0
 C,8,R11,6,A11,9,D11,0
 H,11,R12,8,A12,6,D12,0
 H,11,R13,8,A13,12,D13,0
      Variables:
 R2=1.08534494
 R3=1.07686879
 R4=1.37238758
 R5=1.09358733
 R6=1.38793359
 R7=1.08633612
 R8=1.50764644
 R9=1.09540107
 R10=1.09245529
 R11=1.45551746
 R12=1.0803649
 R13=1.07889965
 A3=116.92955093
 A4=121.10894432
 A5=117.37968416
 A6=128.04882881
 A7=118.98273397
 A8=123.66654924
 A9=107.78477022
 A10=112.46795232
 A11=103.16420124
 A12=119.01843068
 A13=122.9081767
 D4=169.18913881
 D5=-21.18404146
 D6=177.83334785
 D7=151.14158398
 D8=178.67137505
 D9=167.40790743
 D10=118.59105408
 D11=-118.01359734
 D12=67.02196652
 D13=-180.56515404
 Recover connectivity data from disk.

 GradGradGradGradGradGradGradGradGradGradGradGradGradGradGradGradGradGrad
 Berny optimization.
 Initialization pass.
                       ----------------------------
                       !    Initial Parameters    !
                       ! (Angstroms and Degrees)  !
 ----------------------                            ----------------------
 !      Name          Value   Derivative information (Atomic Units)     !
 ------------------------------------------------------------------------
 !       R2          1.0853   calculate D2E/DX2 analytically            !
 !       R3          1.0769   calculate D2E/DX2 analytically            !
 !       R4          1.3724   calculate D2E/DX2 analytically            !
 !       R5          1.0936   calculate D2E/DX2 analytically            !
 !       R6          1.3879   calculate D2E/DX2 analytically            !
 !       R7          1.0863   calculate D2E/DX2 analytically            !
 !       R8          1.5076   calculate D2E/DX2 analytically            !
 !       R9          1.0954   calculate D2E/DX2 analytically            !
 !       R10         1.0925   calculate D2E/DX2 analytically            !
 !       R11         1.4555   calculate D2E/DX2 analytically            !
 !       R12         1.0804   calculate D2E/DX2 analytically            !
 !       R13         1.0789   calculate D2E/DX2 analytically            !
 !       A3        116.9296   calculate D2E/DX2 analytically            !
 !       A4        121.1089   calculate D2E/DX2 analytically            !
 !       A5        117.3797   calculate D2E/DX2 analytically            !
 !       A6        128.0488   calculate D2E/DX2 analytically            !
 !       A7        118.9827   calculate D2E/DX2 analytically            !
 !       A8        123.6665   calculate D2E/DX2 analytically            !
 !       A9        107.7848   calculate D2E/DX2 analytically            !
 !       A10       112.468    calculate D2E/DX2 analytically            !
 !       A11       103.1642   calculate D2E/DX2 analytically            !
 !       A12       119.0184   calculate D2E/DX2 analytically            !
 !       A13       122.9082   calculate D2E/DX2 analytically            !
 !       D4        169.1891   calculate D2E/DX2 analytically            !
 !       D5        -21.184    calculate D2E/DX2 analytically            !
 !       D6        177.8333   calculate D2E/DX2 analytically            !
 !       D7        151.1416   calculate D2E/DX2 analytically            !
 !       D8        178.6714   calculate D2E/DX2 analytically            !
 !       D9        167.4079   calculate D2E/DX2 analytically            !
 !       D10       118.5911   calculate D2E/DX2 analytically            !
 !       D11      -118.0136   calculate D2E/DX2 analytically            !
 !       D12        67.022    calculate D2E/DX2 analytically            !
 !       D13      -180.5652   calculate D2E/DX2 analytically            !
 ------------------------------------------------------------------------
 Trust Radius=1.00D-01 FncErr=1.00D-07 GrdErr=1.00D-07 EigMax=2.50D+02 EigMin=1.00D-04
 Number of steps in this run=      2 maximum allowed number of steps=      2.
 Search for a saddle point of order  1.
 GradGradGradGradGradGradGradGradGradGradGradGradGradGradGradGradGradGrad

                          Input orientation:                          
 ---------------------------------------------------------------------
 Center     Atomic      Atomic             Coordinates (Angstroms)
 Number     Number       Type             X           Y           Z
 ---------------------------------------------------------------------
      1          1           0        0.000000    0.000000    0.000000
      2          6           0        0.000000    0.000000    1.085345
      3          1           0        0.960098    0.000000    1.573053
      4          6           0       -1.154165    0.220396    1.794412
      5          1           0       -1.970818    0.733596    1.279014
      6          6           0       -1.445577   -0.164996    3.095532
      7          1           0       -2.136915    0.435441    3.680044
      8          6           0       -0.876541   -1.398711    3.749095
      9          1           0       -1.086273   -1.335741    4.822385
     10          1           0       -1.332923   -2.317863    3.374483
     11          6           0        0.549314   -1.289878    3.477760
     12          1           0        1.111564   -0.492119    3.941058
     13          1           0        1.078425   -1.978588    2.837648
 ---------------------------------------------------------------------
                    Distance matrix (angstroms):
                    1          2          3          4          5
     1  H    0.000000
     2  C    1.085345   0.000000
     3  H    1.842901   1.076869   0.000000
     4  C    2.144898   1.372388   2.137213   0.000000
     5  H    2.461334   2.111823   3.035604   1.093587   0.000000
     6  C    3.420414   2.481485   2.851742   1.387934   2.093582
     7  H    4.277702   3.389465   3.771008   2.137205   2.425166
     8  C    4.096392   3.133732   3.172506   2.553304   3.441726
     9  H    5.120506   4.114567   4.065709   3.405112   4.197625
    10  H    4.305382   3.519848   3.724994   2.995219   3.756236
    11  C    3.749713   2.772937   2.336758   2.831330   3.908964
    12  H    4.124281   3.103683   2.423338   3.201451   4.253226
    13  H    3.623542   2.854537   2.351173   3.302776   4.368429
                    6          7          8          9         10
     6  C    0.000000
     7  H    1.086336   0.000000
     8  C    1.507646   2.226527   0.000000
     9  H    2.117018   2.354968   1.095401   0.000000
    10  H    2.173785   2.884519   1.092455   1.766866   0.000000
    11  C    2.321863   3.198979   1.455517   2.117844   2.147146
    12  H    2.713096   3.388378   2.193472   2.513747   3.103202
    13  H    3.118687   4.107990   2.233582   3.006385   2.493572
                   11         12         13
    11  C    0.000000
    12  H    1.080365   0.000000
    13  H    1.078900   1.851541   0.000000
 Symmetry turned off by external request.
 Stoichiometry    C5H8
 Framework group  C1[X(C5H8)]
 Deg. of freedom    33
 Full point group                 C1      NOp   1
 Rotational constants (GHZ):           8.5167076           4.4844060           3.1903293
 Standard basis: def2TZVP (5D, 7F)
 The following finite field(s) will be applied:
 An electric field of              0.0005  0.0005 -0.0049
   203 basis functions,   319 primitive gaussians,   228 cartesian basis functions
    19 alpha electrons       19 beta electrons
       nuclear repulsion energy       162.0082907798 Hartrees.
 NAtoms=   13 NActive=   13 NUniq=   13 SFac= 1.00D+00 NAtFMM=   60 NAOKFM=F Big=F
 Integral buffers will be    131072 words long.
 Raffenetti 2 integral format.
 Two-electron integral symmetry is turned off.
 One-electron integrals computed using PRISM.
   1 Symmetry operations used in ECPInt.
 ECPInt:  NShTT=    3828 NPrTT=   11160 LenC2=    3812 LenP2D=    9469.
 LDataN:  DoStor=T MaxTD1= 6 Len=  172
 NBasis=   203 RedAO= T EigKep=  1.52D-04  NBF=   203
 NBsUse=   203 1.00D-06 EigRej= -1.00D+00 NBFU=   203
 The nuclear repulsion energy is now       161.0259060569 hartrees.
 Initial guess from the checkpoint file:  "checkpoint.chk"
 B after Tr=     0.000000    0.000000    0.000000
         Rot=    1.000000    0.000000    0.000000    0.000000 Ang=   0.00 deg.
 Requested convergence on RMS density matrix=1.00D-08 within 128 cycles.
 Requested convergence on MAX density matrix=1.00D-06.
 Requested convergence on             energy=1.00D-06.
 No special actions if energy rises.
 SCF Done:  E(RB3LYP) =  -195.278426539     A.U. after    1 cycles
            NFock=  1  Conv=0.12D-08     -V/T= 2.0056
 DoSCS=F DFT=T ScalE2(SS,OS)=  1.000000  1.000000
 Range of M.O.s used for correlation:     1   203
 NBasis=   203 NAE=    19 NBE=    19 NFC=     0 NFV=     0
 NROrb=    203 NOA=    19 NOB=    19 NVA=   184 NVB=   184

 **** Warning!!: The largest alpha MO coefficient is  0.19094497D+02

   1 Symmetry operations used in ECPInt.
 ECPInt:  NShTT=    3828 NPrTT=   11160 LenC2=    3812 LenP2D=    9469.
 LDataN:  DoStor=T MaxTD1= 7 Len=  274
 Symmetrizing basis deriv contribution to polar:
 IMax=3 JMax=2 DiffMx= 0.00D+00
 G2DrvN: will do    14 centers at a time, making    1 passes.
 Calling FoFCou, ICntrl=  3107 FMM=F I1Cent=   0 AccDes= 0.00D+00.
 End of G2Drv F.D. properties file   721 does not exist.
 End of G2Drv F.D. properties file   722 does not exist.
 End of G2Drv F.D. properties file   788 does not exist.
          IDoAtm=1111111111111
          Differentiating once with respect to electric field.
                with respect to dipole field.
          Differentiating once with respect to nuclear coordinates.
 Keep R1 ints in memory in canonical form, NReq=227048987.
          There are    42 degrees of freedom in the 1st order CPHF.  IDoFFX=6 NUNeed=     3.
     39 vectors produced by pass  0 Test12= 8.32D-15 2.38D-09 XBig12= 1.89D+02 1.10D+01.
 AX will form    39 AO Fock derivatives at one time.
     39 vectors produced by pass  1 Test12= 8.32D-15 2.38D-09 XBig12= 4.87D+01 1.36D+00.
     39 vectors produced by pass  2 Test12= 8.32D-15 2.38D-09 XBig12= 6.51D-01 9.93D-02.
     39 vectors produced by pass  3 Test12= 8.32D-15 2.38D-09 XBig12= 1.88D-03 6.82D-03.
     39 vectors produced by pass  4 Test12= 8.32D-15 2.38D-09 XBig12= 2.65D-06 1.82D-04.
     30 vectors produced by pass  5 Test12= 8.32D-15 2.38D-09 XBig12= 2.60D-09 6.49D-06.
      4 vectors produced by pass  6 Test12= 8.32D-15 2.38D-09 XBig12= 3.20D-12 2.14D-07.
      3 vectors produced by pass  7 Test12= 8.32D-15 2.38D-09 XBig12= 3.65D-15 8.92D-09.
 InvSVY:  IOpt=1 It=  1 EMax= 1.07D-14
 Solved reduced A of dimension   232 with    42 vectors.
 Isotropic polarizability for W=    0.000000       74.53 Bohr**3.
 End of Minotr F.D. properties file   721 does not exist.
 End of Minotr F.D. properties file   722 does not exist.
 End of Minotr F.D. properties file   788 does not exist.
   1 Symmetry operations used in ECPInt.
 ECPInt:  NShTT=    3828 NPrTT=   11160 LenC2=    3812 LenP2D=    9469.
 LDataN:  DoStor=T MaxTD1= 8 Len=  415
 Calling FoFJK, ICntrl=    100127 FMM=F ISym2X=0 I1Cent= 0 IOpClX= 0 NMat=1 NMatS=1 NMatT=0.
 Full mass-weighted force constant matrix:
 Low frequencies --- -424.2605   -6.3477   -0.0008   -0.0007   -0.0006    4.8611
 Low frequencies ---   12.3020  220.0856  259.0705
 ******    1 imaginary frequencies (negative Signs) ****** 
 Diagonal vibrational polarizability:
        2.6672563       5.4148052       3.5043744
 Harmonic frequencies (cm**-1), IR intensities (KM/Mole), Raman scattering
 activities (A**4/AMU), depolarization ratios for plane and unpolarized
 incident light, reduced masses (AMU), force constants (mDyne/A),
 and normal coordinates:
                      1                      2                      3
                      A                      A                      A
 Frequencies --   -424.2604               220.0854               259.0694
 Red. masses --      1.9600                 2.2059                 2.2867
 Frc consts  --      0.2079                 0.0630                 0.0904
 IR Inten    --      0.1681                 0.2858                 0.9168
  Atom  AN      X      Y      Z        X      Y      Z        X      Y      Z
     1   1    -0.07   0.34  -0.12     0.05   0.43  -0.07    -0.23   0.08  -0.11
     2   6    -0.06   0.07  -0.12     0.02   0.19  -0.07    -0.09  -0.02  -0.11
     3   1    -0.06  -0.35  -0.11     0.00   0.01  -0.03    -0.04  -0.38  -0.21
     4   6     0.03  -0.04  -0.06    -0.00  -0.05  -0.07     0.02   0.13   0.03
     5   1    -0.05  -0.11  -0.01    -0.04  -0.10  -0.05     0.08   0.34   0.14
     6   6     0.14  -0.01   0.03    -0.03  -0.08  -0.07    -0.06  -0.03  -0.05
     7   1     0.44   0.22   0.16    -0.07  -0.05  -0.14    -0.21  -0.17  -0.09
     8   6    -0.06  -0.10   0.03     0.01   0.06   0.16     0.05   0.02  -0.07
     9   1    -0.17  -0.14   0.00     0.15   0.41   0.17    -0.12  -0.06  -0.09
    10   1     0.02  -0.08  -0.09    -0.11  -0.03   0.53     0.12   0.01  -0.15
    11   6    -0.05   0.05   0.13     0.00  -0.14   0.02     0.11  -0.08   0.21
    12   1    -0.09  -0.03   0.31     0.13  -0.12  -0.16     0.01   0.09   0.04
    13   1    -0.07   0.36  -0.23    -0.15  -0.25   0.01     0.23  -0.24   0.47
                      4                      5                      6
                      A                      A                      A
 Frequencies --    371.2300               547.5531               589.4000
 Red. masses --      2.2698                 1.2925                 1.3227
 Frc consts  --      0.1843                 0.2283                 0.2707
 IR Inten    --      6.1416                 8.7439                 3.0907
  Atom  AN      X      Y      Z        X      Y      Z        X      Y      Z
     1   1    -0.12   0.12  -0.05    -0.31  -0.25  -0.11     0.09  -0.20   0.03
     2   6     0.04  -0.06  -0.05     0.02   0.02  -0.10    -0.02  -0.05   0.03
     3   1     0.12  -0.34  -0.21     0.17   0.60  -0.40    -0.08   0.03   0.13
     4   6     0.13   0.09   0.09     0.07  -0.01   0.07    -0.04   0.11  -0.03
     5   1     0.26   0.40   0.20    -0.03  -0.16   0.07    -0.01   0.18  -0.00
     6   6    -0.07  -0.14  -0.02     0.02   0.01   0.03    -0.02  -0.02  -0.07
     7   1    -0.02  -0.08  -0.01    -0.26  -0.18  -0.11    -0.01  -0.07  -0.01
     8   6    -0.02  -0.07   0.08    -0.03  -0.01   0.02     0.04  -0.03   0.01
     9   1     0.08   0.15   0.09    -0.02  -0.03   0.02     0.15   0.26   0.01
    10   1     0.03  -0.18   0.30    -0.08   0.02  -0.01    -0.04  -0.10   0.26
    11   6    -0.09   0.14  -0.10    -0.03   0.00   0.02     0.03  -0.00   0.02
    12   1    -0.19   0.30  -0.27    -0.01  -0.16   0.26     0.14  -0.40   0.57
    13   1    -0.05   0.18  -0.11    -0.02   0.04  -0.00    -0.03   0.28  -0.33
                      7                      8                      9
                      A                      A                      A
 Frequencies --    655.5743               709.3086               755.1661
 Red. masses --      1.4965                 1.3127                 1.2554
 Frc consts  --      0.3789                 0.3891                 0.4218
 IR Inten    --     10.3456                47.2286                51.5255
  Atom  AN      X      Y      Z        X      Y      Z        X      Y      Z
     1   1     0.11  -0.21  -0.00     0.08   0.19  -0.00     0.04   0.77  -0.00
     2   6    -0.02   0.01  -0.00    -0.00  -0.08  -0.00    -0.01  -0.10  -0.00
     3   1    -0.08   0.39   0.10     0.01   0.59  -0.04     0.01   0.25  -0.05
     4   6    -0.06   0.07  -0.05    -0.03   0.05  -0.02    -0.00  -0.08   0.02
     5   1    -0.08   0.18   0.09     0.03   0.22   0.05     0.15   0.22   0.09
     6   6     0.13  -0.03  -0.05    -0.01  -0.02  -0.05    -0.02   0.02   0.01
     7   1     0.29   0.04   0.08     0.17   0.12   0.02     0.04   0.09  -0.00
     8   6    -0.00  -0.09   0.03     0.00  -0.01   0.07     0.01   0.03  -0.05
     9   1     0.02   0.12   0.02    -0.25  -0.14   0.02     0.13   0.07  -0.02
    10   1    -0.06  -0.11   0.18     0.17   0.00  -0.16    -0.09   0.04   0.04
    11   6    -0.06   0.02  -0.02     0.03  -0.05   0.08    -0.00   0.03  -0.03
    12   1    -0.22   0.12  -0.00     0.09   0.17  -0.37    -0.02  -0.17   0.33
    13   1     0.23  -0.30   0.57    -0.21   0.14  -0.33     0.14  -0.07   0.20
                     10                     11                     12
                      A                      A                      A
 Frequencies --    776.6095               826.7609               892.6953
 Red. masses --      1.3963                 1.4880                 1.4836
 Frc consts  --      0.4962                 0.5993                 0.6966
 IR Inten    --     10.2342                 9.7607                 4.5541
  Atom  AN      X      Y      Z        X      Y      Z        X      Y      Z
     1   1    -0.01   0.17   0.04     0.14   0.16   0.01     0.03  -0.38  -0.02
     2   6    -0.03  -0.04   0.04    -0.03  -0.02   0.01     0.02   0.08  -0.02
     3   1    -0.02   0.05   0.01    -0.10  -0.14   0.15    -0.01  -0.01   0.06
     4   6    -0.00   0.01   0.01    -0.03   0.00  -0.00    -0.06  -0.16   0.02
     5   1    -0.09  -0.15   0.00    -0.04   0.15   0.18     0.27   0.71   0.38
     6   6     0.11   0.02   0.02     0.17  -0.04  -0.02     0.02  -0.00  -0.00
     7   1    -0.23  -0.30  -0.07    -0.43  -0.48  -0.28     0.04   0.07  -0.06
     8   6    -0.04   0.01  -0.10    -0.02   0.05   0.05    -0.03   0.04  -0.03
     9   1     0.15   0.34  -0.07    -0.23  -0.11   0.01     0.01   0.06  -0.03
    10   1    -0.25  -0.03   0.26     0.09   0.09  -0.19    -0.10   0.06   0.00
    11   6     0.01  -0.07   0.05    -0.04   0.06  -0.03     0.02  -0.02   0.02
    12   1    -0.35   0.35  -0.22     0.24  -0.15  -0.00    -0.07   0.06   0.00
    13   1     0.18   0.33  -0.23    -0.29  -0.14  -0.01     0.07   0.16  -0.14
                     13                     14                     15
                      A                      A                      A
 Frequencies --    928.2475              1028.6673              1062.3311
 Red. masses --      1.8720                 1.5639                 1.6571
 Frc consts  --      0.9503                 0.9750                 1.1018
 IR Inten    --      3.7871                 0.0182                13.8160
  Atom  AN      X      Y      Z        X      Y      Z        X      Y      Z
     1   1     0.39   0.06  -0.10     0.64  -0.09  -0.14     0.02  -0.01   0.01
     2   6     0.04  -0.01  -0.10    -0.01  -0.02  -0.15    -0.04  -0.00   0.01
     3   1    -0.08  -0.03   0.15    -0.27   0.14   0.40    -0.10  -0.02   0.12
     4   6    -0.04   0.03  -0.08     0.06   0.01   0.07     0.04   0.03   0.05
     5   1     0.04   0.16  -0.07    -0.22  -0.19   0.31    -0.16  -0.18   0.16
     6   6    -0.05   0.14   0.08    -0.05  -0.05   0.07     0.01  -0.12  -0.08
     7   1    -0.44  -0.12  -0.11     0.08   0.01   0.16     0.15   0.23  -0.26
     8   6     0.02  -0.11   0.13     0.00   0.05  -0.08    -0.05   0.10   0.09
     9   1     0.25  -0.43   0.20     0.06   0.12  -0.07    -0.11  -0.26   0.09
    10   1    -0.10   0.02  -0.04     0.04  -0.02   0.03    -0.34   0.36  -0.22
    11   6     0.02  -0.04  -0.03    -0.03   0.01   0.03     0.07  -0.04  -0.07
    12   1    -0.25   0.11   0.05     0.07  -0.01  -0.05    -0.24   0.03   0.18
    13   1     0.28   0.15  -0.01    -0.15  -0.04  -0.02     0.43   0.19  -0.02
                     16                     17                     18
                      A                      A                      A
 Frequencies --   1132.7368              1154.9603              1218.4360
 Red. masses --      2.1329                 1.9629                 1.2525
 Frc consts  --      1.6124                 1.5427                 1.0955
 IR Inten    --     17.1548                 0.4015                 6.4983
  Atom  AN      X      Y      Z        X      Y      Z        X      Y      Z
     1   1     0.02   0.01   0.00     0.11   0.01  -0.06    -0.05  -0.03   0.02
     2   6    -0.06   0.01  -0.00     0.09  -0.02  -0.04    -0.02  -0.00   0.02
     3   1    -0.15   0.04   0.17     0.19  -0.02  -0.23    -0.01   0.06  -0.00
     4   6     0.06  -0.03   0.04    -0.09   0.05  -0.06     0.01   0.02  -0.02
     5   1     0.03  -0.07   0.04     0.07   0.11  -0.26     0.01   0.03  -0.02
     6   6    -0.01   0.09  -0.01    -0.00  -0.10   0.12     0.03  -0.04  -0.00
     7   1    -0.13   0.24  -0.30     0.13  -0.39   0.58     0.02   0.18  -0.23
     8   6    -0.16  -0.14   0.01    -0.14   0.06  -0.00    -0.10   0.01  -0.05
     9   1    -0.47   0.26  -0.08    -0.18  -0.01  -0.01     0.70  -0.46   0.14
    10   1    -0.12  -0.26   0.25    -0.33   0.12   0.06    -0.10  -0.08   0.17
    11   6     0.19   0.06  -0.04     0.11   0.03  -0.02     0.03   0.04   0.06
    12   1     0.42  -0.03  -0.15     0.21  -0.04  -0.00     0.25  -0.00  -0.13
    13   1     0.15  -0.07   0.05     0.13  -0.01   0.03    -0.17  -0.08   0.01
                     19                     20                     21
                      A                      A                      A
 Frequencies --   1266.1657              1307.9538              1399.5511
 Red. masses --      1.2624                 1.3006                 1.3590
 Frc consts  --      1.1924                 1.3110                 1.5684
 IR Inten    --     18.0812                 6.4782                 2.7426
  Atom  AN      X      Y      Z        X      Y      Z        X      Y      Z
     1   1     0.05   0.08   0.00    -0.01   0.00  -0.00    -0.35   0.05   0.02
     2   6     0.11  -0.02   0.01     0.01  -0.00  -0.00     0.00  -0.00   0.01
     3   1     0.28  -0.17  -0.31     0.03  -0.00  -0.03    -0.15   0.02   0.29
     4   6    -0.09   0.02  -0.02    -0.01   0.01  -0.01     0.08  -0.04  -0.03
     5   1    -0.56  -0.09   0.63    -0.06  -0.01   0.06    -0.15  -0.03   0.34
     6   6    -0.01   0.03  -0.01     0.02   0.00   0.02    -0.03   0.08  -0.12
     7   1    -0.01   0.15  -0.11     0.00  -0.01   0.01     0.10  -0.43   0.54
     8   6     0.00  -0.03  -0.01    -0.10   0.10   0.01    -0.04  -0.01   0.03
     9   1     0.00   0.04  -0.01    -0.01  -0.10   0.04     0.18  -0.11   0.08
    10   1    -0.06  -0.01   0.01     0.80  -0.42   0.16    -0.04   0.03  -0.05
    11   6     0.01   0.01   0.01     0.00  -0.06  -0.05    -0.00   0.01   0.01
    12   1     0.06  -0.01  -0.01    -0.12  -0.05   0.10     0.16  -0.04  -0.10
    13   1    -0.02  -0.01   0.01     0.28   0.09   0.01     0.12   0.07   0.03
                     22                     23                     24
                      A                      A                      A
 Frequencies --   1424.1943              1482.8006              1498.1701
 Red. masses --      1.1128                 1.2781                 1.4311
 Frc consts  --      1.3298                 1.6557                 1.8925
 IR Inten    --     12.4196                 7.5345                 1.3360
  Atom  AN      X      Y      Z        X      Y      Z        X      Y      Z
     1   1    -0.09   0.01   0.00     0.47  -0.04   0.02     0.45  -0.04   0.02
     2   6     0.00  -0.00   0.00    -0.06   0.02   0.02    -0.07   0.02   0.03
     3   1    -0.03   0.02   0.07     0.15  -0.06  -0.37     0.13  -0.05  -0.35
     4   6     0.02  -0.00  -0.02    -0.01  -0.02   0.07     0.01  -0.03   0.07
     5   1    -0.04   0.01   0.07     0.08  -0.05  -0.08     0.05  -0.06  -0.02
     6   6    -0.01   0.01  -0.00     0.01   0.03  -0.07     0.00   0.06  -0.10
     7   1    -0.01  -0.02   0.04     0.04  -0.08   0.07     0.08  -0.18   0.21
     8   6     0.07   0.04  -0.04     0.03   0.01  -0.00    -0.05  -0.01   0.02
     9   1    -0.42  -0.54  -0.09    -0.05  -0.17  -0.01     0.11  -0.06   0.05
    10   1    -0.19  -0.12   0.63    -0.06  -0.01   0.14     0.04  -0.04  -0.01
    11   6     0.00   0.00  -0.01    -0.09  -0.01   0.02     0.10   0.01  -0.02
    12   1    -0.13   0.04   0.08     0.41  -0.19  -0.25    -0.39   0.19   0.25
    13   1    -0.12  -0.06  -0.04     0.40   0.28   0.10    -0.40  -0.29  -0.09
                     25                     26                     27
                      A                      A                      A
 Frequencies --   1590.1841              3015.9364              3049.7641
 Red. masses --      4.0787                 1.0579                 1.0823
 Frc consts  --      6.0767                 5.6694                 5.9309
 IR Inten    --     24.9344                12.5825                28.5033
  Atom  AN      X      Y      Z        X      Y      Z        X      Y      Z
     1   1    -0.30   0.13  -0.17    -0.00  -0.00  -0.00    -0.00  -0.00  -0.09
     2   6     0.21  -0.03  -0.16     0.00  -0.00  -0.00     0.00   0.00   0.01
     3   1    -0.07  -0.15   0.45     0.00   0.00   0.00     0.00   0.00   0.00
     4   6    -0.25   0.01   0.33    -0.00   0.00  -0.00    -0.06   0.04  -0.04
     5   1     0.13  -0.20  -0.49     0.02  -0.01   0.01     0.73  -0.46   0.47
     6   6     0.06   0.05  -0.17    -0.00   0.00   0.00     0.00  -0.00  -0.00
     7   1     0.15   0.02  -0.05     0.04  -0.02  -0.02    -0.06   0.06   0.05
     8   6    -0.01  -0.01   0.00     0.03   0.04  -0.05     0.00   0.00   0.01
     9   1     0.05  -0.12   0.01    -0.16   0.06   0.79     0.01  -0.00  -0.07
    10   1     0.01  -0.06   0.10    -0.24  -0.48  -0.22    -0.03  -0.06  -0.02
    11   6    -0.00   0.01   0.01    -0.00   0.00  -0.00    -0.00  -0.00  -0.00
    12   1     0.01   0.01  -0.01     0.00   0.00   0.00     0.00   0.00   0.00
    13   1    -0.04   0.02  -0.02     0.00   0.00  -0.01    -0.00   0.00   0.00
                     28                     29                     30
                      A                      A                      A
 Frequencies --   3061.7036              3129.7194              3139.1124
 Red. masses --      1.1025                 1.0655                 1.0879
 Frc consts  --      6.0889                 6.1491                 6.3161
 IR Inten    --     13.1636                25.1791                 9.1858
  Atom  AN      X      Y      Z        X      Y      Z        X      Y      Z
     1   1    -0.00  -0.00  -0.01     0.01  -0.00   0.91    -0.00  -0.00   0.16
     2   6     0.00   0.00   0.00     0.03   0.00  -0.06     0.00  -0.00  -0.01
     3   1    -0.00   0.00  -0.00    -0.31  -0.00  -0.18    -0.03   0.00  -0.02
     4   6    -0.01   0.00  -0.00    -0.01   0.00  -0.00    -0.01   0.01  -0.01
     5   1     0.08  -0.05   0.05     0.05  -0.03   0.03     0.07  -0.05   0.05
     6   6    -0.00   0.00   0.00     0.01  -0.01  -0.01    -0.05   0.04   0.05
     7   1     0.04  -0.03  -0.03    -0.11   0.10   0.09     0.62  -0.53  -0.53
     8   6    -0.02  -0.06  -0.07    -0.00   0.00  -0.00    -0.00   0.00   0.01
     9   1    -0.12   0.02   0.55    -0.00   0.00   0.01     0.01  -0.00  -0.08
    10   1     0.34   0.68   0.28     0.00  -0.00   0.00    -0.01  -0.02  -0.01
    11   6     0.00   0.00   0.00     0.00   0.00   0.00    -0.00  -0.00  -0.00
    12   1    -0.01  -0.03  -0.01    -0.00  -0.00  -0.00     0.01   0.02   0.01
    13   1     0.02  -0.02  -0.02     0.00  -0.00   0.00     0.01  -0.01  -0.01
                     31                     32                     33
                      A                      A                      A
 Frequencies --   3167.2289              3254.3845              3271.0377
 Red. masses --      1.0516                 1.1030                 1.1189
 Frc consts  --      6.2150                 6.8828                 7.0535
 IR Inten    --      3.8494                11.2563                 2.0121
  Atom  AN      X      Y      Z        X      Y      Z        X      Y      Z
     1   1     0.00  -0.00  -0.01    -0.01   0.00   0.33     0.00   0.00  -0.02
     2   6     0.00  -0.00   0.00    -0.07  -0.00  -0.06     0.01   0.00   0.00
     3   1    -0.01   0.00  -0.01     0.83   0.00   0.42    -0.07  -0.00  -0.03
     4   6     0.00  -0.00   0.00    -0.00   0.00  -0.00     0.00  -0.00  -0.00
     5   1    -0.00   0.00  -0.00     0.02  -0.01   0.02    -0.00  -0.00  -0.00
     6   6     0.00  -0.00  -0.00     0.00  -0.00  -0.00     0.00  -0.00   0.00
     7   1    -0.02   0.02   0.01    -0.02   0.01   0.01    -0.00   0.00   0.00
     8   6     0.00  -0.00  -0.00    -0.00  -0.00  -0.00    -0.00  -0.00  -0.00
     9   1    -0.00  -0.00  -0.00    -0.00  -0.00   0.00    -0.01   0.00   0.03
    10   1     0.00   0.01   0.00     0.00   0.01   0.00     0.02   0.03   0.01
    11   6    -0.06  -0.01   0.01    -0.00  -0.01  -0.01     0.00  -0.08  -0.06
    12   1     0.38   0.55   0.33     0.03   0.05   0.02     0.35   0.48   0.28
    13   1     0.31  -0.43  -0.39    -0.02   0.03   0.03    -0.37   0.47   0.44

 -------------------
 - Thermochemistry -
 -------------------
 Temperature   298.150 Kelvin.  Pressure   1.00000 Atm.
 Atom     1 has atomic number  1 and mass   1.00783
 Atom     2 has atomic number  6 and mass  12.00000
 Atom     3 has atomic number  1 and mass   1.00783
 Atom     4 has atomic number  6 and mass  12.00000
 Atom     5 has atomic number  1 and mass   1.00783
 Atom     6 has atomic number  6 and mass  12.00000
 Atom     7 has atomic number  1 and mass   1.00783
 Atom     8 has atomic number  6 and mass  12.00000
 Atom     9 has atomic number  1 and mass   1.00783
 Atom    10 has atomic number  1 and mass   1.00783
 Atom    11 has atomic number  6 and mass  12.00000
 Atom    12 has atomic number  1 and mass   1.00783
 Atom    13 has atomic number  1 and mass   1.00783
 Molecular mass:    68.06260 amu.
 Principal axes and moments of inertia in atomic units:
                           1         2         3
     Eigenvalues --   211.90597 402.44822 565.69120
           X            0.07056   0.93110   0.35788
           Y           -0.51827  -0.27233   0.81070
           Z            0.85230  -0.24269   0.46334
 This molecule is an asymmetric top.
 Rotational symmetry number  1.
 Rotational temperatures (Kelvin)      0.40874     0.21522     0.15311
 Rotational constants (GHZ):           8.51671     4.48441     3.19033
    1 imaginary frequencies ignored.
 Zero-point vibrational energy     288220.7 (Joules/Mol)
                                   68.88640 (Kcal/Mol)
 Warning -- explicit consideration of   5 degrees of freedom as
           vibrations may cause significant error
 Vibrational temperatures:    316.65   372.74   534.12   787.81   848.02
          (Kelvin)            943.23  1020.54  1086.52  1117.37  1189.52
                             1284.39  1335.54  1480.02  1528.46  1629.76
                             1661.73  1753.06  1821.73  1881.85  2013.64
                             2049.10  2133.42  2155.53  2287.92  4339.26
                             4387.93  4405.11  4502.97  4516.48  4556.94
                             4682.33  4706.29
 
 Zero-point correction=                           0.109777 (Hartree/Particle)
 Thermal correction to Energy=                    0.115074
 Thermal correction to Enthalpy=                  0.116018
 Thermal correction to Gibbs Free Energy=         0.081959
 Sum of electronic and zero-point Energies=           -195.168649
 Sum of electronic and thermal Energies=              -195.163353
 Sum of electronic and thermal Enthalpies=            -195.162408
 Sum of electronic and thermal Free Energies=         -195.196467
 
                     E (Thermal)             CV                S
                      KCal/Mol        Cal/Mol-Kelvin    Cal/Mol-Kelvin
 Total                   72.210             20.043             71.682
 Electronic               0.000              0.000              0.000
 Translational            0.889              2.981             38.571
 Rotational               0.889              2.981             25.381
 Vibrational             70.433             14.081              7.730
[...]
   A13        2.14515  -0.00001   0.00000  -0.00002  -0.00002   2.14513
    D4        2.95291  -0.00000   0.00000  -0.00008  -0.00008   2.95283
    D5       -0.36973   0.00000   0.00000   0.00007   0.00007  -0.36966
    D6        3.10378   0.00000   0.00000  -0.00001  -0.00001   3.10377
    D7        2.63792  -0.00000   0.00000   0.00001   0.00001   2.63792
    D8        3.11840  -0.00000   0.00000  -0.00002  -0.00002   3.11838
    D9        2.92182   0.00000   0.00000   0.00001   0.00001   2.92183
   D10        2.06980   0.00000   0.00000  -0.00000  -0.00000   2.06980
   D11       -2.05973  -0.00000   0.00000  -0.00001  -0.00001  -2.05974
   D12        1.16975  -0.00000   0.00000  -0.00006  -0.00006   1.16970
   D13       -3.15146   0.00000   0.00000   0.00007   0.00007  -3.15139
         Item               Value     Threshold  Converged?
 Maximum Force            0.000010     0.000450     YES
 RMS     Force            0.000003     0.000300     YES
 Maximum Displacement     0.000082     0.001800     YES
 RMS     Displacement     0.000027     0.001200     YES
 Predicted change in Energy=-5.908203D-10
 Optimization completed.
    -- Stationary point found.
                       ----------------------------
                       !   Optimized Parameters   !
                       ! (Angstroms and Degrees)  !
 ----------------------                            ----------------------
 !      Name          Value   Derivative information (Atomic Units)     !
 ------------------------------------------------------------------------
 !       R2          1.0853   -DE/DX =    0.0                           !
 !       R3          1.0769   -DE/DX =    0.0                           !
 !       R4          1.3724   -DE/DX =    0.0                           !
 !       R5          1.0936   -DE/DX =    0.0                           !
 !       R6          1.3879   -DE/DX =    0.0                           !
 !       R7          1.0863   -DE/DX =    0.0                           !
 !       R8          1.5076   -DE/DX =    0.0                           !
 !       R9          1.0954   -DE/DX =    0.0                           !
 !       R10         1.0925   -DE/DX =    0.0                           !
 !       R11         1.4555   -DE/DX =    0.0                           !
 !       R12         1.0804   -DE/DX =    0.0                           !
 !       R13         1.0789   -DE/DX =    0.0                           !
 !       A3        116.9296   -DE/DX =    0.0                           !
 !       A4        121.1089   -DE/DX =    0.0                           !
 !       A5        117.3797   -DE/DX =    0.0                           !
 !       A6        128.0488   -DE/DX =    0.0                           !
 !       A7        118.9827   -DE/DX =    0.0                           !
 !       A8        123.6665   -DE/DX =    0.0                           !
 !       A9        107.7848   -DE/DX =    0.0                           !
 !       A10       112.468    -DE/DX =    0.0                           !
 !       A11       103.1642   -DE/DX =    0.0                           !
 !       A12       119.0184   -DE/DX =    0.0                           !
 !       A13       122.9082   -DE/DX =    0.0                           !
 !       D4        169.1891   -DE/DX =    0.0                           !
 !       D5        -21.184    -DE/DX =    0.0                           !
 !       D6        177.8333   -DE/DX =    0.0                           !
 !       D7        151.1416   -DE/DX =    0.0                           !
 !       D8        178.6714   -DE/DX =    0.0                           !
 !       D9        167.4079   -DE/DX =    0.0                           !
 !       D10       118.5911   -DE/DX =    0.0                           !
 !       D11      -118.0136   -DE/DX =    0.0                           !
 !       D12        67.022    -DE/DX =    0.0                           !
 !       D13      -180.5652   -DE/DX =    0.0                           !
 ------------------------------------------------------------------------
 GradGradGradGradGradGradGradGradGradGradGradGradGradGradGradGradGradGrad


 ----------------------------------------------------------------------

 Electric dipole moment (input orientation):
 (Debye = 10**-18 statcoulomb cm , SI units = C m)
                  (au)            (Debye)         (10**-30 SI)
   Tot        0.706133D+00      0.179481D+01      0.598684D+01
   x         -0.120918D+00     -0.307343D+00     -0.102519D+01
   y         -0.192308D+00     -0.488798D+00     -0.163046D+01
   z          0.668595D+00      0.169940D+01      0.566859D+01

 Dipole polarizability, Alpha (input orientation).
 (esu units = cm**3 , SI units = C**2 m**2 J**-1)
 Alpha(0;0):
               (au)            (10**-24 esu)      (10**-40 SI)
   iso        0.745260D+02      0.110436D+02      0.122877D+02
   aniso      0.484763D+02      0.718345D+01      0.799267D+01
   xx         0.733365D+02      0.108674D+02      0.120916D+02
   yx        -0.136727D+02     -0.202609D+01     -0.225432D+01
   yy         0.616454D+02      0.913490D+01      0.101639D+02
   zx         0.222725D+01      0.330044D+00      0.367223D+00
   zy        -0.202181D+02     -0.299601D+01     -0.333351D+01
   zz         0.885960D+02      0.131286D+02      0.146075D+02

 ----------------------------------------------------------------------

 Dipole orientation:
     1          0.00000000          0.00000000          0.00000000
     6          0.35121348          0.55857047          1.94197537
     1          2.29602825          0.76610741          2.50393298
     6         -1.57751682          1.37635658          3.47074581
     1         -3.28753542          2.08093769          2.54870622
     6         -1.68142760          1.35862820          6.09144102
     1         -2.80622381          2.78217468          7.05199082
     6         -0.35496576         -0.57334006          7.71163241
     1         -0.40086968          0.10298209          9.66749907
     1         -1.28402785         -2.41624689          7.66207479
     6          2.20619759         -0.57969751          6.70872974
     1          3.36650125          1.08339856          6.94518700
     1          3.01505060         -2.18497335          5.74662111

 Electric dipole moment (dipole orientation):
 (Debye = 10**-18 statcoulomb cm , SI units = C m)
                  (au)            (Debye)         (10**-30 SI)
   Tot        0.706133D+00      0.179481D+01      0.598684D+01
   x          0.000000D+00      0.000000D+00      0.000000D+00
   y          0.000000D+00      0.000000D+00      0.000000D+00
   z          0.706133D+00      0.179481D+01      0.598684D+01

 Dipole polarizability, Alpha (dipole orientation).
 (esu units = cm**3 , SI units = C**2 m**2 J**-1)
 Alpha(0;0):
               (au)            (10**-24 esu)      (10**-40 SI)
   iso        0.745260D+02      0.110436D+02      0.122877D+02
   aniso      0.484763D+02      0.718345D+01      0.799267D+01
   xx         0.753396D+02      0.111642D+02      0.124218D+02
   yx        -0.145906D+02     -0.216210D+01     -0.240566D+01
   yy         0.536592D+02      0.795147D+01      0.884720D+01
   zx         0.942252D+01      0.139627D+01      0.155356D+01
   zy        -0.790840D+01     -0.117190D+01     -0.130392D+01
   zz         0.945791D+02      0.140152D+02      0.155940D+02

 ----------------------------------------------------------------------
 1\1\GINC-BHC0069\Freq\RB3LYP\def2TZVP\C5H8\DHANAWAY\10-Jun-2022\1\\#N 
 Geom=AllCheck Guess=TCheck SCRF=Check GenChk RB3LYP/def2TZVP Freq\\ts_
 zmat_initalOpt\\0,1\H\C,1,R2\H,2,R3,1,A3\C,2,R4,1,A4,3,D4,0\H,4,R5,2,A
 5,1,D5,0\C,4,R6,2,A6,5,D6,0\H,6,R7,4,A7,2,D7,0\C,6,R8,4,A8,7,D8,0\H,8,
 R9,6,A9,4,D9,0\H,8,R10,6,A10,9,D10,0\C,8,R11,6,A11,9,D11,0\H,11,R12,8,
 A12,6,D12,0\H,11,R13,8,A13,12,D13,0\\R2=1.08534494\R3=1.07686879\R4=1.
 37238758\R5=1.09358733\R6=1.38793359\R7=1.08633612\R8=1.50764644\R9=1.
 09540107\R10=1.09245529\R11=1.45551746\R12=1.0803649\R13=1.07889965\A3
 =116.92955093\A4=121.10894432\A5=117.37968416\A6=128.04882881\A7=118.9
 8273397\A8=123.66654924\A9=107.78477022\A10=112.46795232\A11=103.16420
 124\A12=119.01843068\A13=122.9081767\D4=169.18913881\D5=-21.18404146\D
 6=177.83334785\D7=151.14158398\D8=178.67137505\D9=167.40790743\D10=118
 .59105408\D11=-118.01359734\D12=67.02196652\D13=-180.56515404\\Version
 =ES64L-G16RevA.03\HF=-195.2784265\RMSD=1.217e-09\RMSF=7.353e-05\ZeroPo
 int=0.1097775\Thermal=0.1150739\Dipole=-0.120918,-0.1923081,0.6685954\
 DipoleDeriv=0.0807615,0.0059079,0.0017072,0.0010936,0.1526477,0.044980
 6,0.0494099,0.0043233,-0.1780858,-0.1905689,-0.1025531,0.3639005,-0.03
 62321,-0.3397508,-0.1270727,0.0928466,0.1171614,-0.0490737,0.0315001,-
 0.0318288,0.021549,-0.0089741,0.1464947,0.0123042,-0.0315822,-0.018757
 3,-0.073529,0.113541,-0.0192441,-0.2463648,-0.0385621,-0.1742676,-0.07
 20728,-0.1110392,-0.1221487,0.2674328,-0.0440617,0.1170143,-0.0798462,
 0.1243143,0.0566455,0.0828062,-0.0872301,0.0742652,0.0243187,-0.121255
 4,-0.1978267,-0.0942416,-0.1427363,-0.060834,0.1974356,0.0091509,-0.02
 74892,-0.1768586,0.0269164,0.1014466,0.0808342,0.0881453,0.0739148,-0.
 0689686,0.0621669,-0.0078324,0.010875,0.0334904,0.0001236,0.2725922,0.
 0380344,0.1753579,-0.1869649,0.058196,0.0311298,0.0411575,0.1301141,-0
 .0379812,0.0729253,0.019518,0.0765995,0.0038312,0.0428099,-0.0023839,-
 0.0393316,0.0505804,-0.0800754,-0.0018091,-0.1003161,-0.0723454,0.0076
 291,-0.0487564,-0.0742239,0.0566023,-0.1190292,0.2522814,-0.4106197,0.
 0720375,-0.0674615,0.197151,-0.07188,0.1373768,0.0205524,0.005003,-0.0
 146593,0.0025978,-0.0440293,-0.0075397,-0.0237427,0.0029795,-0.0427023
 ,0.0487973,0.0030083,0.0073948,0.0167751,0.0277068,0.0405391,-0.067316
 2,0.0329281,-0.0687188,0.0471427\Polar=73.3365245,-13.6727006,61.64537
 59,2.2272468,-20.2180663,88.5959555\PG=C01 [X(C5H8)]\NImag=1\\0.051615
 69,-0.00371616,0.01729052,0.00004218,0.00006918,0.34968145,-0.05535320
 ,0.01177500,-0.00262355,0.67999128,0.00700911,-0.03091624,0.00040823,-
 0.04533345,0.08508395,-0.00608015,0.00220196,-0.32641896,-0.03996338,0
 .02951667,0.63552894,0.00337834,0.00190535,0.00251373,-0.28706825,-0.0
 0421744,-0.11978206,0.30371955,-0.00180333,0.00165932,-0.00050790,-0.0
 1867860,-0.00838774,-0.00948714,-0.00212191,0.01457975,-0.02403632,0.0
 0248750,-0.00946274,-0.12189027,-0.01201335,-0.11149258,0.13040449,0.0
 0372440,0.11829679,0.00290013,-0.00896080,-0.00320190,-0.30587812,0.03
 622201,0.13320634,-0.01984696,0.02142051,0.01332675,0.59654544,-0.0031
 4624,0.00151775,0.00142303,0.05196319,-0.05666724,-0.03006837,0.003099
 40,0.00210619,0.00389576,-0.16039512,0.25015838,0.02810796,0.00687260,
 -0.01365384,0.11348227,0.00044968,-0.17190596,-0.01407936,-0.01722673,
 0.00641255,-0.10106699,-0.12320329,0.61130870,0.00039719,-0.00247943,0
 .00055922,-0.02507205,0.01271332,-0.00988649,-0.00274771,0.00421659,0.
 00143650,-0.17984185,0.09535727,-0.09298588,0.20380213,-0.00094657,-0.
 00187546,0.00014455,-0.00591914,0.00618200,0.00837224,0.00054200,0.001
 98064,0.00020883,0.10625045,-0.09492398,0.03716903,-0.10634715,0.09149
 495,-0.00085996,-0.00071849,0.00062872,0.00813215,-0.00194956,0.011875
 80,0.00292548,0.00026162,-0.00001292,-0.08293736,0.05354751,-0.1175781
 9,0.09255671,-0.07024977,0.11498052,-0.00227672,-0.00124946,0.00238259
 ,-0.00428315,-0.00600053,0.03098284,0.00251278,0.00095956,0.00206737,-
 0.08929546,0.00971831,0.08135457,0.00394638,0.00691160,-0.01873802,0.3
 0813575,0.00233487,0.00985979,-0.00354464,0.00178787,0.01272598,-0.000
 08509,-0.00075591,-0.00820939,-0.00203226,0.00042595,-0.09425489,0.067
 19185,-0.00304347,-0.00671037,0.01505706,-0.16067644,0.40480246,0.0017
 8997,-0.00457797,0.00076874,0.03960832,-0.01345851,-0.03932836,-0.0013
 0859,0.01212218,0.00061969,0.04165044,0.07525655,-0.30084836,0.0059649
 4,0.01882893,-0.00718730,-0.17478900,-0.05947454,0.58452145,-0.0006978
 4,-0.00267279,0.00079611,0.00926550,-0.00011973,0.00298151,0.00067584,
 0.00289526,-0.00098085,-0.00861608,0.00448368,0.01466098,0.00021460,-0
 .00186649,0.00066661,-0.15605315,0.10371280,0.09427070,0.15283988,-0.0
 0038800,-0.00096842,0.00108508,0.00455845,0.00004004,0.00197596,0.0006
 1600,0.00139754,-0.00034644,-0.01270566,0.00549591,0.01427981,-0.00014
 448,-0.00096015,-0.00036149,0.10823291,-0.12459295,-0.08053170,-0.1180
 1288,0.13093697,0.00111272,-0.00013507,-0.00034967,0.00241430,0.000159
 62,-0.00339496,0.00038588,0.00105042,-0.00005253,0.01761477,-0.0161938
 1,-0.00563124,-0.00006606,0.00010010,0.00077373,0.09497185,-0.07912471
 ,-0.13513392,-0.11043670,0.07813295,0.14002106,-0.00036059,0.00243528,
 -0.00101816,-0.00527393,0.00181197,0.00575227,-0.00127476,-0.00414343,
 0.00113181,-0.00296872,-0.00349481,-0.02054472,0.00099708,0.00198469,-
 0.00370683,-0.04066394,0.03155530,0.00805344,-0.00358788,0.01212397,-0
 .01000712,0.47500140,0.00044622,0.00205970,0.00017252,-0.00671435,0.00
 200823,-0.00375432,-0.00028211,-0.00160848,0.00068419,0.01596267,-0.00
 992359,-0.00002215,-0.00156097,0.00279795,0.00188836,0.04436666,-0.161
 26029,0.03140528,0.01377963,-0.00678796,0.01631965,0.07702612,0.488414
 45,0.00018635,-0.00068851,0.00025666,-0.00805443,0.00404493,0.00043232
 ,0.00082286,-0.00132555,0.00085228,0.00511089,0.02766922,-0.02084754,0
 .00111195,0.00166700,-0.00274507,-0.01981802,0.04844167,-0.07408376,-0
 .00345547,-0.01698440,0.00071782,-0.03613336,0.06113414,0.52045940,-0.
 00018333,0.00008904,-0.00007533,-0.00094466,0.00057502,0.00049383,-0.0
 0034375,-0.00013995,-0.00014323,0.00065904,0.00214664,-0.00166566,-0.0
 0012801,0.00019187,-0.00015944,0.00273597,-0.00056362,-0.01634325,0.00
 121402,0.00044452,0.00014398,-0.05095414,-0.00324444,0.05369860,0.0598
 0355,-0.00012723,0.00012671,-0.00007993,0.00156217,0.00011077,0.000712
 56,-0.00016603,-0.00009596,-0.00010516,-0.00194603,-0.00351287,0.00098
 117,0.00011112,-0.00033755,0.00005333,-0.00082245,-0.00669174,0.027562
 59,-0.00028835,0.00178045,-0.00016401,-0.00376975,-0.03636274,-0.01904
 130,-0.00517872,0.04571716,-0.00000688,-0.00005762,0.00001551,-0.00095
 252,0.00041510,0.00029704,0.00004443,0.00022088,0.00011445,0.00002631,
 0.00158487,-0.00043158,0.00000252,0.00017060,-0.00031625,0.00311466,-0
 .00116763,-0.01781412,0.00115369,0.00029988,0.00236173,0.04291193,-0.0
 1871390,-0.28560462,-0.05329764,0.01596909,0.31480196,-0.00003442,-0.0
 0016136,-0.00001583,0.00058608,0.00020377,0.00036341,0.00004430,0.0001
 1324,-0.00032504,-0.00043978,0.00037875,0.00130727,-0.00011578,-0.0006
 0317,-0.00011331,0.00584820,0.01080048,0.00648017,-0.00177390,0.000884
 42,-0.00103152,-0.08875085,-0.08070588,-0.03947515,0.00240053,0.004385
 36,0.00156664,0.10038020,0.00008255,0.00056692,0.00006322,-0.00314206,
 0.00099264,0.00090009,0.00011931,-0.00095753,0.00045733,0.00398609,0.0
 0058137,-0.00522306,0.00000524,0.00001716,-0.00010887,-0.00258694,-0.0
 2561064,-0.00082828,0.00040035,-0.00231726,0.00119227,-0.09343342,-0.2
 2531438,-0.08052922,0.00014057,-0.00023096,-0.00078947,0.09530951,0.24
 684576,0.00007735,-0.00021087,-0.00006514,0.00093929,-0.00143717,-0.00
 031887,0.00004302,0.00043087,-0.00028220,-0.00240429,0.00165605,0.0030
 5081,-0.00000592,-0.00040831,-0.00004280,0.00506112,0.01466841,0.00146
 364,-0.00027275,0.00051809,0.00008009,-0.03779957,-0.07793210,-0.07661
 804,-0.01367110,-0.02484165,-0.00965621,0.04333185,0.08313286,0.079794
 81,0.00048962,0.00198083,0.00059562,-0.00544224,-0.00237126,0.00261050
 ,0.00066658,-0.00188112,-0.00007331,0.00617924,-0.00061671,-0.00677595
 ,-0.00126679,0.00005473,0.00232903,-0.03055658,0.01769837,-0.00890311,
 0.00630151,0.00338194,0.00485302,-0.26001485,-0.05307857,0.04044445,-0
 .01056199,0.00551784,0.00526828,-0.01587035,-0.00169797,0.00405037,0.5
 6201145,0.00035381,0.00245771,0.00117526,0.00714880,-0.01171034,-0.001
 68886,0.00072921,-0.00288476,0.00156799,-0.00004204,-0.00097265,0.0166
 1890,0.00095185,0.00203887,0.00260878,0.00031351,-0.00380004,-0.005676
 24,-0.00076114,-0.00370524,-0.00011715,-0.02459176,-0.05915575,-0.0248
 7150,0.00580673,-0.00100010,0.00048934,-0.02938186,0.00385227,0.003306
 26,0.06332981,0.44684805,-0.00059293,-0.00764758,-0.00183887,0.0109001
 1,-0.00843036,0.00626088,-0.00071002,0.01184416,-0.00188258,-0.0222454
 5,0.00472927,0.01475648,0.00170177,0.00473360,-0.00027073,-0.00658234,
 0.00392941,-0.01688799,-0.00114168,0.00112159,-0.00070446,0.05554839,-
 0.01736490,-0.06893538,0.03162348,-0.00141599,-0.00416154,-0.01655076,
 0.00158166,0.00135579,-0.08045961,0.25115213,0.29679270,0.00007848,0.0
 0038568,0.00004606,0.00024717,-0.00052399,0.00009530,0.00007733,-0.000
 29290,-0.00052192,-0.00015376,0.00038211,-0.00038897,-0.00001121,-0.00
 002612,-0.00005404,0.00007935,-0.00319479,0.00143507,-0.00022676,0.000
 02827,-0.00007832,-0.01270223,-0.01916347,-0.01331428,0.00076636,-0.00
 008127,0.00049969,-0.00442425,0.00085759,0.00121611,-0.12878968,-0.112
 62027,-0.05968743,0.13499311,-0.00000436,-0.00058802,-0.00010976,-0.00
 118983,0.00271034,0.00001560,0.00025544,0.00052073,0.00076926,0.001374
 72,-0.00041152,-0.00100219,-0.00013806,-0.00062206,-0.00031379,0.00551
 899,0.00403579,0.00112546,0.00016437,0.00032535,0.00000817,0.00083994,
 -0.00728619,0.00012784,0.00049611,0.00015090,-0.00035975,-0.00161929,0
 .00075110,0.00034272,-0.11864531,-0.20100086,-0.11291043,0.12366733,0.
 20958624,0.00027800,0.00047927,0.00028649,0.00131050,-0.00227315,0.000
 31992,-0.00020981,-0.00055043,-0.00168878,-0.00169132,0.00050494,0.001
 24738,0.00024179,0.00059610,0.00022938,-0.00588927,-0.00474151,-0.0003
 2323,-0.00046459,-0.00036262,-0.00033574,0.00484041,0.01580570,0.00556
 609,-0.00178872,0.00047745,0.00117805,0.00405565,0.00048794,0.00089965
 ,-0.05624934,-0.11530662,-0.09183279,0.06360390,0.11662319,0.08789516,
 0.00004666,0.00066883,-0.00000074,-0.00077442,0.00003120,-0.00077393,0
 .00020673,-0.00054392,-0.00039597,0.00075688,0.00012353,-0.00140552,-0
 .00017399,-0.00022669,-0.00004102,-0.00012944,-0.00008142,0.00209090,0
 .00044427,0.00098054,0.00012320,-0.00944658,0.01316849,0.01887561,-0.0
 0446358,0.00080333,-0.00033111,0.00215002,-0.00004082,-0.00056548,-0.1
 2314590,0.08876335,0.08819646,0.01006610,-0.01072005,-0.00803722,0.124
 46327,-0.00009466,-0.00119028,-0.00029884,0.00218194,-0.00217239,0.001
 38870,0.00027669,-0.00010031,0.00070194,-0.00159275,0.00080712,0.00311
 439,0.00035818,0.00091798,0.00028530,-0.00468571,-0.00029371,-0.001753
 75,-0.00171471,-0.00064428,-0.00122841,0.00165590,0.01241906,0.0003557
 0,-0.00076377,0.00034592,0.00193861,0.00039603,0.00082353,0.00077483,0
 .08632741,-0.17096716,-0.13132254,0.01058183,-0.00817180,-0.01174026,-
 0.09292638,0.16822631,-0.00001828,0.00192560,0.00015166,-0.00330279,0.
 00456788,-0.00185522,-0.00105005,-0.00055677,-0.00142143,0.00261181,-0
 .00080174,-0.00587921,-0.00063104,-0.00133291,-0.00033489,0.00588166,0
 .00088200,0.00423353,0.00222243,0.00117328,0.00164808,-0.00902849,-0.0
 0962246,0.00054985,0.00118446,-0.00010814,-0.00078441,0.00040661,-0.00
 033646,0.00033847,0.09231004,-0.12925829,-0.13265151,0.00714883,-0.004
 31632,-0.00344159,-0.09773520,0.13778434,0.13944667\\0.00013567,0.0002
 8560,0.00000066,-0.00013890,-0.00030171,0.00000011,-0.00000114,0.00001
 665,0.00000137,0.00000357,-0.00000113,0.00000102,0.00000085,0.00000093
 ,0.00000034,0.00000026,-0.00000201,-0.00000310,-0.00000005,-0.00000052
 ,0.00000006,0.00000895,0.00000191,-0.00000188,0.00000091,-0.00000009,0
 .00000017,-0.00000034,0.00000003,0.00000007,-0.00001255,0.00000090,0.0
 0000054,0.00000153,-0.00000314,-0.00000157,0.00000124,0.00000256,0.000
 00222\\\@


 The chemist is a guest at the physicist's table and
 frequently dines well.
                   -- Richard Bersohn
 Job cpu time:       0 days  0 hours 27 minutes 57.2 seconds.
 Elapsed time:       0 days  0 hours  2 minutes 21.2 seconds.
 File lengths (MBytes):  RWF=     52 Int=      0 D2E=      0 Chk=     32 Scr=      1
 Normal termination of Gaussian 16 at Fri Jun 10 22:50:50 2022.
