 Entering Gaussian System, Link 0=g16
 Input=ts_zmat_field_N100.gjf
 Output=ts_zmat_field_N100.out
 Initial command:
 /software/gaussian/g16-a03/l1.exe "/local_scratch/11174599/Gau-29947.inp" -scrdir="/local_scratch/11174599/"
 Entering Link 1 = /software/gaussian/g16-a03/l1.exe PID=     29948.
  
 Copyright (c) 1988,1990,1992,1993,1995,1998,2003,2009,2016,
            Gaussian, Inc.  All Rights Reserved.
  
 This is part of the Gaussian(R) 16 program.  It is based on
 the Gaussian(R) 09 system (copyright 2009, Gaussian, Inc.),
 the Gaussian(R) 03 system (copyright 2003, Gaussian, Inc.),
 the Gaussian(R) 98 system (copyright 1998, Gaussian, Inc.),
 the Gaussian(R) 94 system (copyright 1995, Gaussian, Inc.),
 the Gaussian 92(TM) system (copyright 1992, Gaussian, Inc.),
 the Gaussian 90(TM) system (copyright 1990, Gaussian, Inc.),
 the Gaussian 88(TM) system (copyright 1988, Gaussian, Inc.),
 the Gaussian 86(TM) system (copyright 1986, Carnegie Mellon
 University), and the Gaussian 82(TM) system (copyright 1983,
 Carnegie Mellon University). Gaussian is a federally registered
 trademark of Gaussian, Inc.
  
 This software contains proprietary and confidential information,
 including trade secrets, belonging to Gaussian, Inc.
  
 This software is provided under written license and may be
 used, copied, transmitted, or stored only in accord with that
 written license.
  
 The following legend is applicable only to US Government
 contracts under FAR:
  
                    RESTRICTED RIGHTS LEGEND
  
 Use, reproduction and disclosure by the US Government is
 subject to restrictions as set forth in subparagraphs (a)
 and (c) of the Commercial Computer Software - Restricted
 Rights clause in FAR 52.227-19.
  
 Gaussian, Inc.
 340 Quinnipiac St., Bldg. 40, Wallingford CT 06492
  
  
 ---------------------------------------------------------------
 Warning -- This program may not be used in any manner that
 competes with the business of Gaussian, Inc. or will provide
 assistance to any competitor of Gaussian, Inc.  The licensee
 of this program is prohibited from giving any competitor of
 Gaussian, Inc. access to this program.  By using this program,
 the user acknowledges that Gaussian, Inc. is engaged in the
 business of creating and licensing software in the field of
 computational chemistry and represents and warrants to the
 licensee that it is not a competitor of Gaussian, Inc. and that
 it will not use this program in any manner prohibited above.
 ---------------------------------------------------------------
  

 Cite this work as:
 Gaussian 16, Revision A.03,
 M. J. Frisch, G. W. Trucks, H. B. Schlegel, G. E. Scuseria, 
 M. A. Robb, J. R. Cheeseman, G. Scalmani, V. Barone, 
 G. A. Petersson, H. Nakatsuji, X. Li, M. Caricato, A. V. Marenich, 
 J. Bloino, B. G. Janesko, R. Gomperts, B. Mennucci, H. P. Hratchian, 
 J. V. Ortiz, A. F. Izmaylov, J. L. Sonnenberg, D. Williams-Young, 
 F. Ding, F. Lipparini, F. Egidi, J. Goings, B. Peng, A. Petrone, 
 T. Henderson, D. Ranasinghe, V. G. Zakrzewski, J. Gao, N. Rega, 
 G. Zheng, W. Liang, M. Hada, M. Ehara, K. Toyota, R. Fukuda, 
 J. Hasegawa, M. Ishida, T. Nakajima, Y. Honda, O. Kitao, H. Nakai, 
 T. Vreven, K. Throssell, J. A. Montgomery, Jr., J. E. Peralta, 
 F. Ogliaro, M. J. Bearpark, J. J. Heyd, E. N. Brothers, K. N. Kudin, 
 V. N. Staroverov, T. A. Keith, R. Kobayashi, J. Normand, 
 K. Raghavachari, A. P. Rendell, J. C. Burant, S. S. Iyengar, 
 J. Tomasi, M. Cossi, J. M. Millam, M. Klene, C. Adamo, R. Cammi, 
 J. W. Ochterski, R. L. Martin, K. Morokuma, O. Farkas, 
 J. B. Foresman, and D. J. Fox, Gaussian, Inc., Wallingford CT, 2016.
 
 ******************************************
 Gaussian 16:  ES64L-G16RevA.03 25-Dec-2016
                10-Jun-2022 
 ******************************************
 %nprocshared=12
 Will use up to   12 processors via shared memory.
 %chk=checkpoint.chk
 %mem=12GB
 ----------------------------------------------------------------------
 # Opt=(TS, CalcFC, noeigentest, Z-matrix, MaxStep=10) geom=allcheckpoi
 nt guess=read Field=read NoSymm B3LYP/Def2TZVP freq=noraman pop=none
 ----------------------------------------------------------------------
 1/5=1,8=10,10=4,11=1,18=40,26=3,29=7,38=1/1,3;
 2/12=2,15=1,29=3,40=1/2;
 3/5=44,7=101,11=2,14=-6,25=1,30=1,71=2,74=-5,116=-2,140=1/1,2,3;
 4/5=1/1;
 5/5=2,38=6/2;
 8/6=4,10=90,11=11/1;
 11/6=1,8=1,9=11,15=111,16=1,31=1/1,2,10;
 10/6=1,13=1,31=1/2;
 7/10=1,18=20,25=1,30=1/1,2,3,16;
 1/5=1,8=10,10=4,11=1,18=40,26=3/3(2);
 2/15=1,29=3/2;
 99//99;
 2/15=1,29=3/2;
 3/5=44,7=101,11=2,14=-2,25=1,30=1,71=1,74=-5/1,2,3;
 4/5=5,16=3,69=1/1;
 5/5=2,38=5/2;
 7/30=1/1,2,3,16;
 1/5=1,8=10,11=1,18=40,26=3/3(-5);
 2/15=1,29=3/2;
 99/9=1/99;
 Structure from the checkpoint file:  "checkpoint.chk"
 -----------------
 ts_zmat_initalOpt
 -----------------
 Charge =  0 Multiplicity = 1
 Z-Matrix found in chk file.
 H
 C,1,R2
 H,2,R3,1,A3
 C,2,R4,1,A4,3,D4,0
 H,4,R5,2,A5,1,D5,0
 C,4,R6,2,A6,5,D6,0
 H,6,R7,4,A7,2,D7,0
 C,6,R8,4,A8,7,D8,0
 H,8,R9,6,A9,4,D9,0
 H,8,R10,6,A10,9,D10,0
 C,8,R11,6,A11,9,D11,0
 H,11,R12,8,A12,6,D12,0
 H,11,R13,8,A13,12,D13,0
      Variables:
 R2=1.08606834
 R3=1.07684917
 R4=1.37400052
 R5=1.093962
 R6=1.38712359
 R7=1.08604552
 R8=1.50881823
 R9=1.09543818
 R10=1.09221168
 R11=1.45361004
 R12=1.08039294
 R13=1.07904289
 A3=116.86298098
 A4=120.97029291
 A5=117.35362399
 A6=128.22130248
 A7=118.9804497
 A8=123.8247489
 A9=107.65395811
 A10=112.56374315
 A11=103.1561039
 A12=118.99943064
 A13=122.93142639
 D4=168.61950084
 D5=-20.88939558
 D6=177.94910878
 D7=151.38383357
 D8=178.97542163
 D9=166.73442139
 D10=118.53114658
 D11=-117.80241302
 D12=67.22295959
 D13=-181.25049738
 Recover connectivity data from disk.

 GradGradGradGradGradGradGradGradGradGradGradGradGradGradGradGradGradGrad
 Berny optimization.
 Initialization pass.
                       ----------------------------
                       !    Initial Parameters    !
                       ! (Angstroms and Degrees)  !
 ----------------------                            ----------------------
 !      Name          Value   Derivative information (Atomic Units)     !
 ------------------------------------------------------------------------
 !       R2          1.0861   calculate D2E/DX2 analytically            !
 !       R3          1.0768   calculate D2E/DX2 analytically            !
 !       R4          1.374    calculate D2E/DX2 analytically            !
 !       R5          1.094    calculate D2E/DX2 analytically            !
 !       R6          1.3871   calculate D2E/DX2 analytically            !
 !       R7          1.086    calculate D2E/DX2 analytically            !
 !       R8          1.5088   calculate D2E/DX2 analytically            !
 !       R9          1.0954   calculate D2E/DX2 analytically            !
 !       R10         1.0922   calculate D2E/DX2 analytically            !
 !       R11         1.4536   calculate D2E/DX2 analytically            !
 !       R12         1.0804   calculate D2E/DX2 analytically            !
 !       R13         1.079    calculate D2E/DX2 analytically            !
 !       A3        116.863    calculate D2E/DX2 analytically            !
 !       A4        120.9703   calculate D2E/DX2 analytically            !
 !       A5        117.3536   calculate D2E/DX2 analytically            !
 !       A6        128.2213   calculate D2E/DX2 analytically            !
 !       A7        118.9804   calculate D2E/DX2 analytically            !
 !       A8        123.8247   calculate D2E/DX2 analytically            !
 !       A9        107.654    calculate D2E/DX2 analytically            !
 !       A10       112.5637   calculate D2E/DX2 analytically            !
 !       A11       103.1561   calculate D2E/DX2 analytically            !
 !       A12       118.9994   calculate D2E/DX2 analytically            !
 !       A13       122.9314   calculate D2E/DX2 analytically            !
 !       D4        168.6195   calculate D2E/DX2 analytically            !
 !       D5        -20.8894   calculate D2E/DX2 analytically            !
 !       D6        177.9491   calculate D2E/DX2 analytically            !
 !       D7        151.3838   calculate D2E/DX2 analytically            !
 !       D8        178.9754   calculate D2E/DX2 analytically            !
 !       D9        166.7344   calculate D2E/DX2 analytically            !
 !       D10       118.5311   calculate D2E/DX2 analytically            !
 !       D11      -117.8024   calculate D2E/DX2 analytically            !
 !       D12        67.223    calculate D2E/DX2 analytically            !
 !       D13      -181.2505   calculate D2E/DX2 analytically            !
 ------------------------------------------------------------------------
 Trust Radius=1.00D-01 FncErr=1.00D-07 GrdErr=1.00D-06 EigMax=2.50D+02 EigMin=1.00D-04
 Number of steps in this run=     43 maximum allowed number of steps=    100.
 Search for a saddle point of order  1.
 GradGradGradGradGradGradGradGradGradGradGradGradGradGradGradGradGradGrad

 ---------------------------------------------------------------------------------------------------
                            Z-MATRIX (ANGSTROMS AND DEGREES)
   CD    Cent   Atom    N1       Length/X        N2       Alpha/Y        N3        Beta/Z          J
 ---------------------------------------------------------------------------------------------------
      1      1  H 
      2      2  C        1   1.086068(     1)
      3      3  H        2   1.076849(     2)      1  116.863(    13)
      4      4  C        2   1.374001(     3)      1  120.970(    14)      3  168.620(    24)      0
      5      5  H        4   1.093962(     4)      2  117.354(    15)      1  -20.889(    25)      0
      6      6  C        4   1.387124(     5)      2  128.221(    16)      5  177.949(    26)      0
      7      7  H        6   1.086046(     6)      4  118.980(    17)      2  151.384(    27)      0
      8      8  C        6   1.508818(     7)      4  123.825(    18)      7  178.975(    28)      0
      9      9  H        8   1.095438(     8)      6  107.654(    19)      4  166.734(    29)      0
     10     10  H        8   1.092212(     9)      6  112.564(    20)      9  118.531(    30)      0
     11     11  C        8   1.453610(    10)      6  103.156(    21)      9 -117.802(    31)      0
     12     12  H       11   1.080393(    11)      8  118.999(    22)      6   67.223(    32)      0
     13     13  H       11   1.079043(    12)      8  122.931(    23)     12 -181.250(    33)      0
 ---------------------------------------------------------------------------------------------------
                         Z-Matrix orientation:                         
 ---------------------------------------------------------------------
 Center     Atomic      Atomic             Coordinates (Angstroms)
 Number     Number       Type             X           Y           Z
 ---------------------------------------------------------------------
      1          1           0        0.000000    0.000000    0.000000
      2          6           0        0.000000    0.000000    1.086068
      3          1           0        0.960646    0.000000    1.572652
      4          6           0       -1.154951    0.232470    1.793120
      5          1           0       -1.967059    0.749335    1.273423
      6          6           0       -1.453881   -0.140638    3.095250
      7          1           0       -2.145919    0.466886    3.671005
      8          6           0       -0.888692   -1.367055    3.768300
      9          1           0       -1.097417   -1.283578    4.840424
     10          1           0       -1.349329   -2.290817    3.411365
     11          6           0        0.535907   -1.266170    3.497517
     12          1           0        1.100078   -0.464922    3.952446
     13          1           0        1.065862   -1.969912    2.874438
 ---------------------------------------------------------------------
                    Distance matrix (angstroms):
                    1          2          3          4          5
     1  H    0.000000
     2  C    1.086068   0.000000
     3  H    1.842844   1.076849   0.000000
     4  C    2.145515   1.374001   2.139720   0.000000
     5  H    2.460169   2.113274   3.036857   1.093962   0.000000
     6  C    3.422590   2.484021   2.857976   1.387124   2.091520
     7  H    4.277760   3.391880   3.777805   2.136216   2.420778
     8  C    4.105934   3.138945   3.179585   2.555525   3.444762
     9  H    5.126558   4.116683   4.069586   3.404082   4.196725
    10  H    4.325037   3.532073   3.736937   3.003911   3.767613
    11  C    3.758059   2.775872   2.342797   2.830175   3.908157
    12  H    4.128941   3.105229   2.428789   3.199094   4.249578
    13  H    3.644038   2.866162   2.363530   3.309342   4.376775
                    6          7          8          9         10
     6  C    0.000000
     7  H    1.086046   0.000000
     8  C    1.508818   2.225629   0.000000
     9  H    2.116367   2.351812   1.095438   0.000000
    10  H    2.175806   2.882169   1.092212   1.766408   0.000000
    11  C    2.321184   3.197775   1.453610   2.114580   2.147426
    12  H    2.713421   3.388801   2.191566   2.507527   3.102622
    13  H    3.121555   4.109506   2.232198   3.002654   2.494879
                   11         12         13
    11  C    0.000000
    12  H    1.080393   0.000000
    13  H    1.079043   1.851559   0.000000
 Symmetry turned off by external request.
 Stoichiometry    C5H8
 Framework group  C1[X(C5H8)]
 Deg. of freedom    33
 Full point group                 C1      NOp   1
 Rotational constants (GHZ):           8.5252164           4.4744728           3.1844623
 Standard basis: def2TZVP (5D, 7F)
 The following finite field(s) will be applied:
 An electric field of              0.0010  0.0011 -0.0099
   203 basis functions,   319 primitive gaussians,   228 cartesian basis functions
    19 alpha electrons       19 beta electrons
       nuclear repulsion energy       161.9516763918 Hartrees.
 NAtoms=   13 NActive=   13 NUniq=   13 SFac= 1.00D+00 NAtFMM=   60 NAOKFM=F Big=F
 Integral buffers will be    131072 words long.
 Raffenetti 2 integral format.
 Two-electron integral symmetry is turned off.
 One-electron integrals computed using PRISM.
   1 Symmetry operations used in ECPInt.
 ECPInt:  NShTT=    3828 NPrTT=   11160 LenC2=    3812 LenP2D=    9467.
 LDataN:  DoStor=T MaxTD1= 6 Len=  172
 NBasis=   203 RedAO= T EigKep=  1.51D-04  NBF=   203
 NBsUse=   203 1.00D-06 EigRej= -1.00D+00 NBFU=   203
 The nuclear repulsion energy is now       159.9819722219 hartrees.
 Initial guess from the checkpoint file:  "checkpoint.chk"
 B after Tr=     0.000000    0.000000    0.000000
         Rot=    1.000000    0.000000   -0.000000    0.000000 Ang=   0.00 deg.
 Requested convergence on RMS density matrix=1.00D-08 within 128 cycles.
 Requested convergence on MAX density matrix=1.00D-06.
 Requested convergence on             energy=1.00D-06.
 No special actions if energy rises.
 SCF Done:  E(RB3LYP) =  -195.283097127     A.U. after   11 cycles
            NFock= 11  Conv=0.51D-08     -V/T= 2.0057
 DoSCS=F DFT=T ScalE2(SS,OS)=  1.000000  1.000000
 Range of M.O.s used for correlation:     1   203
 NBasis=   203 NAE=    19 NBE=    19 NFC=     0 NFV=     0
 NROrb=    203 NOA=    19 NOB=    19 NVA=   184 NVB=   184

 **** Warning!!: The largest alpha MO coefficient is  0.18884187D+02

   1 Symmetry operations used in ECPInt.
 ECPInt:  NShTT=    3828 NPrTT=   11160 LenC2=    3812 LenP2D=    9467.
 LDataN:  DoStor=T MaxTD1= 7 Len=  274
 Symmetrizing basis deriv contribution to polar:
 IMax=3 JMax=2 DiffMx= 0.00D+00
 G2DrvN: will do    14 centers at a time, making    1 passes.
 Calling FoFCou, ICntrl=  3107 FMM=F I1Cent=   0 AccDes= 0.00D+00.
 End of G2Drv F.D. properties file   721 does not exist.
 End of G2Drv F.D. properties file   722 does not exist.
 End of G2Drv F.D. properties file   788 does not exist.
          IDoAtm=1111111111111
          Differentiating once with respect to nuclear coordinates.
 Keep R1 ints in memory in canonical form, NReq=227048987.
          There are    42 degrees of freedom in the 1st order CPHF.  IDoFFX=6 NUNeed=     0.
     36 vectors produced by pass  0 Test12= 8.32D-15 2.38D-09 XBig12= 8.59D-02 1.13D-01.
 AX will form    36 AO Fock derivatives at one time.
     36 vectors produced by pass  1 Test12= 8.32D-15 2.38D-09 XBig12= 8.28D-03 3.34D-02.
     36 vectors produced by pass  2 Test12= 8.32D-15 2.38D-09 XBig12= 1.20D-04 1.80D-03.
     36 vectors produced by pass  3 Test12= 8.32D-15 2.38D-09 XBig12= 7.05D-07 1.50D-04.
     36 vectors produced by pass  4 Test12= 8.32D-15 2.38D-09 XBig12= 1.27D-09 5.01D-06.
     32 vectors produced by pass  5 Test12= 8.32D-15 2.38D-09 XBig12= 1.69D-12 1.52D-07.
      3 vectors produced by pass  6 Test12= 8.32D-15 2.38D-09 XBig12= 2.46D-15 6.07D-09.
 InvSVY:  IOpt=1 It=  1 EMax= 1.78D-15
 Solved reduced A of dimension   215 with    36 vectors.
 End of Minotr F.D. properties file   721 does not exist.
 End of Minotr F.D. properties file   722 does not exist.
 End of Minotr F.D. properties file   788 does not exist.
   1 Symmetry operations used in ECPInt.
 ECPInt:  NShTT=    3828 NPrTT=   11160 LenC2=    3812 LenP2D=    9467.
 LDataN:  DoStor=T MaxTD1= 8 Len=  415
 Calling FoFJK, ICntrl=    100147 FMM=F ISym2X=0 I1Cent= 0 IOpClX= 0 NMat=1 NMatS=1 NMatT=0.
 -------------------------------------------------------------------
 Center     Atomic                   Forces (Hartrees/Bohr)
 Number     Number              X              Y              Z
 -------------------------------------------------------------------
      1        1          -0.000149780   -0.000505596   -0.000591829
      2        6           0.001244692    0.000356772   -0.000246611
      3        1           0.000079297   -0.000037597   -0.000187498
      4        6          -0.000779061   -0.000128281    0.000903828
      5        1          -0.000229331    0.000213906    0.000041918
      6        6          -0.000145101    0.000565705   -0.000547042
      7        1           0.000115136   -0.000212266    0.000036789
      8        6           0.000730378   -0.000514979   -0.000008708
      9        1           0.000130147   -0.000014449    0.000027548
     10        1           0.000000402    0.000068327    0.000175724
     11        6          -0.001046681    0.000403162    0.000133191
     12        1           0.000012490   -0.000005925    0.000135159
     13        1           0.000037412   -0.000188779    0.000127530
 -------------------------------------------------------------------
 Cartesian Forces:  Max     0.001244692 RMS     0.000419056
 -----------------------------------------------------------------------------------------------
                       Internal Coordinate Forces (Hartree/Bohr or radian)
  Cent   Atom   N1       Length/X         N2         Alpha/Y        N3         Beta/Z          J
 -----------------------------------------------------------------------------------------------
      1  H 
      2  C        1   0.000592(     1)
      3  H        2  -0.000014(     2)      1  -0.000413(    13)
      4  C        2   0.001546(     3)      1  -0.000626(    14)      3  -0.000095(    24)     0
      5  H        4   0.000251(     4)      2   0.000314(    15)      1   0.000589(    25)     0
      6  C        4   0.000084(     5)      2   0.001759(    16)      5   0.000805(    26)     0
      7  H        6  -0.000173(     6)      4   0.000353(    17)      2   0.000571(    27)     0
      8  C        6   0.000418(     7)      4   0.001677(    18)      7   0.000540(    28)     0
      9  H        8   0.000001(     8)      6   0.000157(    19)      4   0.000496(    29)     0
     10  H        8  -0.000115(     9)      6   0.000150(    20)      9  -0.000248(    30)     0
     11  C        8  -0.001036(    10)      6  -0.000047(    21)      9   0.000961(    31)     0
     12  H       11   0.000059(    11)      8  -0.000098(    22)      6  -0.000169(    32)     0
     13  H       11   0.000068(    12)      8  -0.000090(    23)     12  -0.000370(    33)     0
 -----------------------------------------------------------------------------------------------
 Internal  Forces:  Max     0.001758617 RMS     0.000648718

 GradGradGradGradGradGradGradGradGradGradGradGradGradGradGradGradGradGrad
 Berny optimization.
 Search for a saddle point.
 Step number   1 out of a maximum of   43
 All quantities printed in internal units (Hartrees-Bohrs-Radians)
 Swapping is turned off.
 Second derivative matrix not updated -- analytic derivatives used.
 ITU=  0
     Eigenvalues ---   -0.20383   0.01695   0.01807   0.02346   0.03169
     Eigenvalues ---    0.04481   0.08677   0.09062   0.10797   0.11575
     Eigenvalues ---    0.12124   0.13524   0.14895   0.19753   0.25471
     Eigenvalues ---    0.28121   0.28837   0.30349   0.31211   0.32231
     Eigenvalues ---    0.33278   0.34246   0.34770   0.36558   0.36611
     Eigenvalues ---    0.37182   0.37452   0.38735   0.40785   0.44859
     Eigenvalues ---    0.46884   0.55307   0.95748
 Eigenvectors required to have negative eigenvalues:
                          D9        A11       D5        A8        D11
   1                    0.55728  -0.33946   0.30589   0.28071   0.27923
                          A6        D4        D13       D12       R6
   1                    0.24820   0.23436   0.20428   0.19978   0.15916
 RFO step:  Lambda0=1.039122992D-05 Lambda=-5.07018829D-05.
 Linear search not attempted -- option 19 set.
 Variable       Old X    -DE/DX   Delta X   Delta X   Delta X     New X
                                 (Linear)    (Quad)   (Total)
    R2        2.05237   0.00059   0.00000   0.00158   0.00158   2.05395
    R3        2.03495  -0.00001   0.00000   0.00004   0.00004   2.03499
    R4        2.59648   0.00155   0.00000   0.00350   0.00350   2.59999
    R5        2.06729   0.00025   0.00000   0.00081   0.00081   2.06810
    R6        2.62128   0.00008   0.00000  -0.00175  -0.00175   2.61954
    R7        2.05233  -0.00017   0.00000  -0.00049  -0.00049   2.05184
    R8        2.85125   0.00042   0.00000   0.00225   0.00225   2.85350
    R9        2.07008   0.00000   0.00000   0.00048   0.00048   2.07056
   R10        2.06398  -0.00012   0.00000  -0.00046  -0.00046   2.06352
   R11        2.74692  -0.00104   0.00000  -0.00366  -0.00366   2.74326
   R12        2.04165   0.00006   0.00000   0.00013   0.00013   2.04177
   R13        2.03910   0.00007   0.00000   0.00033   0.00033   2.03942
    A3        2.03964  -0.00041   0.00000  -0.00107  -0.00107   2.03857
    A4        2.11133  -0.00063   0.00000  -0.00326  -0.00326   2.10807
    A5        2.04821   0.00031   0.00000  -0.00107  -0.00107   2.04714
    A6        2.23788   0.00176   0.00000   0.00406   0.00406   2.24194
    A7        2.07660   0.00035   0.00000  -0.00038  -0.00038   2.07622
    A8        2.16115   0.00168   0.00000   0.00340   0.00340   2.16455
    A9        1.87892   0.00016   0.00000  -0.00261  -0.00261   1.87631
   A10        1.96461   0.00015   0.00000   0.00160   0.00160   1.96620
   A11        1.80041  -0.00005   0.00000   0.00124   0.00124   1.80165
   A12        2.07693  -0.00010   0.00000  -0.00038  -0.00038   2.07655
   A13        2.14556  -0.00009   0.00000   0.00039   0.00039   2.14595
    D4        2.94297  -0.00010   0.00000  -0.01165  -0.01165   2.93132
    D5       -0.36459   0.00059   0.00000   0.00694   0.00694  -0.35765
    D6        3.10580   0.00080   0.00000   0.00182   0.00182   3.10762
    D7        2.64215   0.00057   0.00000   0.00689   0.00689   2.64903
    D8        3.12371   0.00054   0.00000   0.00576   0.00576   3.12947
    D9        2.91006   0.00050   0.00000  -0.01348  -0.01348   2.89658
   D10        2.06876  -0.00025   0.00000  -0.00175  -0.00175   2.06701
   D11       -2.05604   0.00096   0.00000   0.00365   0.00365  -2.05239
   D12        1.17326  -0.00017   0.00000   0.00098   0.00098   1.17424
   D13       -3.16342  -0.00037   0.00000  -0.00969  -0.00969  -3.17310
         Item               Value     Threshold  Converged?
 Maximum Force            0.001759     0.000450     NO 
 RMS     Force            0.000649     0.000300     NO 
 Maximum Displacement     0.013482     0.001800     NO 
 RMS     Displacement     0.004440     0.001200     NO 
 Predicted change in Energy=-2.017027D-05
 GradGradGradGradGradGradGradGradGradGradGradGradGradGradGradGradGradGrad

 ---------------------------------------------------------------------------------------------------
                            Z-MATRIX (ANGSTROMS AND DEGREES)
   CD    Cent   Atom    N1       Length/X        N2       Alpha/Y        N3        Beta/Z          J
 ---------------------------------------------------------------------------------------------------
      1      1  H 
      2      2  C        1   1.086903(     1)
      3      3  H        2   1.076870(     2)      1  116.801(    13)
      4      4  C        2   1.375855(     3)      1  120.783(    14)      3  167.952(    24)      0
      5      5  H        4   1.094392(     4)      2  117.292(    15)      1  -20.492(    25)      0
      6      6  C        4   1.386199(     5)      2  128.454(    16)      5  178.053(    26)      0
      7      7  H        6   1.085788(     6)      4  118.959(    17)      2  151.779(    27)      0
      8      8  C        6   1.510009(     7)      4  124.019(    18)      7  179.306(    28)      0
      9      9  H        8   1.095692(     8)      6  107.505(    19)      4  165.962(    29)      0
     10     10  H        8   1.091967(     9)      6  112.655(    20)      9  118.431(    30)      0
     11     11  C        8   1.451672(    10)      6  103.227(    21)      9 -117.594(    31)      0
     12     12  H       11   1.080460(    11)      8  118.977(    22)      6   67.279(    32)      0
     13     13  H       11   1.079216(    12)      8  122.954(    23)     12 -181.805(    33)      0
 ---------------------------------------------------------------------------------------------------
                         Z-Matrix orientation:                         
 ---------------------------------------------------------------------
 Center     Atomic      Atomic             Coordinates (Angstroms)
 Number     Number       Type             X           Y           Z
 ---------------------------------------------------------------------
      1          1           0        0.000000    0.000000    0.000000
      2          6           0        0.000000    0.000000    1.086903
      3          1           0        0.961186    0.000000    1.572463
      4          6           0       -1.155973    0.246719    1.791057
      5          1           0       -1.962509    0.766994    1.265218
      6          6           0       -1.464543   -0.111100    3.094245
      7          1           0       -2.159200    0.504245    3.657927
      8          6           0       -0.903246   -1.326954    3.791935
      9          1           0       -1.112342   -1.218729    4.862033
     10          1           0       -1.367768   -2.256416    3.456211
     11          6           0        0.520586   -1.235886    3.524048
     12          1           0        1.085872   -0.428389    3.966535
     13          1           0        1.052037   -1.957130    2.922322
 ---------------------------------------------------------------------
                    Distance matrix (angstroms):
                    1          2          3          4          5
     1  H    0.000000
     2  C    1.086903   0.000000
     3  H    1.842965   1.076870   0.000000
     4  C    2.145933   1.375855   2.142666   0.000000
     5  H    2.457742   2.114596   3.038203   1.094392   0.000000
     6  C    3.425139   2.487298   2.865716   1.386199   2.089105
     7  H    4.277480   3.395081   3.786850   2.134944   2.415115
     8  C    4.117697   3.145450   3.187941   2.558091   3.448327
     9  H    5.134390   4.119977   4.075056   3.402988   4.195588
    10  H    4.348287   3.546241   3.750193   3.013847   3.780896
    11  C    3.770589   2.781744   2.351643   2.830587   3.908913
    12  H    4.134735   3.107236   2.435291   3.195988   4.244842
    13  H    3.671117   2.881996   2.379228   3.318435   4.387976
                    6          7          8          9         10
     6  C    0.000000
     7  H    1.085788   0.000000
     8  C    1.510009   2.224561   0.000000
     9  H    2.115647   2.348281   1.095692   0.000000
    10  H    2.177789   2.878941   1.091967   1.765891   0.000000
    11  C    2.321769   3.198005   1.451672   2.111148   2.147548
    12  H    2.714071   3.390507   2.189633   2.501739   3.102009
    13  H    3.125789   4.112362   2.230802   2.998708   2.496010
                   11         12         13
    11  C    0.000000
    12  H    1.080460   0.000000
    13  H    1.079216   1.851641   0.000000
 Symmetry turned off by external request.
 Stoichiometry    C5H8
 Framework group  C1[X(C5H8)]
 Deg. of freedom    33
 Full point group                 C1      NOp   1
 Rotational constants (GHZ):           8.5335475           4.4599770           3.1757007
 Standard basis: def2TZVP (5D, 7F)
 The following finite field(s) will be applied:
 An electric field of              0.0010  0.0011 -0.0099
   203 basis functions,   319 primitive gaussians,   228 cartesian basis functions
    19 alpha electrons       19 beta electrons
       nuclear repulsion energy       161.8623996871 Hartrees.
 NAtoms=   13 NActive=   13 NUniq=   13 SFac= 1.00D+00 NAtFMM=   60 NAOKFM=F Big=F
 Integral buffers will be    131072 words long.
 Raffenetti 2 integral format.
 Two-electron integral symmetry is turned off.
 One-electron integrals computed using PRISM.
   1 Symmetry operations used in ECPInt.
 ECPInt:  NShTT=    3828 NPrTT=   11160 LenC2=    3812 LenP2D=    9462.
 LDataN:  DoStor=T MaxTD1= 6 Len=  172
 NBasis=   203 RedAO= T EigKep=  1.50D-04  NBF=   203
 NBsUse=   203 1.00D-06 EigRej= -1.00D+00 NBFU=   203
 The nuclear repulsion energy is now       159.8865684018 hartrees.
 Initial guess from the checkpoint file:  "checkpoint.chk"
 B after Tr=     0.006443   -0.031457    0.009924
         Rot=    0.999971    0.007136    0.001871    0.001816 Ang=   0.87 deg.
 Requested convergence on RMS density matrix=1.00D-08 within 128 cycles.
 Requested convergence on MAX density matrix=1.00D-06.
 Requested convergence on             energy=1.00D-06.
 No special actions if energy rises.
 SCF Done:  E(RB3LYP) =  -195.283117272     A.U. after   10 cycles
            NFock= 10  Conv=0.70D-08     -V/T= 2.0057
   1 Symmetry operations used in ECPInt.
 ECPInt:  NShTT=    3828 NPrTT=   11160 LenC2=    3812 LenP2D=    9462.
 LDataN:  DoStor=T MaxTD1= 7 Len=  274
 Calling FoFJK, ICntrl=      2127 FMM=F ISym2X=0 I1Cent= 0 IOpClX= 0 NMat=1 NMatS=1 NMatT=0.
 -------------------------------------------------------------------
 Center     Atomic                   Forces (Hartrees/Bohr)
 Number     Number              X              Y              Z
 -------------------------------------------------------------------
      1        1          -0.000107086   -0.000895283   -0.000001364
      2        6           0.000113358    0.000983869   -0.000003032
      3        1           0.000002027   -0.000087209   -0.000003121
      4        6          -0.000007337    0.000002004   -0.000004622
      5        1          -0.000001438   -0.000003024   -0.000001084
      6        6           0.000003170    0.000005026    0.000012769
      7        1           0.000000621    0.000000295    0.000000361
      8        6          -0.000012136   -0.000008416   -0.000004478
      9        1           0.000000025    0.000001392    0.000000463
     10        1           0.000000317   -0.000000006    0.000000369
     11        6           0.000009451    0.000000440    0.000004028
     12        1          -0.000000720    0.000002034   -0.000000142
     13        1          -0.000000251   -0.000001122   -0.000000149
 -------------------------------------------------------------------
 Cartesian Forces:  Max     0.000983869 RMS     0.000214961
 -----------------------------------------------------------------------------------------------
                       Internal Coordinate Forces (Hartree/Bohr or radian)
  Cent   Atom   N1       Length/X         N2         Alpha/Y        N3         Beta/Z          J
 -----------------------------------------------------------------------------------------------
      1  H 
      2  C        1   0.000001(     1)
      3  H        2   0.000000(     2)      1  -0.000008(    13)
      4  C        2   0.000011(     3)      1  -0.000004(    14)      3   0.000003(    24)     0
      5  H        4   0.000000(     4)      2   0.000000(    15)      1   0.000005(    25)     0
      6  C        4   0.000012(     5)      2   0.000013(    16)      5  -0.000002(    26)     0
      7  H        6  -0.000000(     6)      4   0.000000(    17)      2  -0.000006(    27)     0
      8  C        6   0.000003(     7)      4   0.000012(    18)      7  -0.000005(    28)     0
      9  H        8   0.000001(     8)      6  -0.000002(    19)      4   0.000011(    29)     0
     10  H        8  -0.000000(     9)      6   0.000001(    20)      9  -0.000000(    30)     0
     11  C        8   0.000008(    10)      6   0.000005(    21)      9   0.000013(    31)     0
     12  H       11   0.000001(    11)      8  -0.000003(    22)      6  -0.000003(    32)     0
     13  H       11   0.000001(    12)      8  -0.000002(    23)     12  -0.000001(    33)     0
 -----------------------------------------------------------------------------------------------
 Internal  Forces:  Max     0.000012851 RMS     0.000005888

 GradGradGradGradGradGradGradGradGradGradGradGradGradGradGradGradGradGrad
 Berny optimization.
 Search for a saddle point.
 Step number   2 out of a maximum of   43
 All quantities printed in internal units (Hartrees-Bohrs-Radians)
 Swapping is turned off.
 Update second derivatives using D2CorN and points    1    2
 ITU=  0  0
     Eigenvalues ---   -0.20366   0.01696   0.01807   0.02350   0.03168
     Eigenvalues ---    0.04481   0.08678   0.09060   0.10800   0.11573
     Eigenvalues ---    0.12125   0.13525   0.14895   0.19754   0.25473
     Eigenvalues ---    0.28121   0.28838   0.30348   0.31210   0.32231
     Eigenvalues ---    0.33278   0.34246   0.34770   0.36558   0.36611
     Eigenvalues ---    0.37182   0.37453   0.38736   0.40786   0.44856
     Eigenvalues ---    0.46885   0.55302   0.95743
 Eigenvectors required to have negative eigenvalues:
                          D9        A11       D5        A8        D11
   1                    0.55677  -0.33961   0.30632   0.28091   0.27939
                          A6        D4        D13       D12       R6
   1                    0.24837   0.23384   0.20394   0.20009   0.15908
 RFO step:  Lambda0=1.186330617D-09 Lambda= 0.00000000D+00.
 Linear search not attempted -- option 19 set.
 Variable       Old X    -DE/DX   Delta X   Delta X   Delta X     New X
                                 (Linear)    (Quad)   (Total)
    R2        2.05395   0.00000   0.00000   0.00001   0.00001   2.05395
    R3        2.03499   0.00000   0.00000   0.00000   0.00000   2.03499
    R4        2.59999   0.00001   0.00000   0.00002   0.00002   2.60001
    R5        2.06810   0.00000   0.00000  -0.00000  -0.00000   2.06810
    R6        2.61954   0.00001   0.00000   0.00001   0.00001   2.61955
    R7        2.05184  -0.00000   0.00000  -0.00000  -0.00000   2.05184
    R8        2.85350   0.00000   0.00000  -0.00001  -0.00001   2.85349
    R9        2.07056   0.00000   0.00000   0.00001   0.00001   2.07057
   R10        2.06352  -0.00000   0.00000  -0.00000  -0.00000   2.06352
   R11        2.74326   0.00001   0.00000   0.00003   0.00003   2.74330
   R12        2.04177   0.00000   0.00000   0.00000   0.00000   2.04178
   R13        2.03942   0.00000   0.00000   0.00000   0.00000   2.03943
    A3        2.03857  -0.00001   0.00000  -0.00004  -0.00004   2.03853
    A4        2.10807  -0.00000   0.00000   0.00000   0.00000   2.10807
    A5        2.04714   0.00000   0.00000   0.00000   0.00000   2.04714
    A6        2.24194   0.00001   0.00000  -0.00001  -0.00001   2.24193
    A7        2.07622   0.00000   0.00000   0.00002   0.00002   2.07624
    A8        2.16455   0.00001   0.00000  -0.00004  -0.00004   2.16451
    A9        1.87631  -0.00000   0.00000  -0.00001  -0.00001   1.87630
   A10        1.96620   0.00000   0.00000   0.00000   0.00000   1.96621
   A11        1.80165   0.00000   0.00000   0.00005   0.00005   1.80171
   A12        2.07655  -0.00000   0.00000  -0.00002  -0.00002   2.07653
   A13        2.14595  -0.00000   0.00000   0.00000   0.00000   2.14595
    D4        2.93132   0.00000   0.00000  -0.00003  -0.00003   2.93129
    D5       -0.35765   0.00000   0.00000   0.00005   0.00005  -0.35760
    D6        3.10762  -0.00000   0.00000  -0.00004  -0.00004   3.10758
    D7        2.64903  -0.00001   0.00000   0.00005   0.00005   2.64909
    D8        3.12947  -0.00000   0.00000  -0.00011  -0.00011   3.12937
    D9        2.89658   0.00001   0.00000  -0.00001  -0.00001   2.89657
   D10        2.06701  -0.00000   0.00000  -0.00001  -0.00001   2.06700
   D11       -2.05239   0.00001   0.00000   0.00002   0.00002  -2.05238
   D12        1.17424  -0.00000   0.00000  -0.00012  -0.00012   1.17412
   D13       -3.17310  -0.00000   0.00000   0.00001   0.00001  -3.17310
         Item               Value     Threshold  Converged?
 Maximum Force            0.000013     0.000450     YES
 RMS     Force            0.000006     0.000300     YES
 Maximum Displacement     0.000123     0.001800     YES
 RMS     Displacement     0.000036     0.001200     YES
 Predicted change in Energy=-7.815388D-10
 Optimization completed.
    -- Stationary point found.
                       ----------------------------
                       !   Optimized Parameters   !
                       ! (Angstroms and Degrees)  !
 ----------------------                            ----------------------
 !      Name          Value   Derivative information (Atomic Units)     !
 ------------------------------------------------------------------------
 !       R2          1.0869   -DE/DX =    0.0                           !
 !       R3          1.0769   -DE/DX =    0.0                           !
 !       R4          1.3759   -DE/DX =    0.0                           !
 !       R5          1.0944   -DE/DX =    0.0                           !
 !       R6          1.3862   -DE/DX =    0.0                           !
 !       R7          1.0858   -DE/DX =    0.0                           !
 !       R8          1.51     -DE/DX =    0.0                           !
 !       R9          1.0957   -DE/DX =    0.0                           !
 !       R10         1.092    -DE/DX =    0.0                           !
 !       R11         1.4517   -DE/DX =    0.0                           !
 !       R12         1.0805   -DE/DX =    0.0                           !
 !       R13         1.0792   -DE/DX =    0.0                           !
 !       A3        116.8014   -DE/DX =    0.0                           !
 !       A4        120.7834   -DE/DX =    0.0                           !
 !       A5        117.2924   -DE/DX =    0.0                           !
 !       A6        128.4539   -DE/DX =    0.0                           !
 !       A7        118.9589   -DE/DX =    0.0                           !
 !       A8        124.0195   -DE/DX =    0.0                           !
 !       A9        107.5046   -DE/DX =    0.0                           !
 !       A10       112.6552   -DE/DX =    0.0                           !
 !       A11       103.2272   -DE/DX =    0.0                           !
 !       A12       118.9775   -DE/DX =    0.0                           !
 !       A13       122.9538   -DE/DX =    0.0                           !
 !       D4        167.9522   -DE/DX =    0.0                           !
 !       D5        -20.4919   -DE/DX =    0.0                           !
 !       D6        178.0533   -DE/DX =    0.0                           !
 !       D7        151.7785   -DE/DX =    0.0                           !
 !       D8        179.3055   -DE/DX =    0.0                           !
 !       D9        165.962    -DE/DX =    0.0                           !
 !       D10       118.4309   -DE/DX =    0.0                           !
 !       D11      -117.5935   -DE/DX =    0.0                           !
 !       D12        67.2791   -DE/DX =    0.0                           !
 !       D13      -181.8054   -DE/DX =    0.0                           !
 ------------------------------------------------------------------------
 GradGradGradGradGradGradGradGradGradGradGradGradGradGradGradGradGradGrad

 ---------------------------------------------------------------------------------------------------
                            Z-MATRIX (ANGSTROMS AND DEGREES)
   CD    Cent   Atom    N1       Length/X        N2       Alpha/Y        N3        Beta/Z          J
 ---------------------------------------------------------------------------------------------------
      1      1  H 
      2      2  C        1   1.086903(     1)
      3      3  H        2   1.076870(     2)      1  116.801(    13)
      4      4  C        2   1.375855(     3)      1  120.783(    14)      3  167.952(    24)      0
      5      5  H        4   1.094392(     4)      2  117.292(    15)      1  -20.492(    25)      0
      6      6  C        4   1.386199(     5)      2  128.454(    16)      5  178.053(    26)      0
      7      7  H        6   1.085788(     6)      4  118.959(    17)      2  151.779(    27)      0
      8      8  C        6   1.510009(     7)      4  124.019(    18)      7  179.306(    28)      0
      9      9  H        8   1.095692(     8)      6  107.505(    19)      4  165.962(    29)      0
     10     10  H        8   1.091967(     9)      6  112.655(    20)      9  118.431(    30)      0
     11     11  C        8   1.451672(    10)      6  103.227(    21)      9 -117.594(    31)      0
     12     12  H       11   1.080460(    11)      8  118.977(    22)      6   67.279(    32)      0
     13     13  H       11   1.079216(    12)      8  122.954(    23)     12 -181.805(    33)      0
 ---------------------------------------------------------------------------------------------------
                         Z-Matrix orientation:                         
 ---------------------------------------------------------------------
 Center     Atomic      Atomic             Coordinates (Angstroms)
 Number     Number       Type             X           Y           Z
 ---------------------------------------------------------------------
      1          1           0        0.000000    0.000000    0.000000
      2          6           0        0.000000    0.000000    1.086903
      3          1           0        0.961186    0.000000    1.572463
      4          6           0       -1.155973    0.246719    1.791057
      5          1           0       -1.962509    0.766994    1.265218
      6          6           0       -1.464543   -0.111100    3.094245
      7          1           0       -2.159200    0.504245    3.657927
      8          6           0       -0.903246   -1.326954    3.791935
      9          1           0       -1.112342   -1.218729    4.862033
     10          1           0       -1.367768   -2.256416    3.456211
     11          6           0        0.520586   -1.235886    3.524048
     12          1           0        1.085872   -0.428389    3.966535
     13          1           0        1.052037   -1.957130    2.922322
 ---------------------------------------------------------------------
                    Distance matrix (angstroms):
                    1          2          3          4          5
     1  H    0.000000
     2  C    1.086903   0.000000
     3  H    1.842965   1.076870   0.000000
     4  C    2.145933   1.375855   2.142666   0.000000
     5  H    2.457742   2.114596   3.038203   1.094392   0.000000
     6  C    3.425139   2.487298   2.865716   1.386199   2.089105
     7  H    4.277480   3.395081   3.786850   2.134944   2.415115
     8  C    4.117697   3.145450   3.187941   2.558091   3.448327
     9  H    5.134390   4.119977   4.075056   3.402988   4.195588
    10  H    4.348287   3.546241   3.750193   3.013847   3.780896
    11  C    3.770589   2.781744   2.351643   2.830587   3.908913
    12  H    4.134735   3.107236   2.435291   3.195988   4.244842
    13  H    3.671117   2.881996   2.379228   3.318435   4.387976
                    6          7          8          9         10
     6  C    0.000000
     7  H    1.085788   0.000000
     8  C    1.510009   2.224561   0.000000
     9  H    2.115647   2.348281   1.095692   0.000000
    10  H    2.177789   2.878941   1.091967   1.765891   0.000000
    11  C    2.321769   3.198005   1.451672   2.111148   2.147548
    12  H    2.714071   3.390507   2.189633   2.501739   3.102009
    13  H    3.125789   4.112362   2.230802   2.998708   2.496010
                   11         12         13
    11  C    0.000000
    12  H    1.080460   0.000000
    13  H    1.079216   1.851641   0.000000
 Symmetry turned off by external request.
 Stoichiometry    C5H8
 Framework group  C1[X(C5H8)]
 Deg. of freedom    33
 Full point group                 C1      NOp   1
 Rotational constants (GHZ):           8.5335475           4.4599770           3.1757007
 1\1\GINC-BHC0034\FTS\RB3LYP\def2TZVP\C5H8\DHANAWAY\10-Jun-2022\1\\# Op
 t=(TS, CalcFC, noeigentest, Z-matrix, MaxStep=10) geom=allcheckpoint g
 uess=read Field=read NoSymm B3LYP/Def2TZVP freq=noraman pop=none\\ts_z
 mat_initalOpt\\0,1\H\C,1,R2\H,2,R3,1,A3\C,2,R4,1,A4,3,D4,0\H,4,R5,2,A5
 ,1,D5,0\C,4,R6,2,A6,5,D6,0\H,6,R7,4,A7,2,D7,0\C,6,R8,4,A8,7,D8,0\H,8,R
 9,6,A9,4,D9,0\H,8,R10,6,A10,9,D10,0\C,8,R11,6,A11,9,D11,0\H,11,R12,8,A
 12,6,D12,0\H,11,R13,8,A13,12,D13,0\\R2=1.086903\R3=1.07686954\R4=1.375
 855\R5=1.09439213\R6=1.38619872\R7=1.08578815\R8=1.51000902\R9=1.09569
 223\R10=1.091967\R11=1.45167235\R12=1.08046035\R13=1.07921614\A3=116.8
 0142982\A4=120.78340112\A5=117.29243637\A6=128.4538754\A7=118.95891312
 \A8=124.01948219\A9=107.50462092\A10=112.65517725\A11=103.22717341\A12
 =118.97749772\A13=122.95381863\D4=167.9521542\D5=-20.49185094\D6=178.0
 5327074\D7=151.77850608\D8=179.30552795\D9=165.96198734\D10=118.430878
 8\D11=-117.59353961\D12=67.2791487\D13=-181.80542452\\Version=ES64L-G1
 6RevA.03\HF=-195.2831173\RMSD=6.999e-09\RMSF=2.150e-04\Dipole=-0.13841
 29,-0.3046201,1.1515862\PG=C01 [X(C5H8)]\\@


 TOM, TOM, THE BURGLAR'S SON
 STOLE A MACHINE AND AWAY HE RUN
 THE JOB WAS NEAT, BUT TOM GOT BEAT
 BY THE TIME HE GOT HOME IT WAS OBSOLETE.
 Job cpu time:       0 days  0 hours 33 minutes 16.0 seconds.
 Elapsed time:       0 days  0 hours  2 minutes 48.9 seconds.
 File lengths (MBytes):  RWF=     46 Int=      0 D2E=      0 Chk=     32 Scr=      1
 Normal termination of Gaussian 16 at Fri Jun 10 23:50:59 2022.
 Link1:  Proceeding to internal job step number  2.
 --------------------------------------------------------------------
 #N Geom=AllCheck Guess=TCheck SCRF=Check GenChk RB3LYP/def2TZVP Freq
 --------------------------------------------------------------------
 1/5=1,8=10,10=4,11=1,29=7,30=1,38=1,40=1/1,3;
 2/12=2,15=1,40=1/2;
 3/5=44,7=101,11=2,14=-4,25=1,30=1,70=2,71=2,74=-5,116=1,140=1/1,2,3;
 4/5=101/1;
 5/5=2,38=6,98=1/2;
 8/6=4,10=90,11=11/1;
 11/6=1,8=1,9=11,15=111,16=1,31=1/1,2,10;
 10/6=1,31=1/2;
 7/8=1,10=1,25=1,30=1/1,2,3,16;
 1/5=1,8=10,10=4,11=1,30=1/3;
 99//99;
 Structure from the checkpoint file:  "checkpoint.chk"
 -----------------
 ts_zmat_initalOpt
 -----------------
 Charge =  0 Multiplicity = 1
 Z-Matrix found in chk file.
 H
 C,1,R2
 H,2,R3,1,A3
 C,2,R4,1,A4,3,D4,0
 H,4,R5,2,A5,1,D5,0
 C,4,R6,2,A6,5,D6,0
 H,6,R7,4,A7,2,D7,0
 C,6,R8,4,A8,7,D8,0
 H,8,R9,6,A9,4,D9,0
 H,8,R10,6,A10,9,D10,0
 C,8,R11,6,A11,9,D11,0
 H,11,R12,8,A12,6,D12,0
 H,11,R13,8,A13,12,D13,0
      Variables:
 R2=1.086903
 R3=1.07686954
 R4=1.375855
 R5=1.09439213
 R6=1.38619872
 R7=1.08578815
 R8=1.51000902
 R9=1.09569223
 R10=1.091967
 R11=1.45167235
 R12=1.08046035
 R13=1.07921614
 A3=116.80142982
 A4=120.78340112
 A5=117.29243637
 A6=128.4538754
 A7=118.95891312
 A8=124.01948219
 A9=107.50462092
 A10=112.65517725
 A11=103.22717341
 A12=118.97749772
 A13=122.95381863
 D4=167.9521542
 D5=-20.49185094
 D6=178.05327074
 D7=151.77850608
 D8=179.30552795
 D9=165.96198734
 D10=118.4308788
 D11=-117.59353961
 D12=67.2791487
 D13=-181.80542452
 Recover connectivity data from disk.

 GradGradGradGradGradGradGradGradGradGradGradGradGradGradGradGradGradGrad
 Berny optimization.
 Initialization pass.
                       ----------------------------
                       !    Initial Parameters    !
                       ! (Angstroms and Degrees)  !
 ----------------------                            ----------------------
 !      Name          Value   Derivative information (Atomic Units)     !
 ------------------------------------------------------------------------
 !       R2          1.0869   calculate D2E/DX2 analytically            !
 !       R3          1.0769   calculate D2E/DX2 analytically            !
 !       R4          1.3759   calculate D2E/DX2 analytically            !
 !       R5          1.0944   calculate D2E/DX2 analytically            !
 !       R6          1.3862   calculate D2E/DX2 analytically            !
 !       R7          1.0858   calculate D2E/DX2 analytically            !
 !       R8          1.51     calculate D2E/DX2 analytically            !
 !       R9          1.0957   calculate D2E/DX2 analytically            !
 !       R10         1.092    calculate D2E/DX2 analytically            !
 !       R11         1.4517   calculate D2E/DX2 analytically            !
 !       R12         1.0805   calculate D2E/DX2 analytically            !
 !       R13         1.0792   calculate D2E/DX2 analytically            !
 !       A3        116.8014   calculate D2E/DX2 analytically            !
 !       A4        120.7834   calculate D2E/DX2 analytically            !
 !       A5        117.2924   calculate D2E/DX2 analytically            !
 !       A6        128.4539   calculate D2E/DX2 analytically            !
 !       A7        118.9589   calculate D2E/DX2 analytically            !
 !       A8        124.0195   calculate D2E/DX2 analytically            !
 !       A9        107.5046   calculate D2E/DX2 analytically            !
 !       A10       112.6552   calculate D2E/DX2 analytically            !
 !       A11       103.2272   calculate D2E/DX2 analytically            !
 !       A12       118.9775   calculate D2E/DX2 analytically            !
 !       A13       122.9538   calculate D2E/DX2 analytically            !
 !       D4        167.9522   calculate D2E/DX2 analytically            !
 !       D5        -20.4919   calculate D2E/DX2 analytically            !
 !       D6        178.0533   calculate D2E/DX2 analytically            !
 !       D7        151.7785   calculate D2E/DX2 analytically            !
 !       D8        179.3055   calculate D2E/DX2 analytically            !
 !       D9        165.962    calculate D2E/DX2 analytically            !
 !       D10       118.4309   calculate D2E/DX2 analytically            !
 !       D11      -117.5935   calculate D2E/DX2 analytically            !
 !       D12        67.2791   calculate D2E/DX2 analytically            !
 !       D13      -181.8054   calculate D2E/DX2 analytically            !
 ------------------------------------------------------------------------
 Trust Radius=1.00D-01 FncErr=1.00D-07 GrdErr=1.00D-07 EigMax=2.50D+02 EigMin=1.00D-04
 Number of steps in this run=      2 maximum allowed number of steps=      2.
 Search for a saddle point of order  1.
 GradGradGradGradGradGradGradGradGradGradGradGradGradGradGradGradGradGrad

                          Input orientation:                          
 ---------------------------------------------------------------------
 Center     Atomic      Atomic             Coordinates (Angstroms)
 Number     Number       Type             X           Y           Z
 ---------------------------------------------------------------------
      1          1           0        0.000000    0.000000    0.000000
      2          6           0        0.000000    0.000000    1.086903
      3          1           0        0.961186    0.000000    1.572463
      4          6           0       -1.155973    0.246719    1.791057
      5          1           0       -1.962509    0.766994    1.265218
      6          6           0       -1.464543   -0.111100    3.094245
      7          1           0       -2.159200    0.504245    3.657927
      8          6           0       -0.903246   -1.326954    3.791935
      9          1           0       -1.112342   -1.218729    4.862033
     10          1           0       -1.367768   -2.256416    3.456211
     11          6           0        0.520586   -1.235886    3.524048
     12          1           0        1.085872   -0.428389    3.966535
     13          1           0        1.052037   -1.957130    2.922322
 ---------------------------------------------------------------------
                    Distance matrix (angstroms):
                    1          2          3          4          5
     1  H    0.000000
     2  C    1.086903   0.000000
     3  H    1.842965   1.076870   0.000000
     4  C    2.145933   1.375855   2.142666   0.000000
     5  H    2.457742   2.114596   3.038203   1.094392   0.000000
     6  C    3.425139   2.487298   2.865716   1.386199   2.089105
     7  H    4.277480   3.395081   3.786850   2.134944   2.415115
     8  C    4.117697   3.145450   3.187941   2.558091   3.448327
     9  H    5.134390   4.119977   4.075056   3.402988   4.195588
    10  H    4.348287   3.546241   3.750193   3.013847   3.780896
    11  C    3.770589   2.781744   2.351643   2.830587   3.908913
    12  H    4.134735   3.107236   2.435291   3.195988   4.244842
    13  H    3.671117   2.881996   2.379228   3.318435   4.387976
                    6          7          8          9         10
     6  C    0.000000
     7  H    1.085788   0.000000
     8  C    1.510009   2.224561   0.000000
     9  H    2.115647   2.348281   1.095692   0.000000
    10  H    2.177789   2.878941   1.091967   1.765891   0.000000
    11  C    2.321769   3.198005   1.451672   2.111148   2.147548
    12  H    2.714071   3.390507   2.189633   2.501739   3.102009
    13  H    3.125789   4.112362   2.230802   2.998708   2.496010
                   11         12         13
    11  C    0.000000
    12  H    1.080460   0.000000
    13  H    1.079216   1.851641   0.000000
 Symmetry turned off by external request.
 Stoichiometry    C5H8
 Framework group  C1[X(C5H8)]
 Deg. of freedom    33
 Full point group                 C1      NOp   1
 Rotational constants (GHZ):           8.5335475           4.4599770           3.1757007
 Standard basis: def2TZVP (5D, 7F)
 The following finite field(s) will be applied:
 An electric field of              0.0010  0.0011 -0.0099
   203 basis functions,   319 primitive gaussians,   228 cartesian basis functions
    19 alpha electrons       19 beta electrons
       nuclear repulsion energy       161.8623996871 Hartrees.
 NAtoms=   13 NActive=   13 NUniq=   13 SFac= 1.00D+00 NAtFMM=   60 NAOKFM=F Big=F
 Integral buffers will be    131072 words long.
 Raffenetti 2 integral format.
 Two-electron integral symmetry is turned off.
 One-electron integrals computed using PRISM.
   1 Symmetry operations used in ECPInt.
 ECPInt:  NShTT=    3828 NPrTT=   11160 LenC2=    3812 LenP2D=    9462.
 LDataN:  DoStor=T MaxTD1= 6 Len=  172
 NBasis=   203 RedAO= T EigKep=  1.50D-04  NBF=   203
 NBsUse=   203 1.00D-06 EigRej= -1.00D+00 NBFU=   203
 The nuclear repulsion energy is now       159.8865684018 hartrees.
 Initial guess from the checkpoint file:  "checkpoint.chk"
 B after Tr=     0.000000    0.000000    0.000000
         Rot=    1.000000    0.000000    0.000000    0.000000 Ang=   0.00 deg.
 Requested convergence on RMS density matrix=1.00D-08 within 128 cycles.
 Requested convergence on MAX density matrix=1.00D-06.
 Requested convergence on             energy=1.00D-06.
 No special actions if energy rises.
 SCF Done:  E(RB3LYP) =  -195.283117272     A.U. after    1 cycles
            NFock=  1  Conv=0.26D-08     -V/T= 2.0057
 DoSCS=F DFT=T ScalE2(SS,OS)=  1.000000  1.000000
 Range of M.O.s used for correlation:     1   203
 NBasis=   203 NAE=    19 NBE=    19 NFC=     0 NFV=     0
 NROrb=    203 NOA=    19 NOB=    19 NVA=   184 NVB=   184

 **** Warning!!: The largest alpha MO coefficient is  0.18609398D+02

   1 Symmetry operations used in ECPInt.
 ECPInt:  NShTT=    3828 NPrTT=   11160 LenC2=    3812 LenP2D=    9462.
 LDataN:  DoStor=T MaxTD1= 7 Len=  274
 Symmetrizing basis deriv contribution to polar:
 IMax=3 JMax=2 DiffMx= 0.00D+00
 G2DrvN: will do    14 centers at a time, making    1 passes.
 Calling FoFCou, ICntrl=  3107 FMM=F I1Cent=   0 AccDes= 0.00D+00.
 End of G2Drv F.D. properties file   721 does not exist.
 End of G2Drv F.D. properties file   722 does not exist.
 End of G2Drv F.D. properties file   788 does not exist.
          IDoAtm=1111111111111
          Differentiating once with respect to electric field.
                with respect to dipole field.
          Differentiating once with respect to nuclear coordinates.
 Keep R1 ints in memory in canonical form, NReq=227048987.
          There are    42 degrees of freedom in the 1st order CPHF.  IDoFFX=6 NUNeed=     3.
     39 vectors produced by pass  0 Test12= 8.32D-15 2.38D-09 XBig12= 1.81D+02 1.06D+01.
 AX will form    39 AO Fock derivatives at one time.
     39 vectors produced by pass  1 Test12= 8.32D-15 2.38D-09 XBig12= 4.60D+01 1.45D+00.
     39 vectors produced by pass  2 Test12= 8.32D-15 2.38D-09 XBig12= 6.09D-01 1.13D-01.
     39 vectors produced by pass  3 Test12= 8.32D-15 2.38D-09 XBig12= 1.68D-03 6.05D-03.
     39 vectors produced by pass  4 Test12= 8.32D-15 2.38D-09 XBig12= 2.71D-06 2.10D-04.
     29 vectors produced by pass  5 Test12= 8.32D-15 2.38D-09 XBig12= 3.01D-09 7.00D-06.
      4 vectors produced by pass  6 Test12= 8.32D-15 2.38D-09 XBig12= 3.54D-12 2.33D-07.
      2 vectors produced by pass  7 Test12= 8.32D-15 2.38D-09 XBig12= 3.17D-15 6.01D-09.
 InvSVY:  IOpt=1 It=  1 EMax= 1.42D-14
 Solved reduced A of dimension   230 with    42 vectors.
 Isotropic polarizability for W=    0.000000       74.73 Bohr**3.
 End of Minotr F.D. properties file   721 does not exist.
 End of Minotr F.D. properties file   722 does not exist.
 End of Minotr F.D. properties file   788 does not exist.
   1 Symmetry operations used in ECPInt.
 ECPInt:  NShTT=    3828 NPrTT=   11160 LenC2=    3812 LenP2D=    9462.
 LDataN:  DoStor=T MaxTD1= 8 Len=  415
 Calling FoFJK, ICntrl=    100127 FMM=F ISym2X=0 I1Cent= 0 IOpClX= 0 NMat=1 NMatS=1 NMatT=0.
 Full mass-weighted force constant matrix:
 Low frequencies --- -418.3038  -10.8125   -0.0006   -0.0001    0.0007   12.8407
 Low frequencies ---   21.1909  217.1583  259.0298
 ******    1 imaginary frequencies (negative Signs) ****** 
 Diagonal vibrational polarizability:
        2.4112119       5.9289983       4.7228638
 Harmonic frequencies (cm**-1), IR intensities (KM/Mole), Raman scattering
 activities (A**4/AMU), depolarization ratios for plane and unpolarized
 incident light, reduced masses (AMU), force constants (mDyne/A),
 and normal coordinates:
                      1                      2                      3
                      A                      A                      A
 Frequencies --   -418.3035               217.1581               259.0245
 Red. masses --      1.9527                 2.2534                 2.2239
 Frc consts  --      0.2013                 0.0626                 0.0879
 IR Inten    --      0.5763                 0.4842                 1.9785
  Atom  AN      X      Y      Z        X      Y      Z        X      Y      Z
     1   1    -0.07   0.32  -0.12     0.03   0.44  -0.09    -0.22   0.03  -0.10
     2   6    -0.06   0.07  -0.13     0.01   0.19  -0.09    -0.09  -0.04  -0.10
     3   1    -0.06  -0.36  -0.11    -0.00  -0.04  -0.05    -0.04  -0.37  -0.19
     4   6     0.03  -0.04  -0.06     0.00  -0.04  -0.06     0.01   0.13   0.03
     5   1    -0.05  -0.09  -0.00    -0.04  -0.07  -0.03     0.08   0.32   0.13
     6   6     0.14  -0.01   0.03    -0.04  -0.08  -0.07    -0.06  -0.01  -0.04
     7   1     0.43   0.22   0.15    -0.09  -0.07  -0.14    -0.19  -0.15  -0.06
     8   6    -0.06  -0.10   0.04     0.02   0.06   0.15     0.04   0.01  -0.09
     9   1    -0.18  -0.14   0.00     0.14   0.41   0.14    -0.12  -0.10  -0.10
    10   1     0.02  -0.09  -0.09    -0.10  -0.01   0.51     0.13   0.01  -0.21
    11   6    -0.05   0.06   0.12     0.01  -0.15   0.05     0.11  -0.06   0.20
    12   1    -0.09  -0.02   0.32     0.13  -0.12  -0.15    -0.00   0.09   0.06
    13   1    -0.07   0.36  -0.25    -0.13  -0.28   0.09     0.24  -0.21   0.50
                      4                      5                      6
                      A                      A                      A
 Frequencies --    366.1373               544.4208               591.4617
 Red. masses --      2.2249                 1.2816                 1.3573
 Frc consts  --      0.1757                 0.2238                 0.2798
 IR Inten    --      6.0047                11.2094                 2.8975
  Atom  AN      X      Y      Z        X      Y      Z        X      Y      Z
     1   1     0.11  -0.13   0.05    -0.31  -0.23  -0.11     0.08  -0.20   0.03
     2   6    -0.03   0.07   0.05     0.02   0.01  -0.10    -0.02  -0.05   0.03
     3   1    -0.11   0.35   0.20     0.18   0.64  -0.41    -0.07   0.04   0.12
     4   6    -0.13  -0.09  -0.09     0.07  -0.01   0.07    -0.04   0.11  -0.03
     5   1    -0.27  -0.41  -0.20    -0.02  -0.13   0.07    -0.01   0.19  -0.00
     6   6     0.07   0.13   0.02     0.02   0.00   0.02    -0.03  -0.03  -0.08
     7   1     0.03   0.09   0.02    -0.23  -0.16  -0.10    -0.03  -0.07  -0.02
     8   6     0.02   0.06  -0.08    -0.03  -0.01   0.02     0.04  -0.03   0.02
     9   1    -0.08  -0.15  -0.08    -0.03  -0.03   0.02     0.12   0.24   0.00
    10   1    -0.04   0.16  -0.30    -0.08   0.02  -0.02    -0.02  -0.08   0.24
    11   6     0.09  -0.13   0.10    -0.03   0.00   0.02     0.04  -0.01   0.02
    12   1     0.18  -0.30   0.28    -0.01  -0.13   0.24     0.15  -0.38   0.56
    13   1     0.04  -0.17   0.11    -0.02   0.04  -0.01    -0.05   0.28  -0.40
                      7                      8                      9
                      A                      A                      A
 Frequencies --    653.4602               690.2085               740.9117
 Red. masses --      1.5340                 1.2641                 1.3075
 Frc consts  --      0.3859                 0.3548                 0.4229
 IR Inten    --      9.9816                72.6633                13.5849
  Atom  AN      X      Y      Z        X      Y      Z        X      Y      Z
     1   1     0.14  -0.11   0.00     0.09   0.64   0.00     0.01   0.59   0.01
     2   6    -0.03  -0.02   0.00    -0.01  -0.12   0.00    -0.02  -0.06   0.01
     3   1    -0.08   0.51   0.10     0.02   0.49  -0.06    -0.01  -0.01  -0.01
     4   6    -0.07   0.08  -0.05    -0.01  -0.01  -0.00     0.01  -0.07   0.03
     5   1    -0.06   0.25   0.10     0.10   0.21   0.04     0.06   0.01   0.04
     6   6     0.13  -0.04  -0.06    -0.04   0.00  -0.03     0.03   0.03   0.04
     7   1     0.33   0.07   0.09     0.08   0.12  -0.00    -0.10  -0.07  -0.02
     8   6    -0.00  -0.09   0.04     0.01   0.03   0.03    -0.01   0.02  -0.10
     9   1    -0.01   0.12   0.02    -0.16  -0.12   0.00     0.29   0.24  -0.06
    10   1    -0.04  -0.11   0.17     0.13   0.04  -0.17    -0.24   0.02   0.21
    11   6    -0.05   0.01  -0.00     0.04  -0.03   0.05    -0.02   0.03  -0.05
    12   1    -0.21   0.16  -0.08     0.12   0.05  -0.19    -0.17  -0.12   0.41
    13   1     0.18  -0.21   0.47    -0.15   0.10  -0.27     0.27  -0.01   0.26
                     10                     11                     12
                      A                      A                      A
 Frequencies --    789.8874               830.5791               887.3731
 Red. masses --      1.3721                 1.5044                 1.5088
 Frc consts  --      0.5044                 0.6115                 0.7000
 IR Inten    --     15.5144                11.1990                 6.4263
  Atom  AN      X      Y      Z        X      Y      Z        X      Y      Z
     1   1     0.00   0.00  -0.04     0.13   0.12   0.01     0.01  -0.31  -0.02
     2   6     0.02   0.02  -0.04    -0.03  -0.01   0.01     0.02   0.07  -0.02
     3   1     0.02  -0.01  -0.02    -0.10  -0.15   0.15    -0.00   0.03   0.03
     4   6     0.00  -0.05  -0.00    -0.03  -0.00   0.00    -0.06  -0.17   0.03
     5   1     0.14   0.21   0.03    -0.03   0.16   0.18     0.28   0.72   0.38
     6   6    -0.11  -0.01  -0.01     0.16  -0.05  -0.02     0.02  -0.01  -0.00
     7   1     0.25   0.33   0.08    -0.41  -0.47  -0.27     0.05   0.06  -0.05
     8   6     0.04  -0.01   0.06    -0.02   0.05   0.05    -0.03   0.05  -0.05
     9   1    -0.04  -0.25   0.06    -0.22  -0.12   0.02     0.00   0.10  -0.05
    10   1     0.17   0.02  -0.18     0.09   0.08  -0.21    -0.10   0.07   0.01
    11   6    -0.01   0.07  -0.07    -0.04   0.07  -0.04     0.03  -0.02   0.03
    12   1     0.26  -0.37   0.38     0.25  -0.19   0.06    -0.07   0.07  -0.02
    13   1    -0.07  -0.33   0.36    -0.28  -0.18   0.06     0.06   0.17  -0.17
                     13                     14                     15
                      A                      A                      A
 Frequencies --    926.2702              1027.2141              1059.9004
 Red. masses --      1.8352                 1.5688                 1.6490
 Frc consts  --      0.9277                 0.9753                 1.0914
 IR Inten    --      6.3565                 0.0444                14.8947
  Atom  AN      X      Y      Z        X      Y      Z        X      Y      Z
     1   1     0.39   0.03  -0.10     0.64  -0.12  -0.13     0.04  -0.01   0.01
     2   6     0.04  -0.01  -0.11    -0.00  -0.02  -0.15    -0.04  -0.00   0.01
     3   1    -0.08  -0.04   0.15    -0.26   0.14   0.39    -0.10  -0.02   0.12
     4   6    -0.04   0.01  -0.07     0.06   0.01   0.07     0.04   0.03   0.05
     5   1     0.06   0.20  -0.04    -0.22  -0.18   0.30    -0.15  -0.17   0.15
     6   6    -0.04   0.14   0.08    -0.05  -0.05   0.08     0.01  -0.12  -0.07
     7   1    -0.45  -0.14  -0.11     0.08   0.01   0.17     0.16   0.22  -0.24
     8   6     0.01  -0.10   0.13     0.00   0.05  -0.08    -0.05   0.11   0.08
     9   1     0.24  -0.40   0.21     0.06   0.12  -0.07    -0.08  -0.27   0.11
    10   1    -0.10   0.02  -0.04     0.05  -0.02   0.04    -0.34   0.36  -0.23
    11   6     0.02  -0.04  -0.03    -0.03   0.02   0.03     0.07  -0.05  -0.07
    12   1    -0.24   0.11   0.04     0.08  -0.01  -0.05    -0.24   0.04   0.18
    13   1     0.28   0.15  -0.02    -0.16  -0.04  -0.02     0.43   0.19  -0.02
                     16                     17                     18
                      A                      A                      A
 Frequencies --   1136.0416              1157.7369              1215.2209
 Red. masses --      2.0016                 2.0689                 1.2532
 Frc consts  --      1.5220                 1.6338                 1.0904
 IR Inten    --     20.2447                 1.4788                 9.1321
  Atom  AN      X      Y      Z        X      Y      Z        X      Y      Z
     1   1     0.01   0.00   0.01    -0.11  -0.02   0.05    -0.06  -0.03   0.02
     2   6    -0.07   0.01   0.00    -0.09   0.02   0.04    -0.02   0.00   0.02
     3   1    -0.18   0.05   0.21    -0.19   0.03   0.22    -0.02   0.06   0.01
     4   6     0.07  -0.04   0.05     0.09  -0.05   0.06     0.01   0.02  -0.02
     5   1     0.02  -0.08   0.08    -0.07  -0.09   0.27     0.03   0.03  -0.04
     6   6    -0.01   0.10  -0.02     0.00   0.09  -0.12     0.03  -0.04  -0.00
     7   1    -0.15   0.28  -0.39    -0.11   0.34  -0.54     0.02   0.18  -0.25
     8   6    -0.13  -0.14   0.02     0.16  -0.04   0.00    -0.10   0.01  -0.05
     9   1    -0.46   0.26  -0.09     0.24  -0.02   0.02     0.68  -0.46   0.16
    10   1    -0.08  -0.24   0.22     0.35  -0.08  -0.11    -0.08  -0.09   0.19
    11   6     0.16   0.05  -0.04    -0.14  -0.04   0.03     0.03   0.04   0.06
    12   1     0.36  -0.03  -0.13    -0.29   0.05   0.03     0.25  -0.01  -0.13
    13   1     0.14  -0.06   0.05    -0.14   0.03  -0.04    -0.17  -0.07   0.00
                     19                     20                     21
                      A                      A                      A
 Frequencies --   1266.4511              1309.5357              1398.3444
 Red. masses --      1.2545                 1.2967                 1.3494
 Frc consts  --      1.1855                 1.3101                 1.5546
 IR Inten    --     20.1261                 6.4484                 1.7135
  Atom  AN      X      Y      Z        X      Y      Z        X      Y      Z
     1   1     0.05   0.08   0.00    -0.00   0.00  -0.00    -0.34   0.05   0.02
     2   6     0.11  -0.02   0.01     0.01  -0.00  -0.00     0.01  -0.00   0.01
     3   1     0.27  -0.18  -0.30     0.03  -0.01  -0.03    -0.15   0.02   0.29
     4   6    -0.08   0.02  -0.01    -0.01   0.01  -0.01     0.07  -0.04  -0.02
     5   1    -0.57  -0.08   0.62    -0.06  -0.01   0.05    -0.15  -0.03   0.34
     6   6    -0.01   0.03  -0.02     0.02   0.00   0.02    -0.03   0.08  -0.12
     7   1    -0.00   0.16  -0.14    -0.00  -0.01  -0.00     0.09  -0.42   0.56
     8   6    -0.00  -0.03  -0.01    -0.10   0.10   0.00    -0.05  -0.01   0.03
     9   1     0.02   0.03  -0.01    -0.03  -0.10   0.04     0.19  -0.10   0.08
    10   1    -0.06  -0.01   0.02     0.79  -0.42   0.19    -0.02   0.02  -0.06
    11   6     0.01   0.01   0.01     0.00  -0.06  -0.04     0.00   0.01   0.00
    12   1     0.06  -0.01  -0.01    -0.13  -0.05   0.11     0.17  -0.04  -0.09
    13   1    -0.03  -0.02   0.01     0.28   0.09   0.00     0.13   0.07   0.04
                     22                     23                     24
                      A                      A                      A
 Frequencies --   1422.7830              1482.9546              1499.1023
 Red. masses --      1.1174                 1.3111                 1.3917
 Frc consts  --      1.3327                 1.6988                 1.8427
 IR Inten    --     14.8643                 8.8362                 0.6942
  Atom  AN      X      Y      Z        X      Y      Z        X      Y      Z
     1   1    -0.10   0.01   0.01     0.53  -0.05   0.02    -0.37   0.03  -0.02
     2   6     0.00  -0.00   0.00    -0.07   0.02   0.03     0.06  -0.02  -0.02
     3   1    -0.04   0.02   0.08     0.16  -0.06  -0.42    -0.11   0.04   0.30
     4   6     0.02  -0.00  -0.02    -0.00  -0.02   0.07    -0.01   0.03  -0.05
     5   1    -0.04   0.01   0.09     0.08  -0.06  -0.08    -0.03   0.05  -0.00
     6   6    -0.01   0.02  -0.00     0.01   0.04  -0.08    -0.00  -0.05   0.09
     7   1    -0.01  -0.03   0.05     0.05  -0.10   0.10    -0.07   0.16  -0.20
     8   6     0.07   0.04  -0.04     0.03   0.00  -0.00     0.05   0.01  -0.02
     9   1    -0.42  -0.54  -0.07    -0.04  -0.18   0.00    -0.11   0.03  -0.05
    10   1    -0.20  -0.08   0.62    -0.06  -0.01   0.15    -0.05   0.04   0.03
    11   6     0.00   0.00  -0.01    -0.08  -0.00   0.02    -0.11  -0.01   0.02
    12   1    -0.14   0.05   0.08     0.36  -0.18  -0.20     0.44  -0.23  -0.26
    13   1    -0.13  -0.06  -0.04     0.34   0.24   0.08     0.44   0.33   0.09
                     25                     26                     27
                      A                      A                      A
 Frequencies --   1586.1732              3019.7380              3036.4480
 Red. masses --      4.1147                 1.0588                 1.0817
 Frc consts  --      6.0995                 5.6886                 5.8760
 IR Inten    --     36.9555                 4.7727                44.2045
  Atom  AN      X      Y      Z        X      Y      Z        X      Y      Z
     1   1    -0.28   0.12  -0.16    -0.00  -0.00  -0.00    -0.00  -0.00  -0.11
     2   6     0.20  -0.03  -0.16     0.00  -0.00   0.00     0.00   0.00   0.01
     3   1    -0.07  -0.14   0.44     0.00   0.00   0.00     0.01   0.01   0.01
     4   6    -0.25   0.02   0.34    -0.00   0.00  -0.00    -0.06   0.04  -0.04
     5   1     0.14  -0.21  -0.49     0.03  -0.02   0.02     0.72  -0.47   0.48
     6   6     0.06   0.05  -0.18    -0.00   0.00   0.00     0.00  -0.00  -0.00
     7   1     0.16   0.02  -0.05     0.04  -0.02  -0.02    -0.05   0.05   0.04
     8   6    -0.01  -0.01   0.00     0.03   0.03  -0.05    -0.00   0.00   0.00
     9   1     0.05  -0.13   0.02    -0.16   0.09   0.82     0.01  -0.00  -0.05
    10   1     0.01  -0.06   0.11    -0.22  -0.46  -0.18    -0.00  -0.01  -0.00
    11   6    -0.00   0.01   0.01    -0.00   0.00  -0.00     0.00  -0.00  -0.00
    12   1     0.01   0.01  -0.00     0.00   0.00   0.00     0.00   0.00  -0.00
    13   1    -0.04   0.01  -0.02     0.00  -0.00  -0.01    -0.00   0.00   0.00
                     28                     29                     30
                      A                      A                      A
 Frequencies --   3067.7989              3109.0565              3147.1373
 Red. masses --      1.1018                 1.0676                 1.0882
 Frc consts  --      6.1096                 6.0799                 6.3500
 IR Inten    --     15.8539                48.8903                 5.3924
  Atom  AN      X      Y      Z        X      Y      Z        X      Y      Z
     1   1    -0.00  -0.00  -0.00     0.01  -0.00   0.94    -0.00  -0.00   0.04
     2   6     0.00  -0.00   0.00     0.03  -0.00  -0.07     0.00  -0.00  -0.00
     3   1    -0.00   0.00  -0.00    -0.26  -0.00  -0.15     0.01   0.00   0.00
     4   6    -0.00   0.00  -0.00    -0.01   0.00  -0.00    -0.00   0.00  -0.01
     5   1     0.03  -0.02   0.02     0.08  -0.05   0.05     0.05  -0.03   0.04
     6   6    -0.00   0.00   0.00     0.00  -0.00  -0.00    -0.05   0.05   0.05
     7   1     0.04  -0.03  -0.03    -0.02   0.03   0.02     0.63  -0.55  -0.52
     8   6    -0.02  -0.06  -0.06    -0.00   0.00  -0.00     0.00   0.00   0.01
     9   1    -0.11   0.04   0.51    -0.00   0.00   0.00     0.01  -0.01  -0.07
    10   1     0.36   0.72   0.26    -0.00  -0.00  -0.00    -0.01  -0.02  -0.01
    11   6     0.00   0.00   0.00     0.00   0.00  -0.00    -0.00  -0.00  -0.00
    12   1    -0.01  -0.03  -0.01    -0.00  -0.00   0.00     0.02   0.03   0.02
    13   1     0.02  -0.03  -0.02     0.00  -0.00   0.00     0.01  -0.02  -0.01
                     31                     32                     33
                      A                      A                      A
 Frequencies --   3166.4647              3249.9485              3270.4592
 Red. masses --      1.0517                 1.1000                 1.1191
 Frc consts  --      6.2129                 6.8454                 7.0523
 IR Inten    --      4.5668                11.6909                 1.7491
  Atom  AN      X      Y      Z        X      Y      Z        X      Y      Z
     1   1     0.00  -0.00  -0.00    -0.01   0.00   0.27     0.00   0.00  -0.01
     2   6     0.00  -0.00   0.00    -0.07  -0.00  -0.06     0.00   0.00   0.00
     3   1    -0.01   0.00  -0.01     0.85   0.00   0.43    -0.05  -0.00  -0.03
     4   6    -0.00  -0.00   0.00    -0.00   0.00  -0.00     0.00  -0.00  -0.00
     5   1    -0.00   0.00  -0.00     0.02  -0.01   0.01    -0.00  -0.00  -0.00
     6   6     0.00  -0.00  -0.00     0.00  -0.00  -0.00     0.00  -0.00   0.00
     7   1    -0.03   0.02   0.02    -0.02   0.01   0.01    -0.00   0.00   0.00
     8   6     0.00  -0.00   0.00    -0.00  -0.00  -0.00    -0.00  -0.00  -0.00
     9   1    -0.00  -0.00  -0.01    -0.00  -0.00   0.00    -0.01   0.00   0.03
    10   1     0.00   0.01   0.00     0.00   0.01   0.00     0.02   0.03   0.01
    11   6    -0.06  -0.01   0.01    -0.00  -0.00  -0.00     0.00  -0.08  -0.06
    12   1     0.37   0.55   0.31     0.02   0.04   0.02     0.36   0.50   0.27
    13   1     0.32  -0.46  -0.38    -0.02   0.02   0.02    -0.36   0.49   0.41

 -------------------
 - Thermochemistry -
 -------------------
 Temperature   298.150 Kelvin.  Pressure   1.00000 Atm.
 Atom     1 has atomic number  1 and mass   1.00783
 Atom     2 has atomic number  6 and mass  12.00000
 Atom     3 has atomic number  1 and mass   1.00783
 Atom     4 has atomic number  6 and mass  12.00000
 Atom     5 has atomic number  1 and mass   1.00783
 Atom     6 has atomic number  6 and mass  12.00000
 Atom     7 has atomic number  1 and mass   1.00783
 Atom     8 has atomic number  6 and mass  12.00000
 Atom     9 has atomic number  1 and mass   1.00783
 Atom    10 has atomic number  1 and mass   1.00783
 Atom    11 has atomic number  6 and mass  12.00000
 Atom    12 has atomic number  1 and mass   1.00783
 Atom    13 has atomic number  1 and mass   1.00783
 Molecular mass:    68.06260 amu.
 Principal axes and moments of inertia in atomic units:
                           1         2         3
     Eigenvalues --   211.48780 404.65258 568.29701
           X            0.05882   0.93096   0.36034
           Y           -0.49702  -0.28574   0.81935
           Z            0.86574  -0.22729   0.44590
 This molecule is an asymmetric top.
 Rotational symmetry number  1.
 Rotational temperatures (Kelvin)      0.40955     0.21405     0.15241
 Rotational constants (GHZ):           8.53355     4.45998     3.17570
    1 imaginary frequencies ignored.
 Zero-point vibrational energy     287853.8 (Joules/Mol)
                                   68.79872 (Kcal/Mol)
 Warning -- explicit consideration of   5 degrees of freedom as
           vibrations may cause significant error
 Vibrational temperatures:    312.44   372.68   526.79   783.30   850.98
          (Kelvin)            940.18   993.06  1066.01  1136.47  1195.02
                             1276.73  1332.70  1477.93  1524.96  1634.51
                             1665.73  1748.43  1822.14  1884.13  2011.91
                             2047.07  2133.64  2156.87  2282.15  4344.73
                             4368.77  4413.88  4473.24  4528.03  4555.84
                             4675.95  4705.46
 
 Zero-point correction=                           0.109638 (Hartree/Particle)
 Thermal correction to Energy=                    0.114955
 Thermal correction to Enthalpy=                  0.115899
 Thermal correction to Gibbs Free Energy=         0.081799
 Sum of electronic and zero-point Energies=           -195.173480
 Sum of electronic and thermal Energies=              -195.168162
 Sum of electronic and thermal Enthalpies=            -195.167218
 Sum of electronic and thermal Free Energies=         -195.201318
 
                     E (Thermal)             CV                S
                      KCal/Mol        Cal/Mol-Kelvin    Cal/Mol-Kelvin
 Total                   72.135             20.110             71.769
 Electronic               0.000              0.000              0.000
 Translational            0.889              2.981             38.571
 Rotational               0.889              2.981             25.389
 Vibrational             70.358             14.148              7.809
 Vibration     1          0.646              1.815              1.983
[...]
   A12        2.07655  -0.00000   0.00000  -0.00002  -0.00002   2.07653
   A13        2.14595  -0.00000   0.00000   0.00000   0.00000   2.14595
    D4        2.93132   0.00000   0.00000  -0.00003  -0.00003   2.93129
    D5       -0.35765   0.00000   0.00000   0.00005   0.00005  -0.35760
    D6        3.10762  -0.00000   0.00000  -0.00003  -0.00003   3.10758
    D7        2.64903  -0.00001   0.00000   0.00005   0.00005   2.64909
    D8        3.12947  -0.00000   0.00000  -0.00011  -0.00011   3.12936
    D9        2.89658   0.00001   0.00000  -0.00001  -0.00001   2.89658
   D10        2.06701  -0.00000   0.00000  -0.00001  -0.00001   2.06699
   D11       -2.05239   0.00001   0.00000   0.00002   0.00002  -2.05238
   D12        1.17424  -0.00000   0.00000  -0.00013  -0.00013   1.17412
   D13       -3.17310  -0.00000   0.00000   0.00000   0.00000  -3.17310
         Item               Value     Threshold  Converged?
 Maximum Force            0.000013     0.000450     YES
 RMS     Force            0.000006     0.000300     YES
 Maximum Displacement     0.000125     0.001800     YES
 RMS     Displacement     0.000037     0.001200     YES
 Predicted change in Energy=-8.077860D-10
 Optimization completed.
    -- Stationary point found.
                       ----------------------------
                       !   Optimized Parameters   !
                       ! (Angstroms and Degrees)  !
 ----------------------                            ----------------------
 !      Name          Value   Derivative information (Atomic Units)     !
 ------------------------------------------------------------------------
 !       R2          1.0869   -DE/DX =    0.0                           !
 !       R3          1.0769   -DE/DX =    0.0                           !
 !       R4          1.3759   -DE/DX =    0.0                           !
 !       R5          1.0944   -DE/DX =    0.0                           !
 !       R6          1.3862   -DE/DX =    0.0                           !
 !       R7          1.0858   -DE/DX =    0.0                           !
 !       R8          1.51     -DE/DX =    0.0                           !
 !       R9          1.0957   -DE/DX =    0.0                           !
 !       R10         1.092    -DE/DX =    0.0                           !
 !       R11         1.4517   -DE/DX =    0.0                           !
 !       R12         1.0805   -DE/DX =    0.0                           !
 !       R13         1.0792   -DE/DX =    0.0                           !
 !       A3        116.8014   -DE/DX =    0.0                           !
 !       A4        120.7834   -DE/DX =    0.0                           !
 !       A5        117.2924   -DE/DX =    0.0                           !
 !       A6        128.4539   -DE/DX =    0.0                           !
 !       A7        118.9589   -DE/DX =    0.0                           !
 !       A8        124.0195   -DE/DX =    0.0                           !
 !       A9        107.5046   -DE/DX =    0.0                           !
 !       A10       112.6552   -DE/DX =    0.0                           !
 !       A11       103.2272   -DE/DX =    0.0                           !
 !       A12       118.9775   -DE/DX =    0.0                           !
 !       A13       122.9538   -DE/DX =    0.0                           !
 !       D4        167.9522   -DE/DX =    0.0                           !
 !       D5        -20.4919   -DE/DX =    0.0                           !
 !       D6        178.0533   -DE/DX =    0.0                           !
 !       D7        151.7785   -DE/DX =    0.0                           !
 !       D8        179.3055   -DE/DX =    0.0                           !
 !       D9        165.962    -DE/DX =    0.0                           !
 !       D10       118.4309   -DE/DX =    0.0                           !
 !       D11      -117.5935   -DE/DX =    0.0                           !
 !       D12        67.2791   -DE/DX =    0.0                           !
 !       D13      -181.8054   -DE/DX =    0.0                           !
 ------------------------------------------------------------------------
 GradGradGradGradGradGradGradGradGradGradGradGradGradGradGradGradGradGrad


 ----------------------------------------------------------------------

 Electric dipole moment (input orientation):
 (Debye = 10**-18 statcoulomb cm , SI units = C m)
                  (au)            (Debye)         (10**-30 SI)
   Tot        0.119921D+01      0.304809D+01      0.101673D+02
   x         -0.138413D+00     -0.351809D+00     -0.117351D+01
   y         -0.304622D+00     -0.774271D+00     -0.258269D+01
   z          0.115159D+01      0.292704D+01      0.976356D+01

 Dipole polarizability, Alpha (input orientation).
 (esu units = cm**3 , SI units = C**2 m**2 J**-1)
 Alpha(0;0):
               (au)            (10**-24 esu)      (10**-40 SI)
   iso        0.747279D+02      0.110735D+02      0.123210D+02
   aniso      0.489271D+02      0.725024D+01      0.806698D+01
   xx         0.727297D+02      0.107774D+02      0.119915D+02
   yx        -0.132376D+02     -0.196160D+01     -0.218258D+01
   yy         0.608782D+02      0.902121D+01      0.100375D+02
   zx         0.194952D+01      0.288890D+00      0.321433D+00
   zy        -0.198856D+02     -0.294674D+01     -0.327869D+01
   zz         0.905758D+02      0.134219D+02      0.149339D+02

 ----------------------------------------------------------------------

 Dipole orientation:
     1          0.00000000          0.00000000          0.00000000
     6          0.23706637          0.52174166          1.97238223
     1          2.14700802          0.72765675          2.64387316
     6         -1.78594948          1.34331004          3.38389766
     1         -3.42912049          2.06450464          2.35583599
     6         -2.07074624          1.32367301          5.98783193
     1         -3.26898318          2.73844643          6.86686605
     6         -0.83071706         -0.57928206          7.71513384
     1         -0.99282392          0.13808511          9.65067436
     1         -1.74952767         -2.42592306          7.65338491
     6          1.78064592         -0.58168934          6.87473489
     1          2.91531151          1.09045861          7.16679124
     1          2.66725853         -2.20364405          6.01309290

 Electric dipole moment (dipole orientation):
 (Debye = 10**-18 statcoulomb cm , SI units = C m)
                  (au)            (Debye)         (10**-30 SI)
   Tot        0.119921D+01      0.304809D+01      0.101673D+02
   x          0.000000D+00      0.000000D+00      0.000000D+00
   y          0.000000D+00      0.000000D+00      0.000000D+00
   z          0.119921D+01      0.304809D+01      0.101673D+02

 Dipole polarizability, Alpha (dipole orientation).
 (esu units = cm**3 , SI units = C**2 m**2 J**-1)
 Alpha(0;0):
               (au)            (10**-24 esu)      (10**-40 SI)
   iso        0.747279D+02      0.110735D+02      0.123210D+02
   aniso      0.489271D+02      0.725024D+01      0.806698D+01
   xx         0.738737D+02      0.109470D+02      0.121801D+02
   yx        -0.136787D+02     -0.202698D+01     -0.225532D+01
   yy         0.533951D+02      0.791234D+01      0.880367D+01
   zx         0.795189D+01      0.117835D+01      0.131109D+01
   zy        -0.857744D+01     -0.127105D+01     -0.141423D+01
   zz         0.969149D+02      0.143613D+02      0.159791D+02

 ----------------------------------------------------------------------
 1\1\GINC-BHC0034\Freq\RB3LYP\def2TZVP\C5H8\DHANAWAY\10-Jun-2022\1\\#N 
 Geom=AllCheck Guess=TCheck SCRF=Check GenChk RB3LYP/def2TZVP Freq\\ts_
 zmat_initalOpt\\0,1\H\C,1,R2\H,2,R3,1,A3\C,2,R4,1,A4,3,D4,0\H,4,R5,2,A
 5,1,D5,0\C,4,R6,2,A6,5,D6,0\H,6,R7,4,A7,2,D7,0\C,6,R8,4,A8,7,D8,0\H,8,
 R9,6,A9,4,D9,0\H,8,R10,6,A10,9,D10,0\C,8,R11,6,A11,9,D11,0\H,11,R12,8,
 A12,6,D12,0\H,11,R13,8,A13,12,D13,0\\R2=1.086903\R3=1.07686954\R4=1.37
 5855\R5=1.09439213\R6=1.38619872\R7=1.08578815\R8=1.51000902\R9=1.0956
 9223\R10=1.091967\R11=1.45167235\R12=1.08046035\R13=1.07921614\A3=116.
 80142982\A4=120.78340112\A5=117.29243637\A6=128.4538754\A7=118.9589131
 2\A8=124.01948219\A9=107.50462092\A10=112.65517725\A11=103.22717341\A1
 2=118.97749772\A13=122.95381863\D4=167.9521542\D5=-20.49185094\D6=178.
 05327074\D7=151.77850608\D8=179.30552795\D9=165.96198734\D10=118.43087
 88\D11=-117.59353961\D12=67.2791487\D13=-181.80542452\\Version=ES64L-G
 16RevA.03\HF=-195.2831173\RMSD=2.614e-09\RMSF=2.150e-04\ZeroPoint=0.10
 96377\Thermal=0.114955\Dipole=-0.1384125,-0.3046218,1.1515863\DipoleDe
 riv=0.0686349,0.0082082,0.0062061,0.0079835,0.1552999,0.0415258,0.0598
 514,0.0053595,-0.2504723,-0.2261285,-0.1219432,0.4239169,-0.0359957,-0
 .3792921,-0.1621928,0.096368,0.1385248,-0.0853218,0.0191654,-0.0317773
 ,0.0337702,-0.0126199,0.1458903,0.0213377,-0.0301686,-0.0206327,-0.082
 2092,0.141854,-0.0165353,-0.3188266,-0.0620524,-0.1639941,-0.071409,-0
 .1071719,-0.1613844,0.3634465,-0.0618243,0.1264652,-0.086547,0.1369842
 ,0.0341425,0.1134861,-0.1032881,0.082704,0.0116511,-0.1364464,-0.18270
 69,-0.0888035,-0.1347244,-0.0654397,0.2077712,-0.001598,-0.0033517,-0.
 2419886,0.0390613,0.1034297,0.0538991,0.0818823,0.0834469,-0.0696652,0
 .0437298,0.0035793,0.02332,0.0190032,-0.003755,0.3097881,0.055353,0.16
 06935,-0.1834278,0.0698615,0.0393231,-0.0039795,0.1419169,-0.0334704,0
 .0611274,0.0172247,0.0830337,0.0039169,0.0248943,-0.0201593,0.0313372,
 0.055262,-0.0745532,-0.0023229,-0.0943713,-0.0656825,0.0130494,-0.0490
 784,-0.0691326,0.0598282,-0.075321,0.2234871,-0.414476,0.0336116,-0.01
 19406,0.1540911,-0.0354425,0.101287,0.0736165,0.0125359,-0.0092023,0.0
 061165,-0.0303722,-0.0089206,-0.0007599,0.0040801,-0.0299665,0.0509664
 ,0.0022866,0.0123536,0.0161517,0.0370967,0.0327628,-0.0677234,0.027962
 3,-0.0661505,0.0498055\Polar=72.7297266,-13.2375553,60.8781753,1.94952
 31,-19.8856012,90.5757917\PG=C01 [X(C5H8)]\NImag=1\\0.05118070,-0.0042
 4713,0.01593587,0.00011222,0.00053861,0.34452484,-0.05484921,0.0120915
 8,-0.00290495,0.67551872,0.00742899,-0.02774900,0.00026177,-0.05178367
 ,0.07988408,-0.00610517,0.00296784,-0.31956354,-0.03492057,0.03288405,
 0.62070072,0.00341194,0.00179035,0.00256125,-0.28811363,-0.00323358,-0
 .11945098,0.30398168,-0.00190720,0.00087354,-0.00058694,-0.01833200,-0
 .00638512,-0.01024941,-0.00249963,0.01357453,-0.02384648,0.00247549,-0
 .01022555,-0.12148367,-0.01230487,-0.11020255,0.12989448,0.00414953,0.
 11766319,0.00284778,-0.00899540,-0.00347334,-0.30064233,0.04052689,0.1
 2871044,-0.01906572,0.02187353,0.01310957,0.58659255,-0.00308027,0.001
 03027,0.00157722,0.05641675,-0.05675725,-0.03231569,0.00289192,0.00094
 100,0.00380471,-0.16376941,0.25012260,0.02816301,0.00540989,-0.0148294
 3,0.10920491,-0.00167179,-0.16703859,-0.01445189,-0.01618859,0.0066492
 3,-0.10090781,-0.11815196,0.61606765,0.00034695,-0.00255521,0.00067155
 ,-0.02491710,0.01286899,-0.01013428,-0.00272579,0.00441885,0.00147078,
 -0.17437897,0.09402458,-0.09248366,0.19815972,-0.00099421,-0.00179833,
 0.00007615,-0.00523379,0.00600883,0.00829132,0.00057137,0.00171425,0.0
 0027718,0.10490432,-0.09611126,0.03923664,-0.10557078,0.09244697,-0.00
 091767,-0.00065548,0.00070445,0.00801481,-0.00178635,0.01170696,0.0028
 1772,0.00005561,0.00001703,-0.08204265,0.05427153,-0.11853982,0.092002
 69,-0.07153282,0.11705824,-0.00227604,-0.00092207,0.00264462,-0.005026
 14,-0.00511827,0.03095378,0.00240798,0.00051289,0.00190043,-0.09073308
 ,0.01103629,0.08370330,0.00392423,0.00630882,-0.01878937,0.31357631,0.
 00251507,0.00921140,-0.00392927,0.00247328,0.01268950,-0.00069617,-0.0
 0086803,-0.00750584,-0.00204321,0.00168795,-0.09231371,0.06208919,-0.0
 0286001,-0.00600151,0.01567431,-0.16436788,0.40012734,0.00175384,-0.00
 448873,0.00093854,0.03917869,-0.01457567,-0.03847617,-0.00082835,0.012
 22668,0.00064006,0.04519592,0.07192284,-0.30643662,0.00616922,0.018369
 66,-0.00792239,-0.17426969,-0.05497604,0.58553036,-0.00068932,-0.00243
 247,0.00092702,0.00922340,-0.00015684,0.00271385,0.00073356,0.00280294
 ,-0.00100908,-0.00877546,0.00479847,0.01450700,0.00016822,-0.00205078,
 0.00060477,-0.15838350,0.10726912,0.09233439,0.15536166,-0.00037319,-0
 .00082456,0.00120499,0.00470184,0.00001655,0.00161243,0.00064671,0.001
 37018,-0.00037758,-0.01271554,0.00542950,0.01444325,-0.00022302,-0.001
 03144,-0.00031449,0.11198890,-0.12940417,-0.08122069,-0.12187376,0.135
 98340,0.00108777,-0.00012909,-0.00037125,0.00236529,0.00023216,-0.0032
 1054,0.00039416,0.00100034,-0.00009047,0.01768639,-0.01620148,-0.00571
 628,-0.00008178,-0.00003606,0.00073439,0.09308582,-0.07961352,-0.12983
 767,-0.10760036,0.07784090,0.13504800,-0.00037099,0.00216372,-0.001079
 37,-0.00487425,0.00161309,0.00603638,-0.00139866,-0.00386549,0.0010742
 7,-0.00284136,-0.00412985,-0.01943523,0.00111985,0.00259810,-0.0037550
 9,-0.04158593,0.02866691,0.00695920,-0.00365954,0.01241057,-0.01068315
 ,0.48336601,0.00045140,0.00216632,0.00012061,-0.00678064,0.00215638,-0
 .00421093,-0.00023676,-0.00176632,0.00083186,0.01569552,-0.00948506,0.
 00034381,-0.00149909,0.00290249,0.00181809,0.04195624,-0.15549502,0.03
 178744,0.01371236,-0.00712707,0.01679157,0.07939657,0.49098935,0.00013
 448,-0.00060098,0.00027576,-0.00780407,0.00402737,0.00061686,0.0006879
 6,-0.00147920,0.00079156,0.00549737,0.02706218,-0.02161468,0.00114306,
 0.00158723,-0.00285423,-0.02138399,0.04963647,-0.07295366,-0.00449336,
 -0.01626143,0.00017222,-0.03896677,0.06578777,0.50976349,-0.00019177,0
 .00010156,-0.00008311,-0.00102145,0.00063340,0.00057746,-0.00033648,-0
 .00017588,-0.00011784,0.00080131,0.00210101,-0.00192552,-0.00014484,0.
 00017344,-0.00018291,0.00277091,-0.00106679,-0.01597836,0.00123174,0.0
 0048847,0.00005519,-0.05097764,-0.00120951,0.05457453,0.05990871,-0.00
 012136,0.00008052,-0.00008859,0.00152894,0.00010620,0.00080932,-0.0001
 5826,-0.00003988,-0.00012685,-0.00198940,-0.00339413,0.00105716,0.0001
 2829,-0.00030962,0.00003139,-0.00065923,-0.00629027,0.02708074,-0.0002
 1880,0.00179463,0.00000946,-0.00239184,-0.03721357,-0.02977037,-0.0073
 4899,0.04751600,-0.00000763,-0.00005870,0.00002559,-0.00094134,0.00035
 194,0.00031131,0.00003550,0.00023002,0.00012326,-0.00024697,0.00145108
 ,-0.00039359,0.00000554,0.00016552,-0.00032334,0.00329570,-0.00108407,
 -0.01890451,0.00137934,0.00027716,0.00251194,0.04357836,-0.02980488,-0
 .28414896,-0.05360189,0.02746205,0.31318476,-0.00003617,-0.00017334,-0
 .00002232,0.00056046,0.00023195,0.00043495,0.00005826,0.00011786,-0.00
 032764,-0.00043077,0.00048547,0.00112269,-0.00013300,-0.00064416,-0.00
 013295,0.00600319,0.01066713,0.00634549,-0.00173450,0.00083073,-0.0010
 3863,-0.09116200,-0.08379699,-0.03696913,0.00243038,0.00429112,0.00139
 806,0.10250247,0.00007060,0.00056490,0.00006669,-0.00301496,0.00097725
 ,0.00085881,0.00006554,-0.00095414,0.00044074,0.00386610,0.00043222,-0
 .00498500,0.00001615,0.00004264,-0.00009779,-0.00275538,-0.02472073,0.
 00018690,0.00040069,-0.00213828,0.00123178,-0.09672234,-0.23138947,-0.
 07436432,-0.00067760,-0.00159242,-0.00114893,0.09898182,0.25280032,0.0
 0008912,-0.00028247,-0.00005379,0.00109835,-0.00161338,-0.00038749,0.0
 0007333,0.00053845,-0.00029479,-0.00267292,0.00174133,0.00329947,-0.00
 000517,-0.00040552,-0.00002750,0.00530347,0.01590547,0.00041112,-0.000
 24404,0.00053620,0.00005023,-0.03472524,-0.07178314,-0.06985864,-0.013
 80815,-0.02506419,-0.00850878,0.04022937,0.07602930,0.07304068,0.00049
 307,0.00221733,0.00061756,-0.00541161,-0.00241863,0.00186431,0.0007178
 5,-0.00217084,0.00013224,0.00612016,-0.00118436,-0.00591915,-0.0012561
 8,0.00015000,0.00247062,-0.03052397,0.01886566,-0.01031443,0.00630821,
 0.00313334,0.00471509,-0.26569351,-0.05210567,0.04185864,-0.01066472,0
 .00619063,0.00514608,-0.01582736,-0.00112948,0.00413856,0.57002957,0.0
 0039067,0.00215361,0.00115100,0.00726920,-0.01187292,-0.00147064,0.000
 64129,-0.00225564,0.00164618,-0.00121344,-0.00034198,0.01697102,0.0010
 7823,0.00198562,0.00260744,0.00123110,-0.00363514,-0.00618557,-0.00087
 339,-0.00385368,0.00002413,-0.02160089,-0.06169222,-0.02531469,0.00701
 016,-0.00122989,0.00067801,-0.02998947,0.00427327,0.00336844,0.0565865
 5,0.46866783,-0.00077175,-0.00767363,-0.00191300,0.01019065,-0.0079074
 5,0.00745266,-0.00060424,0.01165002,-0.00213544,-0.02170100,0.00540041
 ,0.01298970,0.00163260,0.00464837,-0.00049024,-0.00679823,0.00242706,-
 0.01659331,-0.00094661,0.00148032,-0.00068465,0.05463208,-0.01679525,-
 0.06732453,0.03127798,-0.00176956,-0.00429311,-0.01552356,0.00173486,0
 .00108118,-0.07610191,0.24312553,0.27863190,0.00007685,0.00036775,0.00
 004555,0.00016637,-0.00043792,0.00006810,0.00011428,-0.00029021,-0.000
 46368,-0.00009269,0.00032228,-0.00043114,-0.00001358,-0.00004004,-0.00
 006328,0.00019222,-0.00301690,0.00154897,-0.00019266,0.00003343,-0.000
 06300,-0.01273939,-0.01990272,-0.01278067,0.00073561,-0.00008507,0.000
 45020,-0.00442477,0.00094458,0.00117303,-0.13037814,-0.11411188,-0.057
 61293,0.13639855,-0.00000582,-0.00060273,-0.00009233,-0.00114897,0.002
 68492,0.00008630,0.00022073,0.00055499,0.00063520,0.00141062,-0.000392
 23,-0.00104240,-0.00013980,-0.00063837,-0.00030139,0.00527027,0.003797
 64,0.00103711,0.00018099,0.00034054,0.00001408,0.00071235,-0.00639805,
 0.00073901,0.00046532,0.00016486,-0.00043878,-0.00136768,0.00093559,0.
 00013941,-0.11967173,-0.20756309,-0.10865480,0.12524156,0.21561330,0.0
 0029055,0.00051163,0.00030770,0.00128294,-0.00234595,0.00029617,-0.000
 17686,-0.00059455,-0.00160092,-0.00176032,0.00050100,0.00127743,0.0002
 6441,0.00062694,0.00023612,-0.00593005,-0.00466406,-0.00008916,-0.0005
 0333,-0.00040176,-0.00036406,0.00522378,0.01607489,0.00487316,-0.00174
 548,0.00054359,0.00131583,0.00402396,0.00026731,0.00108978,-0.05469599
 ,-0.11183415,-0.08675641,0.06099586,0.11267535,0.08175698,0.00005622,0
 .00059333,-0.00001667,-0.00061325,-0.00015441,-0.00074827,0.00021473,-
 0.00048482,-0.00033340,0.00059859,0.00008713,-0.00114650,-0.00014951,-
 0.00017228,-0.00002669,-0.00034619,0.00003451,0.00190511,0.00040818,0.
 00095151,0.00007721,-0.00918259,0.01431929,0.01850197,-0.00454176,0.00
 083398,-0.00049094,0.00219380,-0.00004572,-0.00064971,-0.12391336,0.09
 358187,0.08232693,0.01015734,-0.01116785,-0.00726948,0.12511781,-0.000
 12756,-0.00104184,-0.00029992,0.00181244,-0.00175941,0.00143276,0.0001
 6836,-0.00012155,0.00059161,-0.00128174,0.00084003,0.00248878,0.000312
 82,0.00078972,0.00022993,-0.00448168,-0.00045949,-0.00116467,-0.001558
 53,-0.00055561,-0.00116428,0.00114911,0.01235223,-0.00104906,-0.000494
 59,0.00040757,0.00191958,0.00036558,0.00076884,0.00089011,0.09153720,-
 0.18463578,-0.12766587,0.01097513,-0.00849737,-0.01136025,-0.09837654,
 0.18191264,0.00001771,0.00198561,0.00017967,-0.00328104,0.00444816,-0.
 00220580,-0.00095209,-0.00075197,-0.00133462,0.00260531,-0.00106317,-0
 .00571447,-0.00065496,-0.00130462,-0.00029968,0.00628424,0.00127383,0.
 00369340,0.00233041,0.00118071,0.00175814,-0.00885923,-0.01096184,0.00
 226164,0.00095812,-0.00017416,-0.00090040,0.00045971,-0.00022035,0.000
 15852,0.08608840,-0.12476670,-0.11996474,0.00713299,-0.00479678,-0.002
 34263,-0.09212957,0.13515129,0.12471096\\0.00010708,0.00089529,0.00000
 137,-0.00011338,-0.00098385,0.00000306,-0.00000205,0.00008721,0.000003
 11,0.00000741,-0.00000204,0.00000459,0.00000143,0.00000303,0.00000108,
 -0.00000319,-0.00000502,-0.00001272,-0.00000059,-0.00000031,-0.0000003
 7,0.00001211,0.00000845,0.00000450,-0.00000002,-0.00000139,-0.00000049
 ,-0.00000032,-0.00000002,-0.00000037,-0.00000947,-0.00000040,-0.000004
 00,0.00000072,-0.00000204,0.00000014,0.00000027,0.00000110,0.00000013\
 \\@


 MOST BUREAUCRACIES FUNCTION LIKE A SEPTIC TANK.
 THE LARGE CHUNKS RISE TO THE TOP.
 Job cpu time:       0 days  0 hours 27 minutes 42.1 seconds.
 Elapsed time:       0 days  0 hours  2 minutes 19.1 seconds.
 File lengths (MBytes):  RWF=     52 Int=      0 D2E=      0 Chk=     32 Scr=      1
 Normal termination of Gaussian 16 at Fri Jun 10 23:53:18 2022.
