 Entering Gaussian System, Link 0=g16
 Input=int_initalOptXYZ_aligned_sp.gjf
 Output=int_initalOptXYZ_aligned_sp.out
 Initial command:
 /software/gaussian/g16-a03/l1.exe "/local_scratch/11171263/Gau-13288.inp" -scrdir="/local_scratch/11171263/"
 Entering Link 1 = /software/gaussian/g16-a03/l1.exe PID=     13289.
  
 Copyright (c) 1988,1990,1992,1993,1995,1998,2003,2009,2016,
            Gaussian, Inc.  All Rights Reserved.
  
 This is part of the Gaussian(R) 16 program.  It is based on
 the Gaussian(R) 09 system (copyright 2009, Gaussian, Inc.),
 the Gaussian(R) 03 system (copyright 2003, Gaussian, Inc.),
 the Gaussian(R) 98 system (copyright 1998, Gaussian, Inc.),
 the Gaussian(R) 94 system (copyright 1995, Gaussian, Inc.),
 the Gaussian 92(TM) system (copyright 1992, Gaussian, Inc.),
 the Gaussian 90(TM) system (copyright 1990, Gaussian, Inc.),
 the Gaussian 88(TM) system (copyright 1988, Gaussian, Inc.),
 the Gaussian 86(TM) system (copyright 1986, Carnegie Mellon
 University), and the Gaussian 82(TM) system (copyright 1983,
 Carnegie Mellon University). Gaussian is a federally registered
 trademark of Gaussian, Inc.
  
 This software contains proprietary and confidential information,
 including trade secrets, belonging to Gaussian, Inc.
  
 This software is provided under written license and may be
 used, copied, transmitted, or stored only in accord with that
 written license.
  
 The following legend is applicable only to US Government
 contracts under FAR:
  
                    RESTRICTED RIGHTS LEGEND
  
 Use, reproduction and disclosure by the US Government is
 subject to restrictions as set forth in subparagraphs (a)
 and (c) of the Commercial Computer Software - Restricted
 Rights clause in FAR 52.227-19.
  
 Gaussian, Inc.
 340 Quinnipiac St., Bldg. 40, Wallingford CT 06492
  
  
 ---------------------------------------------------------------
 Warning -- This program may not be used in any manner that
 competes with the business of Gaussian, Inc. or will provide
 assistance to any competitor of Gaussian, Inc.  The licensee
 of this program is prohibited from giving any competitor of
 Gaussian, Inc. access to this program.  By using this program,
 the user acknowledges that Gaussian, Inc. is engaged in the
 business of creating and licensing software in the field of
 computational chemistry and represents and warrants to the
 licensee that it is not a competitor of Gaussian, Inc. and that
 it will not use this program in any manner prohibited above.
 ---------------------------------------------------------------
  

 Cite this work as:
 Gaussian 16, Revision A.03,
 M. J. Frisch, G. W. Trucks, H. B. Schlegel, G. E. Scuseria, 
 M. A. Robb, J. R. Cheeseman, G. Scalmani, V. Barone, 
 G. A. Petersson, H. Nakatsuji, X. Li, M. Caricato, A. V. Marenich, 
 J. Bloino, B. G. Janesko, R. Gomperts, B. Mennucci, H. P. Hratchian, 
 J. V. Ortiz, A. F. Izmaylov, J. L. Sonnenberg, D. Williams-Young, 
 F. Ding, F. Lipparini, F. Egidi, J. Goings, B. Peng, A. Petrone, 
 T. Henderson, D. Ranasinghe, V. G. Zakrzewski, J. Gao, N. Rega, 
 G. Zheng, W. Liang, M. Hada, M. Ehara, K. Toyota, R. Fukuda, 
 J. Hasegawa, M. Ishida, T. Nakajima, Y. Honda, O. Kitao, H. Nakai, 
 T. Vreven, K. Throssell, J. A. Montgomery, Jr., J. E. Peralta, 
 F. Ogliaro, M. J. Bearpark, J. J. Heyd, E. N. Brothers, K. N. Kudin, 
 V. N. Staroverov, T. A. Keith, R. Kobayashi, J. Normand, 
 K. Raghavachari, A. P. Rendell, J. C. Burant, S. S. Iyengar, 
 J. Tomasi, M. Cossi, J. M. Millam, M. Klene, C. Adamo, R. Cammi, 
 J. W. Ochterski, R. L. Martin, K. Morokuma, O. Farkas, 
 J. B. Foresman, and D. J. Fox, Gaussian, Inc., Wallingford CT, 2016.
 
 ******************************************
 Gaussian 16:  ES64L-G16RevA.03 25-Dec-2016
                10-Jun-2022 
 ******************************************
 %nprocshared=12
 Will use up to   12 processors via shared memory.
 %chk=checkpoint.chk
 %mem=12GB
 --------------------------
 # sp B3LYP/Def2TZVP NoSymm
 --------------------------
 1/38=1,172=1/1;
 2/12=2,15=1,17=6,18=5,40=1/2;
 3/5=44,7=101,11=2,25=1,30=1,74=-5/1,2,3;
 4//1;
 5/5=2,38=5/2;
 6/7=2,8=2,9=2,10=2,28=1/1;
 99/5=1,9=1/99;
 ----------------------------------
 int_initalOptXYZ_aligned_AlignedSp
 ----------------------------------
 Symbolic Z-matrix:
 Charge =  0 Multiplicity = 1
 6                    -0.04134   0.69377   0.45204 
 6                    -0.08525   1.4307   -0.71699 
 1                    -0.14967   2.51203  -0.73312 
 6                    -0.04155   0.69727  -1.90728 
 6                     0.04154  -0.69727  -1.90728 
 1                    -0.07266   1.21941  -2.8558 
 1                     0.07266  -1.21941  -2.8558 
 6                     0.08524  -1.4307   -0.71699 
 1                     0.14968  -2.51203  -0.73312 
 6                     0.04134  -0.69377   0.45204 
 6                     0.04695  -0.78787   1.96847 
 1                    -0.81102  -1.29447   2.41406 
 6                    -0.04695   0.78787   1.96847 
 1                     0.959    -1.189     2.41406 
 1                     0.81102   1.29447   2.41406 
 1                    -0.959     1.189     2.41406 
 
                          Input orientation:                          
 ---------------------------------------------------------------------
 Center     Atomic      Atomic             Coordinates (Angstroms)
 Number     Number       Type             X           Y           Z
 ---------------------------------------------------------------------
      1          6           0       -0.041337    0.693773    0.452035
      2          6           0       -0.085245    1.430704   -0.716992
      3          1           0       -0.149674    2.512032   -0.733116
      4          6           0       -0.041545    0.697267   -1.907275
      5          6           0        0.041544   -0.697269   -1.907275
      6          1           0       -0.072657    1.219414   -2.855804
      7          1           0        0.072656   -1.219414   -2.855803
      8          6           0        0.085244   -1.430704   -0.716992
      9          1           0        0.149675   -2.512032   -0.733116
     10          6           0        0.041337   -0.693770    0.452035
     11          6           0        0.046948   -0.787871    1.968469
     12          1           0       -0.811019   -1.294473    2.414063
     13          6           0       -0.046948    0.787871    1.968470
     14          1           0        0.959004   -1.189003    2.414060
     15          1           0        0.811019    1.294473    2.414064
     16          1           0       -0.959003    1.189002    2.414062
 ---------------------------------------------------------------------
                    Distance matrix (angstroms):
                    1          2          3          4          5
     1  C    0.000000
     2  C    1.382613   0.000000
     3  H    2.173105   1.083366   0.000000
     4  C    2.359313   1.398790   2.164189   0.000000
     5  C    2.740111   2.441540   3.422693   1.397009   0.000000
     6  H    3.349489   2.149260   2.486483   1.083196   2.141594
     7  H    3.822966   3.409189   4.298711   2.141591   1.083194
     8  C    2.428178   2.866483   3.949761   2.441538   1.398789
     9  H    3.423194   3.949761   5.032974   3.422691   2.164187
    10  C    1.390004   2.428176   3.423191   2.740109   2.359313
    11  C    2.121941   3.485864   4.269260   4.151489   3.876807
    12  H    2.897428   4.213887   4.983131   4.820071   4.444939
    13  C    1.519362   2.761595   3.206533   3.876808   4.151490
    14  H    2.897425   4.213883   4.983126   4.820067   4.444938
    15  H    2.221916   3.259656   3.508578   4.444940   4.820072
    16  H    2.221916   3.259658   3.508583   4.444939   4.820069
                    6          7          8          9         10
     6  H    0.000000
     7  H    2.443153   0.000000
     8  C    3.409190   2.149259   0.000000
     9  H    4.298712   2.486482   1.083366   0.000000
    10  C    3.822966   3.349489   1.382615   2.173108   0.000000
    11  C    5.226577   4.843603   2.761594   3.206532   1.519361
    12  H    5.885262   5.343969   3.259655   3.508578   2.221916
    13  C    4.843605   5.226577   3.485865   4.269261   2.121940
    14  H    5.885258   5.343968   3.259657   3.508580   2.221916
    15  H    5.343971   5.885262   4.213888   4.983131   2.897426
    16  H    5.343971   5.885258   4.213883   4.983126   2.897423
                   11         12         13         14         15
    11  C    0.000000
    12  H    1.091470   0.000000
    13  C    1.578537   2.262413   0.000000
    14  H    1.091469   1.773163   2.262415   0.000000
    15  H    2.262414   3.055102   1.091470   2.487881   0.000000
    16  H    2.262414   2.487880   1.091468   3.055104   1.773162
                   16
    16  H    0.000000
 Symmetry turned off by external request.
 Stoichiometry    C8H8
 Framework group  C1[X(C8H8)]
 Deg. of freedom    42
 Full point group                 C1      NOp   1
 Rotational constants (GHZ):           4.4829913           2.0911714           1.4519556
 Standard basis: def2TZVP (5D, 7F)
   296 basis functions,   472 primitive gaussians,   336 cartesian basis functions
    28 alpha electrons       28 beta electrons
       nuclear repulsion energy       333.0947375749 Hartrees.
 NAtoms=   16 NActive=   16 NUniq=   16 SFac= 1.00D+00 NAtFMM=   60 NAOKFM=F Big=F
 Integral buffers will be    131072 words long.
 Raffenetti 2 integral format.
 Two-electron integral symmetry is turned off.
 One-electron integrals computed using PRISM.
   1 Symmetry operations used in ECPInt.
 ECPInt:  NShTT=    7260 NPrTT=   21936 LenC2=    7147 LenP2D=   17612.
 LDataN:  DoStor=T MaxTD1= 6 Len=  172
 NBasis=   296 RedAO= T EigKep=  8.47D-06  NBF=   296
 NBsUse=   296 1.00D-06 EigRej= -1.00D+00 NBFU=   296
 ExpMin= 9.52D-02 ExpMax= 1.36D+04 ExpMxC= 4.63D+02 IAcc=3 IRadAn=         5 AccDes= 0.00D+00
 Harris functional with IExCor=  402 and IRadAn=       5 diagonalized for initial guess.
 HarFok:  IExCor=  402 AccDes= 0.00D+00 IRadAn=         5 IDoV= 1 UseB2=F ITyADJ=14
 ICtDFT=  3500011 ScaDFX=  1.000000  1.000000  1.000000  1.000000
 FoFCou: FMM=F IPFlag=           0 FMFlag=      100000 FMFlg1=           0
         NFxFlg=           0 DoJE=T BraDBF=F KetDBF=T FulRan=T
         wScrn=  0.000000 ICntrl=       500 IOpCl=  0 I1Cent=   200000004 NGrid=           0
         NMat0=    1 NMatS0=      1 NMatT0=    0 NMatD0=    1 NMtDS0=    0 NMtDT0=    0
 Symmetry not used in FoFCou.
 Requested convergence on RMS density matrix=1.00D-08 within 128 cycles.
 Requested convergence on MAX density matrix=1.00D-06.
 Requested convergence on             energy=1.00D-06.
 No special actions if energy rises.
 Integral accuracy reduced to 1.0D-05 until final iterations.
 Initial convergence to 1.0D-05 achieved.  Increase integral accuracy.
 SCF Done:  E(RB3LYP) =  -309.742819699     A.U. after   13 cycles
            NFock= 13  Conv=0.75D-08     -V/T= 2.0054

 **********************************************************************

            Population analysis using the SCF density.

 **********************************************************************

 Alpha  occ. eigenvalues --  -10.18048 -10.18032 -10.17443 -10.17443 -10.17337
 Alpha  occ. eigenvalues --  -10.17285 -10.17212 -10.17159  -0.88093  -0.80978
 Alpha  occ. eigenvalues --   -0.74868  -0.68799  -0.64368  -0.59900  -0.56170
 Alpha  occ. eigenvalues --   -0.51352  -0.46836  -0.46672  -0.44725  -0.40431
 Alpha  occ. eigenvalues --   -0.40081  -0.37261  -0.35866  -0.35261  -0.32729
 Alpha  occ. eigenvalues --   -0.31683  -0.25426  -0.24295
 Alpha virt. eigenvalues --   -0.01662  -0.00276   0.04513   0.05605   0.06179
 Alpha virt. eigenvalues --    0.08597   0.09568   0.10093   0.12084   0.12147
 Alpha virt. eigenvalues --    0.12690   0.14542   0.14818   0.16993   0.17004
 Alpha virt. eigenvalues --    0.20824   0.21089   0.21440   0.22194   0.22505
 Alpha virt. eigenvalues --    0.23473   0.24558   0.26659   0.26712   0.28482
 Alpha virt. eigenvalues --    0.29300   0.32579   0.34162   0.34525   0.35081
 Alpha virt. eigenvalues --    0.35255   0.37188   0.37280   0.38265   0.39673
 Alpha virt. eigenvalues --    0.41037   0.42589   0.42831   0.43515   0.44233
 Alpha virt. eigenvalues --    0.44459   0.45070   0.47717   0.48435   0.49098
 Alpha virt. eigenvalues --    0.49522   0.50513   0.51764   0.52975   0.54213
 Alpha virt. eigenvalues --    0.57117   0.58132   0.59246   0.65490   0.65769
 Alpha virt. eigenvalues --    0.67279   0.68364   0.69759   0.69894   0.73740
 Alpha virt. eigenvalues --    0.77635   0.78423   0.80424   0.82059   0.83562
 Alpha virt. eigenvalues --    0.85177   0.85382   0.88410   0.92767   0.93884
 Alpha virt. eigenvalues --    0.94626   0.94950   0.96900   0.99201   1.00171
 Alpha virt. eigenvalues --    1.00435   1.01469   1.06241   1.09922   1.11202
 Alpha virt. eigenvalues --    1.11815   1.15146   1.16289   1.17995   1.20775
 Alpha virt. eigenvalues --    1.21451   1.23574   1.24309   1.25278   1.27056
 Alpha virt. eigenvalues --    1.28282   1.33664   1.34904   1.35128   1.39515
 Alpha virt. eigenvalues --    1.40642   1.42506   1.44668   1.48838   1.49115
 Alpha virt. eigenvalues --    1.50204   1.52757   1.54476   1.55545   1.56506
 Alpha virt. eigenvalues --    1.60352   1.60980   1.63833   1.64887   1.68084
 Alpha virt. eigenvalues --    1.68582   1.70117   1.72126   1.73547   1.75065
 Alpha virt. eigenvalues --    1.77158   1.79211   1.84654   1.85730   1.86349
 Alpha virt. eigenvalues --    1.89444   1.92464   1.95050   1.97939   1.98144
 Alpha virt. eigenvalues --    2.03112   2.05999   2.09136   2.12856   2.15538
 Alpha virt. eigenvalues --    2.17908   2.18569   2.19276   2.21464   2.23541
 Alpha virt. eigenvalues --    2.29486   2.31247   2.33188   2.38968   2.39492
 Alpha virt. eigenvalues --    2.43146   2.45580   2.45807   2.45948   2.46486
 Alpha virt. eigenvalues --    2.49884   2.51448   2.55387   2.58505   2.59808
 Alpha virt. eigenvalues --    2.62807   2.63531   2.63557   2.63884   2.67525
 Alpha virt. eigenvalues --    2.68009   2.68114   2.69979   2.70043   2.72893
 Alpha virt. eigenvalues --    2.74503   2.77054   2.77178   2.79312   2.81406
 Alpha virt. eigenvalues --    2.82065   2.85515   2.85802   2.86474   2.91562
 Alpha virt. eigenvalues --    2.92573   2.97716   2.98021   2.98751   2.99757
 Alpha virt. eigenvalues --    3.01237   3.04561   3.08804   3.08898   3.09009
 Alpha virt. eigenvalues --    3.11177   3.13599   3.15490   3.15777   3.16900
 Alpha virt. eigenvalues --    3.17620   3.17975   3.21210   3.23244   3.24608
 Alpha virt. eigenvalues --    3.25625   3.29279   3.29353   3.32123   3.33165
 Alpha virt. eigenvalues --    3.33553   3.34635   3.36120   3.40005   3.40010
 Alpha virt. eigenvalues --    3.41320   3.46974   3.48949   3.49007   3.52411
 Alpha virt. eigenvalues --    3.53182   3.53934   3.58346   3.58735   3.60812
 Alpha virt. eigenvalues --    3.65479   3.69249   3.70747   3.71674   3.75070
 Alpha virt. eigenvalues --    3.76732   3.82055   3.85827   3.86190   3.91088
 Alpha virt. eigenvalues --    3.92683   3.96793   3.96819   3.98426   3.98877
 Alpha virt. eigenvalues --    4.01294   4.02497   4.08098   4.11895   4.16124
 Alpha virt. eigenvalues --    4.16560   4.18370   4.27108   4.28747   4.28856
 Alpha virt. eigenvalues --    4.28887   4.35694   4.36433   4.38478   4.39566
 Alpha virt. eigenvalues --    4.48988   4.52063   4.59083   4.65294   4.73829
 Alpha virt. eigenvalues --    4.74564   4.74781   4.81651   4.82740   4.91258
 Alpha virt. eigenvalues --    4.93778   4.99128   5.11227   5.12958   5.28382
 Alpha virt. eigenvalues --    5.29908   5.31347   5.52402   5.63496   5.76988
 Alpha virt. eigenvalues --   22.12969  22.35373  22.52967  22.59084  22.60876
 Alpha virt. eigenvalues --   22.82552  22.90106  23.84361
          Condensed to atoms (all electrons):
               1          2          3          4          5          6
     1  C    5.035069   0.455751  -0.053445  -0.055644  -0.049285   0.011185
     2  C    0.455751   5.040692   0.427355   0.496413  -0.016867  -0.055177
     3  H   -0.053445   0.427355   0.564571  -0.046987   0.008975  -0.007149
     4  C   -0.055644   0.496413  -0.046987   4.863876   0.507840   0.424946
     5  C   -0.049285  -0.016867   0.008975   0.507840   4.863875  -0.049379
     6  H    0.011185  -0.055177  -0.007149   0.424946  -0.049379   0.570605
     7  H   -0.001467   0.008778  -0.000281  -0.049379   0.424946  -0.007905
     8  C   -0.057910  -0.038830  -0.002485  -0.016867   0.496412   0.008778
     9  H    0.010348  -0.002485   0.000103   0.008975  -0.046987  -0.000281
    10  C    0.530462  -0.057911   0.010348  -0.049286  -0.055644  -0.001467
    11  C   -0.181535   0.019055  -0.001279   0.000121   0.004021   0.000293
    12  H   -0.004234  -0.000748   0.000053   0.000121   0.000073  -0.000007
    13  C    0.366141  -0.062890  -0.005287   0.004021   0.000121  -0.000457
    14  H   -0.004249  -0.000750   0.000053   0.000120   0.000074  -0.000007
    15  H   -0.011341   0.003005   0.000832   0.000073   0.000121   0.000010
    16  H   -0.011322   0.003005   0.000832   0.000074   0.000120   0.000010
               7          8          9         10         11         12
     1  C   -0.001467  -0.057910   0.010348   0.530462  -0.181535  -0.004234
     2  C    0.008778  -0.038830  -0.002485  -0.057911   0.019055  -0.000748
     3  H   -0.000281  -0.002485   0.000103   0.010348  -0.001279   0.000053
     4  C   -0.049379  -0.016867   0.008975  -0.049286   0.000121   0.000121
     5  C    0.424946   0.496412  -0.046987  -0.055644   0.004021   0.000073
     6  H   -0.007905   0.008778  -0.000281  -0.001467   0.000293  -0.000007
     7  H    0.570604  -0.055177  -0.007149   0.011185  -0.000457   0.000010
     8  C   -0.055177   5.040693   0.427355   0.455751  -0.062891   0.003005
     9  H   -0.007149   0.427355   0.564571  -0.053445  -0.005287   0.000832
    10  C    0.011185   0.455751  -0.053445   5.035069   0.366142  -0.011340
    11  C   -0.000457  -0.062891  -0.005287   0.366142   4.865383   0.355628
    12  H    0.000010   0.003005   0.000832  -0.011340   0.355628   0.615575
    13  C    0.000293   0.019055  -0.001279  -0.181535   0.415753  -0.011932
    14  H    0.000010   0.003005   0.000832  -0.011322   0.355609  -0.034070
    15  H   -0.000007  -0.000748   0.000053  -0.004234  -0.011932   0.001809
    16  H   -0.000007  -0.000750   0.000053  -0.004249  -0.011918  -0.005900
              13         14         15         16
     1  C    0.366141  -0.004249  -0.011341  -0.011322
     2  C   -0.062890  -0.000750   0.003005   0.003005
     3  H   -0.005287   0.000053   0.000832   0.000832
     4  C    0.004021   0.000120   0.000073   0.000074
     5  C    0.000121   0.000074   0.000121   0.000120
     6  H   -0.000457  -0.000007   0.000010   0.000010
     7  H    0.000293   0.000010  -0.000007  -0.000007
     8  C    0.019055   0.003005  -0.000748  -0.000750
     9  H   -0.001279   0.000832   0.000053   0.000053
    10  C   -0.181535  -0.011322  -0.004234  -0.004249
    11  C    0.415753   0.355609  -0.011932  -0.011918
    12  H   -0.011932  -0.034070   0.001809  -0.005900
    13  C    4.865384  -0.011918   0.355628   0.355609
    14  H   -0.011918   0.615575  -0.005900   0.001809
    15  H    0.355628  -0.005900   0.615575  -0.034070
    16  H    0.355609   0.001809  -0.034070   0.615574
 Mulliken charges:
               1
     1  C    0.021476
     2  C   -0.218396
     3  H    0.103790
     4  C   -0.088418
     5  C   -0.088417
     6  H    0.106001
     7  H    0.106001
     8  C   -0.218397
     9  H    0.103790
    10  C    0.021477
    11  C   -0.106706
    12  H    0.091125
    13  C   -0.106707
    14  H    0.091128
    15  H    0.091125
    16  H    0.091128
 Sum of Mulliken charges =  -0.00000
 Mulliken charges with hydrogens summed into heavy atoms:
               1
     1  C    0.021476
     2  C   -0.114606
     4  C    0.017583
     5  C    0.017584
     8  C   -0.114607
    10  C    0.021477
    11  C    0.075547
    13  C    0.075546
 Electronic spatial extent (au):  <R**2>=            846.9797
 Charge=             -0.0000 electrons
 Dipole moment (field-independent basis, Debye):
    X=              0.0000    Y=             -0.0000    Z=              0.4916  Tot=              0.4916
 Quadrupole moment (field-independent basis, Debye-Ang):
   XX=            -50.2967   YY=            -44.6081   ZZ=            -44.1452
   XY=             -0.3403   XZ=             -0.0000   YZ=              0.0000
 Traceless Quadrupole moment (field-independent basis, Debye-Ang):
   XX=             -3.9467   YY=              1.7418   ZZ=              2.2048
   XY=             -0.3403   XZ=             -0.0000   YZ=              0.0000
 Octapole moment (field-independent basis, Debye-Ang**2):
  XXX=              0.0000  YYY=             -0.0000  ZZZ=             -5.7140  XYY=              0.0000
  XXY=             -0.0000  XXZ=              6.5734  XZZ=              0.0000  YZZ=             -0.0000
  YYZ=             -2.6872  XYZ=              0.5538
 Hexadecapole moment (field-independent basis, Debye-Ang**3):
 XXXX=            -73.7770 YYYY=           -352.7043 ZZZZ=           -723.4733 XXXY=              9.7660
 XXXZ=             -0.0001 YYYX=              6.9119 YYYZ=             -0.0000 ZZZX=             -0.0001
 ZZZY=             -0.0000 XXYY=            -78.9227 XXZZ=           -139.4521 YYZZ=           -179.3113
 XXYZ=             -0.0000 YYXZ=             -0.0000 ZZXY=              2.3833
 N-N= 3.330947375749D+02 E-N=-1.384202050561D+03  KE= 3.080886491838D+02
 1\1\GINC-BHC0026\SP\RB3LYP\def2TZVP\C8H8\DHANAWAY\10-Jun-2022\0\\# sp 
 B3LYP/Def2TZVP NoSymm\\int_initalOptXYZ_aligned_AlignedSp\\0,1\C,0,-0.
 041337,0.693773,0.452035\C,0,-0.085245,1.430704,-0.716992\H,0,-0.14967
 4,2.512032,-0.733116\C,0,-0.041545,0.697267,-1.907275\C,0,0.041544,-0.
 697269,-1.907275\H,0,-0.072657,1.219414,-2.855804\H,0,0.072656,-1.2194
 14,-2.855803\C,0,0.085244,-1.430704,-0.716992\H,0,0.149675,-2.512032,-
 0.733116\C,0,0.041337,-0.69377,0.452035\C,0,0.046948,-0.787871,1.96846
 9\H,0,-0.811019,-1.294473,2.414063\C,0,-0.046948,0.787871,1.96847\H,0,
 0.959004,-1.189003,2.41406\H,0,0.811019,1.294473,2.414064\H,0,-0.95900
 3,1.189002,2.414062\\Version=ES64L-G16RevA.03\HF=-309.7428197\RMSD=7.4
 73e-09\Dipole=0.0000004,-0.0000006,0.1933993\Quadrupole=-2.9342418,1.2
 950217,1.6392201,-0.2529946,-0.0000031,0.0000063\PG=C01 [X(C8H8)]\\@


 THERE IS NOTHING NOBLE IN BEING SUPERIOR TO SOME OTHER MAN.
 TRUE NOBILITY IS BEING SUPERIOR TO YOUR FORMER SELF.

                                                   -- HINDU PROVERB
 Job cpu time:       0 days  0 hours  9 minutes 42.3 seconds.
 Elapsed time:       0 days  0 hours  0 minutes 48.8 seconds.
 File lengths (MBytes):  RWF=     52 Int=      0 D2E=      0 Chk=     32 Scr=      1
 Normal termination of Gaussian 16 at Fri Jun 10 02:22:12 2022.
