 Entering Gaussian System, Link 0=g16
 Input=int_zmat_field_N100.gjf
 Output=int_zmat_field_N100.out
 Initial command:
 /software/gaussian/g16-a03/l1.exe "/local_scratch/11172034/Gau-13693.inp" -scrdir="/local_scratch/11172034/"
 Entering Link 1 = /software/gaussian/g16-a03/l1.exe PID=     13694.
  
 Copyright (c) 1988,1990,1992,1993,1995,1998,2003,2009,2016,
            Gaussian, Inc.  All Rights Reserved.
  
 This is part of the Gaussian(R) 16 program.  It is based on
 the Gaussian(R) 09 system (copyright 2009, Gaussian, Inc.),
 the Gaussian(R) 03 system (copyright 2003, Gaussian, Inc.),
 the Gaussian(R) 98 system (copyright 1998, Gaussian, Inc.),
 the Gaussian(R) 94 system (copyright 1995, Gaussian, Inc.),
 the Gaussian 92(TM) system (copyright 1992, Gaussian, Inc.),
 the Gaussian 90(TM) system (copyright 1990, Gaussian, Inc.),
 the Gaussian 88(TM) system (copyright 1988, Gaussian, Inc.),
 the Gaussian 86(TM) system (copyright 1986, Carnegie Mellon
 University), and the Gaussian 82(TM) system (copyright 1983,
 Carnegie Mellon University). Gaussian is a federally registered
 trademark of Gaussian, Inc.
  
 This software contains proprietary and confidential information,
 including trade secrets, belonging to Gaussian, Inc.
  
 This software is provided under written license and may be
 used, copied, transmitted, or stored only in accord with that
 written license.
  
 The following legend is applicable only to US Government
 contracts under FAR:
  
                    RESTRICTED RIGHTS LEGEND
  
 Use, reproduction and disclosure by the US Government is
 subject to restrictions as set forth in subparagraphs (a)
 and (c) of the Commercial Computer Software - Restricted
 Rights clause in FAR 52.227-19.
  
 Gaussian, Inc.
 340 Quinnipiac St., Bldg. 40, Wallingford CT 06492
  
  
 ---------------------------------------------------------------
 Warning -- This program may not be used in any manner that
 competes with the business of Gaussian, Inc. or will provide
 assistance to any competitor of Gaussian, Inc.  The licensee
 of this program is prohibited from giving any competitor of
 Gaussian, Inc. access to this program.  By using this program,
 the user acknowledges that Gaussian, Inc. is engaged in the
 business of creating and licensing software in the field of
 computational chemistry and represents and warrants to the
 licensee that it is not a competitor of Gaussian, Inc. and that
 it will not use this program in any manner prohibited above.
 ---------------------------------------------------------------
  

 Cite this work as:
 Gaussian 16, Revision A.03,
 M. J. Frisch, G. W. Trucks, H. B. Schlegel, G. E. Scuseria, 
 M. A. Robb, J. R. Cheeseman, G. Scalmani, V. Barone, 
 G. A. Petersson, H. Nakatsuji, X. Li, M. Caricato, A. V. Marenich, 
 J. Bloino, B. G. Janesko, R. Gomperts, B. Mennucci, H. P. Hratchian, 
 J. V. Ortiz, A. F. Izmaylov, J. L. Sonnenberg, D. Williams-Young, 
 F. Ding, F. Lipparini, F. Egidi, J. Goings, B. Peng, A. Petrone, 
 T. Henderson, D. Ranasinghe, V. G. Zakrzewski, J. Gao, N. Rega, 
 G. Zheng, W. Liang, M. Hada, M. Ehara, K. Toyota, R. Fukuda, 
 J. Hasegawa, M. Ishida, T. Nakajima, Y. Honda, O. Kitao, H. Nakai, 
 T. Vreven, K. Throssell, J. A. Montgomery, Jr., J. E. Peralta, 
 F. Ogliaro, M. J. Bearpark, J. J. Heyd, E. N. Brothers, K. N. Kudin, 
 V. N. Staroverov, T. A. Keith, R. Kobayashi, J. Normand, 
 K. Raghavachari, A. P. Rendell, J. C. Burant, S. S. Iyengar, 
 J. Tomasi, M. Cossi, J. M. Millam, M. Klene, C. Adamo, R. Cammi, 
 J. W. Ochterski, R. L. Martin, K. Morokuma, O. Farkas, 
 J. B. Foresman, and D. J. Fox, Gaussian, Inc., Wallingford CT, 2016.
 
 ******************************************
 Gaussian 16:  ES64L-G16RevA.03 25-Dec-2016
                10-Jun-2022 
 ******************************************
 %nprocshared=12
 Will use up to   12 processors via shared memory.
 %chk=checkpoint.chk
 %mem=12GB
 ----------------------------------------------------------------------
 # Opt=(Z-matrix, MaxStep=10) B3LYP/Def2TZVP geom=allcheckpoint guess=r
 ead Field=read NoSymm freq=noraman pop=none
 ----------------------------------------------------------------------
 1/8=10,10=7,18=40,26=3,29=7,38=1/1,3;
 2/12=2,15=1,29=3,40=1/2;
 3/5=44,7=101,11=2,14=-6,25=1,30=1,71=1,74=-5,116=-2/1,2,3;
 4/5=1/1;
 5/5=2,38=6/2;
 7/29=1,30=1/1,2,3,16;
 1/8=10,10=7,18=40,26=3/3(2);
 2/15=1,29=3/2;
 99//99;
 2/15=1,29=3/2;
 3/5=44,7=101,11=2,14=-2,25=1,30=1,71=1,74=-5/1,2,3;
 4/5=5,16=3,69=1/1;
 5/5=2,38=5/2;
 7/30=1/1,2,3,16;
 1/8=10,18=40,26=3/3(-5);
 2/15=1,29=3/2;
 99/9=1/99;
 Structure from the checkpoint file:  "checkpoint.chk"
 ------------------
 int_zmat_initalOpt
 ------------------
 Charge =  0 Multiplicity = 1
 Z-Matrix found in chk file.
 C
 C,1,R2
 C,1,R3,2,A3
 C,1,R4,2,A4,3,D4,0
 H,1,R5,2,A5,3,D5,0
 H,3,R6,1,A6,2,D6,0
 H,3,R7,1,A7,6,D7,0
 H,4,R8,1,A8,2,D8,0
 H,4,R9,1,A9,8,D9,0
 C,2,R10,1,A10,3,D10,0
 H,2,R11,1,A11,10,D11,0
 H,10,R12,2,A12,1,D12,0
 H,10,R13,2,A13,12,D13,0
      Variables:
 R2=1.4791629
 R3=1.51963907
 R4=1.50171993
 R5=1.08408198
 R6=1.0823929
 R7=1.08141863
 R8=1.08170716
 R9=1.081211
 R10=1.33073158
 R11=1.08800848
 R12=1.08343554
 R13=1.08347934
 A3=120.31733219
 A4=123.01476223
 A5=113.58302392
 A6=116.78820928
 A7=117.95771639
 A8=118.38704345
 A9=117.44851953
 A10=127.38168061
 A11=114.45234423
 A12=122.16715955
 A13=120.98027175
 D4=71.32187022
 D5=-140.60416177
 D6=4.93228627
 D7=-143.41662591
 D8=-0.68488401
 D9=143.56315713
 D10=-79.37705787
 D11=179.51160793
 D12=-2.42481062
 D13=-178.65387152
 Recover connectivity data from disk.

 GradGradGradGradGradGradGradGradGradGradGradGradGradGradGradGradGradGrad
 Berny optimization.
 Initialization pass.
                       ----------------------------
                       !    Initial Parameters    !
                       ! (Angstroms and Degrees)  !
 ----------------------                            ----------------------
 !      Name          Value   Derivative information (Atomic Units)     !
 ------------------------------------------------------------------------
 !       R2          1.4792   estimate D2E/DX2                          !
 !       R3          1.5196   estimate D2E/DX2                          !
 !       R4          1.5017   estimate D2E/DX2                          !
 !       R5          1.0841   estimate D2E/DX2                          !
 !       R6          1.0824   estimate D2E/DX2                          !
 !       R7          1.0814   estimate D2E/DX2                          !
 !       R8          1.0817   estimate D2E/DX2                          !
 !       R9          1.0812   estimate D2E/DX2                          !
 !       R10         1.3307   estimate D2E/DX2                          !
 !       R11         1.088    estimate D2E/DX2                          !
 !       R12         1.0834   estimate D2E/DX2                          !
 !       R13         1.0835   estimate D2E/DX2                          !
 !       A3        120.3173   estimate D2E/DX2                          !
 !       A4        123.0148   estimate D2E/DX2                          !
 !       A5        113.583    estimate D2E/DX2                          !
 !       A6        116.7882   estimate D2E/DX2                          !
 !       A7        117.9577   estimate D2E/DX2                          !
 !       A8        118.387    estimate D2E/DX2                          !
 !       A9        117.4485   estimate D2E/DX2                          !
 !       A10       127.3817   estimate D2E/DX2                          !
 !       A11       114.4523   estimate D2E/DX2                          !
 !       A12       122.1672   estimate D2E/DX2                          !
 !       A13       120.9803   estimate D2E/DX2                          !
 !       D4         71.3219   estimate D2E/DX2                          !
 !       D5       -140.6042   estimate D2E/DX2                          !
 !       D6          4.9323   estimate D2E/DX2                          !
 !       D7       -143.4166   estimate D2E/DX2                          !
 !       D8         -0.6849   estimate D2E/DX2                          !
 !       D9        143.5632   estimate D2E/DX2                          !
 !       D10       -79.3771   estimate D2E/DX2                          !
 !       D11       179.5116   estimate D2E/DX2                          !
 !       D12        -2.4248   estimate D2E/DX2                          !
 !       D13      -178.6539   estimate D2E/DX2                          !
 ------------------------------------------------------------------------
 Trust Radius=1.00D-01 FncErr=1.00D-07 GrdErr=1.00D-06 EigMax=2.50D+02 EigMin=1.00D-04
 Number of steps in this run=     43 maximum allowed number of steps=    100.
 GradGradGradGradGradGradGradGradGradGradGradGradGradGradGradGradGradGrad

 ---------------------------------------------------------------------------------------------------
                            Z-MATRIX (ANGSTROMS AND DEGREES)
   CD    Cent   Atom    N1       Length/X        N2       Alpha/Y        N3        Beta/Z          J
 ---------------------------------------------------------------------------------------------------
      1      1  C 
      2      2  C        1   1.479163(     1)
      3      3  C        1   1.519639(     2)      2  120.317(    13)
      4      4  C        1   1.501720(     3)      2  123.015(    14)      3   71.322(    24)      0
      5      5  H        1   1.084082(     4)      2  113.583(    15)      3 -140.604(    25)      0
      6      6  H        3   1.082393(     5)      1  116.788(    16)      2    4.932(    26)      0
      7      7  H        3   1.081419(     6)      1  117.958(    17)      6 -143.417(    27)      0
      8      8  H        4   1.081707(     7)      1  118.387(    18)      2   -0.685(    28)      0
      9      9  H        4   1.081211(     8)      1  117.449(    19)      8  143.563(    29)      0
     10     10  C        2   1.330732(     9)      1  127.382(    20)      3  -79.377(    30)      0
     11     11  H        2   1.088008(    10)      1  114.452(    21)     10  179.512(    31)      0
     12     12  H       10   1.083436(    11)      2  122.167(    22)      1   -2.425(    32)      0
     13     13  H       10   1.083479(    12)      2  120.980(    23)     12 -178.654(    33)      0
 ---------------------------------------------------------------------------------------------------
                         Z-Matrix orientation:                         
 ---------------------------------------------------------------------
 Center     Atomic      Atomic             Coordinates (Angstroms)
 Number     Number       Type             X           Y           Z
 ---------------------------------------------------------------------
      1          6           0        0.000000    0.000000    0.000000
      2          6           0        0.000000    0.000000    1.479163
      3          6           0        1.311818    0.000000   -0.767097
      4          6           0        0.403273   -1.192917   -0.818220
      5          1           0       -0.767788    0.630575   -0.433717
      6          1           0        2.218867   -0.083075   -0.182345
      7          1           0        1.388430    0.633137   -1.640443
      8          1           0        0.718191   -2.088955   -0.300502
      9          1           0       -0.144953   -1.379373   -1.731292
     10          6           0        0.194928   -1.039289    2.287079
     11          1           0       -0.174275    0.974967    1.929529
     12          1           0        0.343837   -2.043701    1.909170
     13          1           0        0.189865   -0.917433    3.363672
 ---------------------------------------------------------------------
                    Distance matrix (angstroms):
                    1          2          3          4          5
     1  C    0.000000
     2  C    1.479163   0.000000
     3  C    1.519639   2.601259   0.000000
     4  C    1.501720   2.619856   1.500373   0.000000
     5  H    1.084082   2.155512   2.198528   2.200988   0.000000
     6  H    2.227896   2.773244   1.082393   2.220916   3.081005
     7  H    2.240458   3.472829   1.081419   2.231829   2.470925
     8  H    2.229313   2.836678   2.221224   1.081707   3.101891
     9  H    2.218344   3.497242   2.225875   1.081211   2.472148
    10  C    2.519692   1.330732   3.414023   3.116070   3.334366
    11  H    2.168874   1.088008   3.229678   3.547310   2.460853
    12  H    2.817777   2.116564   3.503727   2.857625   3.725128
    13  H    3.491708   2.104544   4.377638   4.196386   4.211127
                    6          7          8          9         10
     6  H    0.000000
     7  H    1.824455   0.000000
     8  H    2.507897   3.107161   0.000000
     9  H    3.109223   2.531741   1.815402   0.000000
    10  C    3.332976   4.432481   2.840983   4.047033   0.000000
    11  H    3.362528   3.911981   3.893219   4.352630   2.078793
    12  H    3.425526   4.566879   2.241615   3.732721   1.083436
    13  H    4.169801   5.374197   3.883010   5.126807   1.083479
                   11         12         13
    11  H    0.000000
    12  H    3.062876   0.000000
    13  H    2.402195   1.846013   0.000000
 Symmetry turned off by external request.
 Stoichiometry    C5H8
 Framework group  C1[X(C5H8)]
 Deg. of freedom    33
 Full point group                 C1      NOp   1
 Rotational constants (GHZ):          11.5456032           3.6652720           3.3474681
 Standard basis: def2TZVP (5D, 7F)
 The following finite field(s) will be applied:
 An electric field of              0.0047 -0.0026  0.0084
   203 basis functions,   319 primitive gaussians,   228 cartesian basis functions
    19 alpha electrons       19 beta electrons
       nuclear repulsion energy       165.1394019080 Hartrees.
 NAtoms=   13 NActive=   13 NUniq=   13 SFac= 1.00D+00 NAtFMM=   60 NAOKFM=F Big=F
 Integral buffers will be    131072 words long.
 Raffenetti 2 integral format.
 Two-electron integral symmetry is turned off.
 One-electron integrals computed using PRISM.
   1 Symmetry operations used in ECPInt.
 ECPInt:  NShTT=    3828 NPrTT=   11160 LenC2=    3810 LenP2D=    9475.
 LDataN:  DoStor=T MaxTD1= 6 Len=  172
 NBasis=   203 RedAO= T EigKep=  1.48D-04  NBF=   203
 NBsUse=   203 1.00D-06 EigRej= -1.00D+00 NBFU=   203
 The nuclear repulsion energy is now       165.6159322153 hartrees.
 Initial guess from the checkpoint file:  "checkpoint.chk"
 B after Tr=     0.000000    0.000000    0.000000
         Rot=    1.000000    0.000000    0.000000   -0.000000 Ang=   0.00 deg.
 Requested convergence on RMS density matrix=1.00D-08 within 128 cycles.
 Requested convergence on MAX density matrix=1.00D-06.
 Requested convergence on             energy=1.00D-06.
 No special actions if energy rises.
 SCF Done:  E(RB3LYP) =  -195.372071378     A.U. after    9 cycles
            NFock=  9  Conv=0.93D-08     -V/T= 2.0057
   1 Symmetry operations used in ECPInt.
 ECPInt:  NShTT=    3828 NPrTT=   11160 LenC2=    3810 LenP2D=    9475.
 LDataN:  DoStor=T MaxTD1= 7 Len=  274
 Calling FoFJK, ICntrl=      2127 FMM=F ISym2X=0 I1Cent= 0 IOpClX= 0 NMat=1 NMatS=1 NMatT=0.
 -------------------------------------------------------------------
 Center     Atomic                   Forces (Hartrees/Bohr)
 Number     Number              X              Y              Z
 -------------------------------------------------------------------
      1        6          -0.001102211   -0.000506204    0.000463959
      2        6           0.000689663    0.000642969   -0.001172140
      3        6           0.000079931    0.000052604   -0.000293739
      4        6           0.000112822    0.000248913   -0.000074320
      5        1           0.000090623    0.000051479    0.000058250
      6        1           0.000159523   -0.000034979    0.000136571
      7        1          -0.000120086    0.000011560    0.000084962
      8        1           0.000037925   -0.000120656    0.000077210
      9        1          -0.000022650    0.000099052    0.000045040
     10        6           0.000565300   -0.000532701    0.000368401
     11        1          -0.000201245    0.000052387    0.000000386
     12        1          -0.000121219   -0.000049286   -0.000112846
     13        1          -0.000168377    0.000084864    0.000418265
 -------------------------------------------------------------------
 Cartesian Forces:  Max     0.001172140 RMS     0.000367364
 -----------------------------------------------------------------------------------------------
                       Internal Coordinate Forces (Hartree/Bohr or radian)
  Cent   Atom   N1       Length/X         N2         Alpha/Y        N3         Beta/Z          J
 -----------------------------------------------------------------------------------------------
      1  C 
      2  C        1  -0.000498(     1)
      3  C        1   0.000139(     2)      2   0.000134(    13)
      4  C        1  -0.000172(     3)      2   0.000315(    14)      3  -0.000344(    24)     0
      5  H        1  -0.000058(     4)      2  -0.000079(    15)      3   0.000183(    25)     0
      6  H        3   0.000210(     5)      1  -0.000059(    16)      2   0.000063(    26)     0
      7  H        3  -0.000070(     6)      1  -0.000263(    17)      6   0.000031(    27)     0
      8  H        4   0.000148(     7)      1  -0.000015(    18)      2   0.000042(    28)     0
      9  H        4  -0.000044(     8)      1  -0.000205(    19)      8   0.000034(    29)     0
     10  C        2   0.000838(     9)      1   0.000463(    20)      3   0.000506(    30)     0
     11  H        2   0.000079(    10)      1  -0.000073(    21)     10   0.000354(    31)     0
     12  H       10   0.000068(    11)      2  -0.000204(    22)      1   0.000062(    32)     0
     13  H       10   0.000426(    12)      2  -0.000134(    23)     12   0.000276(    33)     0
 -----------------------------------------------------------------------------------------------
 Internal  Forces:  Max     0.000837726 RMS     0.000269968

 GradGradGradGradGradGradGradGradGradGradGradGradGradGradGradGradGradGrad
 Berny optimization.
 Search for a local minimum.
 Step number   1 out of a maximum of   43
 All quantities printed in internal units (Hartrees-Bohrs-Radians)
 Second derivative matrix not updated -- first step.
 ITU=  0
     Eigenvalues ---    0.00552   0.03208   0.05006   0.05856   0.06148
     Eigenvalues ---    0.11216   0.11806   0.15178   0.17196   0.17426
     Eigenvalues ---    0.19375   0.20768   0.22630   0.32602   0.34666
     Eigenvalues ---    0.35044   0.35505   0.35577   0.35582   0.35707
     Eigenvalues ---    0.35789   0.35823   0.35848   0.39725   0.43333
     Eigenvalues ---    0.45391   0.48310   0.48363   0.48724   0.59333
     Eigenvalues ---    0.68570   1.27896   2.40115
 RFO step:  Lambda=-3.58713177D-05 EMin= 5.52341469D-03
 Linear search not attempted -- first point.
 Variable       Old X    -DE/DX   Delta X   Delta X   Delta X     New X
                                 (Linear)    (Quad)   (Total)
    R2        2.79521  -0.00050   0.00000  -0.00144  -0.00144   2.79378
    R3        2.87170   0.00014   0.00000   0.00155   0.00155   2.87325
    R4        2.83784  -0.00017   0.00000   0.00079   0.00079   2.83863
    R5        2.04862  -0.00006   0.00000  -0.00016  -0.00016   2.04846
    R6        2.04543   0.00021   0.00000   0.00059   0.00059   2.04602
    R7        2.04359  -0.00007   0.00000  -0.00019  -0.00019   2.04339
    R8        2.04413   0.00015   0.00000   0.00041   0.00041   2.04454
    R9        2.04319  -0.00004   0.00000  -0.00013  -0.00013   2.04307
   R10        2.51472   0.00084   0.00000   0.00128   0.00128   2.51600
   R11        2.05604   0.00008   0.00000   0.00021   0.00021   2.05625
   R12        2.04740   0.00007   0.00000   0.00013   0.00013   2.04753
   R13        2.04748   0.00043   0.00000   0.00120   0.00120   2.04868
    A3        2.09993   0.00013   0.00000  -0.00092  -0.00092   2.09902
    A4        2.14701   0.00031   0.00000  -0.00246  -0.00246   2.14455
    A5        1.98240  -0.00008   0.00000   0.00149   0.00149   1.98389
    A6        2.03834  -0.00006   0.00000   0.00005   0.00005   2.03838
    A7        2.05875  -0.00026   0.00000  -0.00115  -0.00115   2.05760
    A8        2.06624  -0.00001   0.00000   0.00017   0.00017   2.06642
    A9        2.04986  -0.00021   0.00000  -0.00107  -0.00107   2.04879
   A10        2.22323   0.00046   0.00000   0.00291   0.00291   2.22614
   A11        1.99757  -0.00007   0.00000  -0.00172  -0.00172   1.99586
   A12        2.13222  -0.00020   0.00000   0.00023   0.00023   2.13245
   A13        2.11150  -0.00013   0.00000  -0.00102  -0.00102   2.11048
    D4        1.24480  -0.00034   0.00000  -0.00321  -0.00321   1.24159
    D5       -2.45401   0.00018   0.00000  -0.00904  -0.00904  -2.46305
    D6        0.08608   0.00006   0.00000  -0.00334  -0.00334   0.08274
    D7       -2.50309   0.00003   0.00000   0.00103   0.00103  -2.50207
    D8       -0.01195   0.00004   0.00000   0.00082   0.00082  -0.01114
    D9        2.50565   0.00003   0.00000  -0.00073  -0.00073   2.50492
   D10       -1.38539   0.00051   0.00000   0.06658   0.06658  -1.31881
   D11        3.13307   0.00035   0.00000  -0.00308  -0.00308   3.12999
   D12       -0.04232   0.00006   0.00000   0.01575   0.01575  -0.02657
   D13       -3.11810   0.00028   0.00000  -0.00240  -0.00240  -3.12049
         Item               Value     Threshold  Converged?
 Maximum Force            0.000838     0.000450     NO 
 RMS     Force            0.000270     0.000300     YES
 Maximum Displacement     0.066578     0.001800     NO 
 RMS     Displacement     0.012104     0.001200     NO 
 Predicted change in Energy=-1.802279D-05
 GradGradGradGradGradGradGradGradGradGradGradGradGradGradGradGradGradGrad

 ---------------------------------------------------------------------------------------------------
                            Z-MATRIX (ANGSTROMS AND DEGREES)
   CD    Cent   Atom    N1       Length/X        N2       Alpha/Y        N3        Beta/Z          J
 ---------------------------------------------------------------------------------------------------
      1      1  C 
      2      2  C        1   1.478403(     1)
      3      3  C        1   1.520459(     2)      2  120.265(    13)
      4      4  C        1   1.502136(     3)      2  122.874(    14)      3   71.138(    24)      0
      5      5  H        1   1.084000(     4)      2  113.668(    15)      3 -141.122(    25)      0
      6      6  H        3   1.082705(     5)      1  116.791(    16)      2    4.741(    26)      0
      7      7  H        3   1.081317(     6)      1  117.892(    17)      6 -143.358(    27)      0
      8      8  H        4   1.081923(     7)      1  118.397(    18)      2   -0.638(    28)      0
      9      9  H        4   1.081144(     8)      1  117.387(    19)      8  143.521(    29)      0
     10     10  C        2   1.331410(     9)      1  127.548(    20)      3  -75.562(    30)      0
     11     11  H        2   1.088121(    10)      1  114.354(    21)     10  179.335(    31)      0
     12     12  H       10   1.083506(    11)      2  122.181(    22)      1   -1.522(    32)      0
     13     13  H       10   1.084116(    12)      2  120.922(    23)     12 -178.791(    33)      0
 ---------------------------------------------------------------------------------------------------
                         Z-Matrix orientation:                         
 ---------------------------------------------------------------------
 Center     Atomic      Atomic             Coordinates (Angstroms)
 Number     Number       Type             X           Y           Z
 ---------------------------------------------------------------------
      1          6           0        0.000000    0.000000    0.000000
      2          6           0        0.000000    0.000000    1.478403
      3          6           0        1.313228    0.000000   -0.766308
      4          6           0        0.407869   -1.193848   -0.815341
      5          1           0       -0.772897    0.623153   -0.435163
      6          1           0        2.220167   -0.079878   -0.180364
      7          1           0        1.388729    0.631803   -1.640592
      8          1           0        0.724610   -2.088180   -0.295337
      9          1           0       -0.139601   -1.383205   -1.728190
     10          6           0        0.263187   -1.022259    2.289804
     11          1           0       -0.236003    0.962791    1.927116
     12          1           0        0.492959   -2.012441    1.914665
     13          1           0        0.236924   -0.899847    3.366667
 ---------------------------------------------------------------------
                    Distance matrix (angstroms):
                    1          2          3          4          5
     1  C    0.000000
     2  C    1.478403   0.000000
     3  C    1.520459   2.600634   0.000000
     4  C    1.502136   2.617803   1.499118   0.000000
     5  H    1.084000   2.155788   2.202248   2.200054   0.000000
     6  H    2.228913   2.772550   1.082705   2.220034   3.085062
     7  H    2.240376   3.472156   1.081317   2.230724   2.475027
     8  H    2.229973   2.834027   2.220085   1.081923   3.100549
     9  H    2.217969   3.494994   2.224676   1.081144   2.469506
    10  C    2.521405   1.331410   3.389310   3.113246   3.347580
    11  H    2.167127   1.088121   3.252940   3.547779   2.446215
    12  H    2.821147   2.117369   3.451142   2.851362   3.751058
    13  H    3.492893   2.105088   4.364589   4.195813   4.218196
                    6          7          8          9         10
     6  H    0.000000
     7  H    1.824841   0.000000
     8  H    2.506628   3.106295   0.000000
     9  H    3.108526   2.530557   1.815741   0.000000
    10  C    3.289314   4.410303   2.834087   4.054232   0.000000
    11  H    3.400206   3.934189   3.894932   4.344451   2.078739
    12  H    3.332746   4.520429   2.223400   3.750528   1.083506
    13  H    4.145724   5.361459   3.880753   5.131566   1.084116
                   11         12         13
    11  H    0.000000
    12  H    3.063257   0.000000
    13  H    2.401122   1.847086   0.000000
 Symmetry turned off by external request.
 Stoichiometry    C5H8
 Framework group  C1[X(C5H8)]
 Deg. of freedom    33
 Full point group                 C1      NOp   1
 Rotational constants (GHZ):          11.4747060           3.6723798           3.3721500
 Standard basis: def2TZVP (5D, 7F)
 The following finite field(s) will be applied:
 An electric field of              0.0047 -0.0026  0.0084
   203 basis functions,   319 primitive gaussians,   228 cartesian basis functions
    19 alpha electrons       19 beta electrons
       nuclear repulsion energy       165.2158123808 Hartrees.
 NAtoms=   13 NActive=   13 NUniq=   13 SFac= 1.00D+00 NAtFMM=   60 NAOKFM=F Big=F
 Integral buffers will be    131072 words long.
 Raffenetti 2 integral format.
 Two-electron integral symmetry is turned off.
 One-electron integrals computed using PRISM.
   1 Symmetry operations used in ECPInt.
 ECPInt:  NShTT=    3828 NPrTT=   11160 LenC2=    3811 LenP2D=    9474.
 LDataN:  DoStor=T MaxTD1= 6 Len=  172
 NBasis=   203 RedAO= T EigKep=  1.47D-04  NBF=   203
 NBsUse=   203 1.00D-06 EigRej= -1.00D+00 NBFU=   203
 The nuclear repulsion energy is now       165.6977617462 hartrees.
 Initial guess from the checkpoint file:  "checkpoint.chk"
 B after Tr=     0.003909   -0.014008    0.004896
         Rot=    0.999933    0.003238   -0.005263   -0.009777 Ang=   1.33 deg.
 ExpMin= 9.52D-02 ExpMax= 1.36D+04 ExpMxC= 4.63D+02 IAcc=2 IRadAn=         4 AccDes= 0.00D+00
 Harris functional with IExCor=  402 and IRadAn=       4 diagonalized for initial guess.
 HarFok:  IExCor=  402 AccDes= 0.00D+00 IRadAn=         4 IDoV= 1 UseB2=F ITyADJ=14
 ICtDFT=  3500011 ScaDFX=  1.000000  1.000000  1.000000  1.000000
 FoFCou: FMM=F IPFlag=           0 FMFlag=      100000 FMFlg1=           0
         NFxFlg=           0 DoJE=T BraDBF=F KetDBF=T FulRan=T
         wScrn=  0.000000 ICntrl=       500 IOpCl=  0 I1Cent=   200000004 NGrid=           0
         NMat0=    1 NMatS0=      1 NMatT0=    0 NMatD0=    1 NMtDS0=    0 NMtDT0=    0
 Symmetry not used in FoFCou.
 Requested convergence on RMS density matrix=1.00D-08 within 128 cycles.
 Requested convergence on MAX density matrix=1.00D-06.
 Requested convergence on             energy=1.00D-06.
 No special actions if energy rises.
 Integral accuracy reduced to 1.0D-05 until final iterations.
 Initial convergence to 1.0D-05 achieved.  Increase integral accuracy.
 SCF Done:  E(RB3LYP) =  -195.372070089     A.U. after   10 cycles
            NFock= 10  Conv=0.91D-08     -V/T= 2.0057
   1 Symmetry operations used in ECPInt.
 ECPInt:  NShTT=    3828 NPrTT=   11160 LenC2=    3811 LenP2D=    9474.
 LDataN:  DoStor=T MaxTD1= 7 Len=  274
 Calling FoFJK, ICntrl=      2127 FMM=F ISym2X=0 I1Cent= 0 IOpClX= 0 NMat=1 NMatS=1 NMatT=0.
 -------------------------------------------------------------------
 Center     Atomic                   Forces (Hartrees/Bohr)
 Number     Number              X              Y              Z
 -------------------------------------------------------------------
      1        6          -0.000675317   -0.000994867    0.000550956
      2        6           0.000460575    0.000733525   -0.000427171
      3        6           0.000130990    0.000271581   -0.000675805
      4        6           0.000495748    0.000002558   -0.000237246
      5        1           0.000450344    0.000211740    0.000153189
      6        1          -0.000174994    0.000175974    0.000166589
      7        1          -0.000030627    0.000016692   -0.000035140
      8        1          -0.000160839   -0.000067885    0.000049561
      9        1          -0.000096650    0.000068581    0.000033792
     10        6           0.000545227    0.000004454    0.000432705
     11        1          -0.000638598   -0.000280120    0.000030348
     12        1          -0.000748126   -0.000233299    0.000053599
     13        1           0.000442268    0.000091066   -0.000095377
 -------------------------------------------------------------------
 Cartesian Forces:  Max     0.000994867 RMS     0.000383788
 -----------------------------------------------------------------------------------------------
                       Internal Coordinate Forces (Hartree/Bohr or radian)
  Cent   Atom   N1       Length/X         N2         Alpha/Y        N3         Beta/Z          J
 -----------------------------------------------------------------------------------------------
      1  C 
      2  C        1  -0.000006(     1)
      3  C        1   0.000210(     2)      2   0.001035(    13)
      4  C        1   0.000146(     3)      2   0.000342(    14)      3  -0.000122(    24)     0
      5  H        1  -0.000261(     4)      2  -0.000108(    15)      3   0.000840(    25)     0
      6  H        3  -0.000069(     5)      1  -0.000467(    16)      2  -0.000361(    26)     0
      7  H        3   0.000036(     6)      1  -0.000059(    17)      6  -0.000032(    27)     0
      8  H        4   0.000033(     7)      1  -0.000075(    18)      2   0.000240(    28)     0
      9  H        4   0.000008(     8)      1  -0.000237(    19)      8  -0.000074(    29)     0
     10  C        2   0.000391(     9)      1   0.000592(    20)      3   0.000073(    30)     0
     11  H        2  -0.000097(    10)      1   0.000159(    21)     10   0.001287(    31)     0
     12  H       10   0.000036(    11)      2   0.000108(    22)      1  -0.002150(    32)     0
     13  H       10  -0.000095(    12)      2   0.000020(    23)     12  -0.000793(    33)     0
 -----------------------------------------------------------------------------------------------
 Internal  Forces:  Max     0.002150205 RMS     0.000550856

 GradGradGradGradGradGradGradGradGradGradGradGradGradGradGradGradGradGrad
 Berny optimization.
 Search for a local minimum.
 Step number   2 out of a maximum of   43
 All quantities printed in internal units (Hartrees-Bohrs-Radians)
 Update second derivatives using D2CorN and points    2    1
 DE=  1.29D-06 DEPred=-1.80D-05 R=-7.15D-02
 Trust test=-7.15D-02 RLast= 6.95D-02 DXMaxT set to 5.00D-02
 ITU= -1  0
     Eigenvalues ---    0.00988   0.03326   0.05006   0.05881   0.06225
     Eigenvalues ---    0.11210   0.11803   0.15176   0.17197   0.17417
     Eigenvalues ---    0.19466   0.20801   0.22633   0.32602   0.34666
     Eigenvalues ---    0.35044   0.35505   0.35580   0.35582   0.35708
     Eigenvalues ---    0.35788   0.35823   0.35848   0.39725   0.43333
     Eigenvalues ---    0.45391   0.48311   0.48360   0.48721   0.59323
     Eigenvalues ---    0.68571   1.27897   2.40114
 RFO step:  Lambda=-1.93698815D-05 EMin= 9.88089730D-03
 Quartic linear search produced a step of -0.52546.
 Variable       Old X    -DE/DX   Delta X   Delta X   Delta X     New X
                                 (Linear)    (Quad)   (Total)
    R2        2.79378  -0.00001   0.00075  -0.00078  -0.00002   2.79376
    R3        2.87325   0.00021  -0.00081   0.00096   0.00014   2.87339
    R4        2.83863   0.00015  -0.00041   0.00046   0.00004   2.83867
    R5        2.04846  -0.00026   0.00008  -0.00050  -0.00042   2.04804
    R6        2.04602  -0.00007  -0.00031   0.00020  -0.00011   2.04591
    R7        2.04339   0.00004   0.00010  -0.00005   0.00005   2.04345
    R8        2.04454   0.00003  -0.00021   0.00027   0.00006   2.04460
    R9        2.04307   0.00001   0.00007  -0.00005   0.00002   2.04308
   R10        2.51600   0.00039  -0.00067   0.00109   0.00042   2.51642
   R11        2.05625  -0.00010  -0.00011  -0.00004  -0.00015   2.05610
   R12        2.04753   0.00004  -0.00007   0.00015   0.00008   2.04761
   R13        2.04868  -0.00010  -0.00063   0.00049  -0.00015   2.04854
    A3        2.09902   0.00104   0.00048   0.00060   0.00109   2.10010
    A4        2.14455   0.00034   0.00129   0.00048   0.00177   2.14632
    A5        1.98389  -0.00011  -0.00078  -0.00052  -0.00131   1.98258
    A6        2.03838  -0.00047  -0.00002  -0.00134  -0.00136   2.03702
    A7        2.05760  -0.00006   0.00060  -0.00034   0.00026   2.05787
    A8        2.06642  -0.00007  -0.00009  -0.00038  -0.00047   2.06595
    A9        2.04879  -0.00024   0.00056  -0.00086  -0.00029   2.04850
   A10        2.22614   0.00059  -0.00153   0.00257   0.00104   2.22718
   A11        1.99586   0.00016   0.00090  -0.00120  -0.00030   1.99555
   A12        2.13245   0.00011  -0.00012   0.00045   0.00033   2.13278
   A13        2.11048   0.00002   0.00054  -0.00078  -0.00024   2.11024
    D4        1.24159  -0.00012   0.00169  -0.00026   0.00143   1.24301
    D5       -2.46305   0.00084   0.00475   0.00126   0.00601  -2.45704
    D6        0.08274  -0.00036   0.00176  -0.00169   0.00007   0.08281
    D7       -2.50207  -0.00003  -0.00054   0.00185   0.00132  -2.50075
    D8       -0.01114   0.00024  -0.00043   0.00131   0.00088  -0.01025
    D9        2.50492  -0.00007   0.00039  -0.00177  -0.00139   2.50353
   D10       -1.31881   0.00007  -0.03498   0.01579  -0.01919  -1.33800
   D11        3.12999   0.00129   0.00162  -0.00158   0.00003   3.13003
   D12       -0.02657  -0.00215  -0.00828  -0.01202  -0.02030  -0.04687
   D13       -3.12049  -0.00079   0.00126   0.00239   0.00365  -3.11684
         Item               Value     Threshold  Converged?
 Maximum Force            0.002150     0.000450     NO 
 RMS     Force            0.000551     0.000300     NO 
 Maximum Displacement     0.020298     0.001800     NO 
 RMS     Displacement     0.005064     0.001200     NO 
 Predicted change in Energy=-2.713200D-05
 GradGradGradGradGradGradGradGradGradGradGradGradGradGradGradGradGradGrad

 ---------------------------------------------------------------------------------------------------
                            Z-MATRIX (ANGSTROMS AND DEGREES)
   CD    Cent   Atom    N1       Length/X        N2       Alpha/Y        N3        Beta/Z          J
 ---------------------------------------------------------------------------------------------------
      1      1  C 
      2      2  C        1   1.478392(     1)
      3      3  C        1   1.520534(     2)      2  120.327(    13)
      4      4  C        1   1.502159(     3)      2  122.975(    14)      3   71.219(    24)      0
      5      5  H        1   1.083777(     4)      2  113.593(    15)      3 -140.778(    25)      0
      6      6  H        3   1.082649(     5)      1  116.713(    16)      2    4.745(    26)      0
      7      7  H        3   1.081346(     6)      1  117.907(    17)      6 -143.283(    27)      0
      8      8  H        4   1.081954(     7)      1  118.370(    18)      2   -0.587(    28)      0
      9      9  H        4   1.081152(     8)      1  117.370(    19)      8  143.442(    29)      0
     10     10  C        2   1.331630(     9)      1  127.608(    20)      3  -76.662(    30)      0
     11     11  H        2   1.088043(    10)      1  114.337(    21)     10  179.337(    31)      0
     12     12  H       10   1.083546(    11)      2  122.199(    22)      1   -2.685(    32)      0
     13     13  H       10   1.084039(    12)      2  120.908(    23)     12 -178.582(    33)      0
 ---------------------------------------------------------------------------------------------------
                         Z-Matrix orientation:                         
 ---------------------------------------------------------------------
 Center     Atomic      Atomic             Coordinates (Angstroms)
 Number     Number       Type             X           Y           Z
 ---------------------------------------------------------------------
      1          6           0        0.000000    0.000000    0.000000
      2          6           0        0.000000    0.000000    1.478392
      3          6           0        1.312460    0.000000   -0.767771
      4          6           0        0.405708   -1.193078   -0.817587
      5          1           0       -0.769418    0.628018   -0.433776
      6          1           0        2.219183   -0.079997   -0.181611
      7          1           0        1.387722    0.632725   -1.641444
      8          1           0        0.720610   -2.088801   -0.298798
      9          1           0       -0.143050   -1.380144   -1.730145
     10          6           0        0.243366   -1.026469    2.291025
     11          1           0       -0.217530    0.967198    1.926775
     12          1           0        0.436032   -2.025298    1.917804
     13          1           0        0.234234   -0.898797    3.367481
 ---------------------------------------------------------------------
                    Distance matrix (angstroms):
                    1          2          3          4          5
     1  C    0.000000
     2  C    1.478392   0.000000
     3  C    1.520534   2.601500   0.000000
     4  C    1.502159   2.619075   1.499372   0.000000
     5  H    1.083777   2.154715   2.200040   2.201050   0.000000
     6  H    2.228038   2.772504   1.082649   2.220835   3.081656
     7  H    2.240636   3.472677   1.081346   2.230840   2.472193
     8  H    2.229719   2.835626   2.221106   1.081954   3.101533
     9  H    2.217806   3.495707   2.224741   1.081152   2.470956
    10  C    2.522234   1.331630   3.398947   3.117304   3.344787
    11  H    2.166853   1.088043   3.246062   3.547779   2.447820
    12  H    2.823106   2.117791   3.475956   2.859348   3.744746
    13  H    3.493226   2.105079   4.367003   4.198904   4.217586
                    6          7          8          9         10
     6  H    0.000000
     7  H    1.824941   0.000000
     8  H    2.508934   3.107159   0.000000
     9  H    3.109419   2.530370   1.815724   0.000000
    10  C    3.303573   4.418913   2.839630   4.055146   0.000000
    11  H    3.388137   3.926944   3.895178   4.346104   2.078416
    12  H    3.372145   4.543021   2.235697   3.749545   1.083546
    13  H    4.148073   5.363340   3.885135   5.134182   1.084039
                   11         12         13
    11  H    0.000000
    12  H    3.063046   0.000000
    13  H    2.400346   1.846968   0.000000
 Symmetry turned off by external request.
 Stoichiometry    C5H8
 Framework group  C1[X(C5H8)]
 Deg. of freedom    33
 Full point group                 C1      NOp   1
 Rotational constants (GHZ):          11.4997659           3.6659383           3.3614492
 Standard basis: def2TZVP (5D, 7F)
 The following finite field(s) will be applied:
 An electric field of              0.0047 -0.0026  0.0084
   203 basis functions,   319 primitive gaussians,   228 cartesian basis functions
    19 alpha electrons       19 beta electrons
       nuclear repulsion energy       165.1595223474 Hartrees.
 NAtoms=   13 NActive=   13 NUniq=   13 SFac= 1.00D+00 NAtFMM=   60 NAOKFM=F Big=F
 Integral buffers will be    131072 words long.
 Raffenetti 2 integral format.
 Two-electron integral symmetry is turned off.
 One-electron integrals computed using PRISM.
   1 Symmetry operations used in ECPInt.
 ECPInt:  NShTT=    3828 NPrTT=   11160 LenC2=    3811 LenP2D=    9475.
 LDataN:  DoStor=T MaxTD1= 6 Len=  172
 NBasis=   203 RedAO= T EigKep=  1.47D-04  NBF=   203
 NBsUse=   203 1.00D-06 EigRej= -1.00D+00 NBFU=   203
 The nuclear repulsion energy is now       165.6396509027 hartrees.
 Lowest energy guess from the checkpoint file:  "checkpoint.chk"
 B after Tr=     0.002528   -0.008423    0.003559
         Rot=    0.999968    0.002349   -0.003989   -0.006457 Ang=   0.91 deg.
 B after Tr=    -0.001269    0.005618   -0.001329
         Rot=    0.999993   -0.000884    0.001282    0.003320 Ang=  -0.42 deg.
 Requested convergence on RMS density matrix=1.00D-08 within 128 cycles.
 Requested convergence on MAX density matrix=1.00D-06.
 Requested convergence on             energy=1.00D-06.
 No special actions if energy rises.
 Integral accuracy reduced to 1.0D-05 until final iterations.
 Initial convergence to 1.0D-05 achieved.  Increase integral accuracy.
 SCF Done:  E(RB3LYP) =  -195.372090877     A.U. after    9 cycles
            NFock=  9  Conv=0.44D-08     -V/T= 2.0057
   1 Symmetry operations used in ECPInt.
 ECPInt:  NShTT=    3828 NPrTT=   11160 LenC2=    3811 LenP2D=    9475.
 LDataN:  DoStor=T MaxTD1= 7 Len=  274
 Calling FoFJK, ICntrl=      2127 FMM=F ISym2X=0 I1Cent= 0 IOpClX= 0 NMat=1 NMatS=1 NMatT=0.
 -------------------------------------------------------------------
 Center     Atomic                   Forces (Hartrees/Bohr)
 Number     Number              X              Y              Z
 -------------------------------------------------------------------
      1        6          -0.001121115   -0.000885783    0.000412779
      2        6           0.000835855    0.000559048   -0.000305287
      3        6           0.000167910    0.000137337   -0.000161900
      4        6           0.000231672    0.000076264   -0.000091370
      5        1           0.000109195    0.000093640   -0.000023963
      6        1          -0.000026508    0.000002925    0.000038860
      7        1          -0.000084718    0.000043692    0.000039407
      8        1          -0.000045295   -0.000002886    0.000017974
      9        1          -0.000041447    0.000041472    0.000013227
     10        6           0.000261731   -0.000000997    0.000082166
     11        1          -0.000092841   -0.000014542    0.000033082
     12        1          -0.000032492   -0.000011910   -0.000036330
     13        1          -0.000161946   -0.000038260   -0.000018644
 -------------------------------------------------------------------
 Cartesian Forces:  Max     0.001121115 RMS     0.000304380
 -----------------------------------------------------------------------------------------------
                       Internal Coordinate Forces (Hartree/Bohr or radian)
  Cent   Atom   N1       Length/X         N2         Alpha/Y        N3         Beta/Z          J
 -----------------------------------------------------------------------------------------------
      1  C 
      2  C        1  -0.000245(     1)
      3  C        1   0.000091(     2)      2   0.000164(    13)
      4  C        1  -0.000019(     3)      2   0.000286(    14)      3  -0.000279(    24)     0
      5  H        1  -0.000014(     4)      2   0.000066(    15)      3   0.000266(    25)     0
      6  H        3  -0.000001(     5)      1  -0.000096(    16)      2   0.000040(    26)     0
      7  H        3  -0.000012(     6)      1  -0.000202(    17)      6   0.000049(    27)     0
      8  H        4  -0.000002(     7)      1  -0.000043(    18)      2   0.000061(    28)     0
      9  H        4   0.000003(     8)      1  -0.000121(    19)      8  -0.000018(    29)     0
     10  C        2   0.000068(     9)      1  -0.000108(    20)      3   0.000257(    30)     0
     11  H        2   0.000019(    10)      1   0.000057(    21)     10   0.000176(    31)     0
     12  H       10   0.000018(    11)      2  -0.000069(    22)      1   0.000235(    32)     0
     13  H       10  -0.000022(    12)      2  -0.000001(    23)     12   0.000292(    33)     0
 -----------------------------------------------------------------------------------------------
 Internal  Forces:  Max     0.000291835 RMS     0.000142208

 GradGradGradGradGradGradGradGradGradGradGradGradGradGradGradGradGradGrad
 Berny optimization.
 Search for a local minimum.
 Step number   3 out of a maximum of   43
 All quantities printed in internal units (Hartrees-Bohrs-Radians)
 Update second derivatives using D2CorN and points    2    1    3
 DE= -1.95D-05 DEPred=-2.71D-05 R= 7.19D-01
 TightC=F SS=  1.41D+00  RLast= 4.85D-02 DXNew= 8.4090D-02 1.4543D-01
 Trust test= 7.19D-01 RLast= 4.85D-02 DXMaxT set to 8.41D-02
 ITU=  1 -1  0
     Eigenvalues ---    0.00426   0.03708   0.05006   0.05859   0.06519
     Eigenvalues ---    0.11130   0.11857   0.15161   0.17196   0.17445
     Eigenvalues ---    0.20006   0.21189   0.22653   0.32593   0.34650
     Eigenvalues ---    0.35046   0.35509   0.35581   0.35583   0.35708
     Eigenvalues ---    0.35788   0.35824   0.35848   0.39727   0.43332
     Eigenvalues ---    0.45389   0.48311   0.48383   0.48712   0.59317
     Eigenvalues ---    0.68572   1.27903   2.40104
 RFO step:  Lambda=-6.50149178D-06 EMin= 4.26347417D-03
 Quartic linear search produced a step of  0.71664.
 Variable       Old X    -DE/DX   Delta X   Delta X   Delta X     New X
                                 (Linear)    (Quad)   (Total)
    R2        2.79376  -0.00025  -0.00104  -0.00017  -0.00122   2.79254
    R3        2.87339   0.00009   0.00121   0.00039   0.00160   2.87500
    R4        2.83867  -0.00002   0.00059   0.00043   0.00103   2.83970
    R5        2.04804  -0.00001  -0.00041   0.00003  -0.00039   2.04765
    R6        2.04591  -0.00000   0.00035  -0.00043  -0.00009   2.04582
    R7        2.04345  -0.00001  -0.00010   0.00008  -0.00002   2.04343
    R8        2.04460  -0.00000   0.00033  -0.00030   0.00004   2.04463
    R9        2.04308   0.00000  -0.00008   0.00010   0.00002   2.04311
   R10        2.51642   0.00007   0.00122  -0.00080   0.00042   2.51684
   R11        2.05610   0.00002   0.00005  -0.00008  -0.00004   2.05607
   R12        2.04761   0.00002   0.00015  -0.00004   0.00011   2.04771
   R13        2.04854  -0.00002   0.00076  -0.00096  -0.00021   2.04833
    A3        2.10010   0.00016   0.00012  -0.00047  -0.00035   2.09975
    A4        2.14632   0.00029  -0.00050   0.00086   0.00036   2.14668
    A5        1.98258   0.00007   0.00013   0.00023   0.00036   1.98294
    A6        2.03702  -0.00010  -0.00094  -0.00055  -0.00149   2.03553
    A7        2.05787  -0.00020  -0.00063  -0.00051  -0.00114   2.05672
    A8        2.06595  -0.00004  -0.00021  -0.00047  -0.00068   2.06527
    A9        2.04850  -0.00012  -0.00098  -0.00029  -0.00126   2.04723
   A10        2.22718  -0.00011   0.00283  -0.00238   0.00045   2.22762
   A11        1.99555   0.00006  -0.00144   0.00174   0.00029   1.99585
   A12        2.13278  -0.00007   0.00040  -0.00051  -0.00011   2.13267
   A13        2.11024  -0.00000  -0.00090   0.00081  -0.00010   2.11015
    D4        1.24301  -0.00028  -0.00128  -0.00026  -0.00154   1.24147
    D5       -2.45704   0.00027  -0.00217   0.00234   0.00017  -2.45687
    D6        0.08281   0.00004  -0.00234   0.00053  -0.00182   0.08099
    D7       -2.50075   0.00005   0.00168   0.00113   0.00281  -2.49795
    D8       -0.01025   0.00006   0.00122   0.00219   0.00341  -0.00684
    D9        2.50353  -0.00002  -0.00152  -0.00145  -0.00297   2.50056
   D10       -1.33800   0.00026   0.03396   0.00177   0.03573  -1.30228
   D11        3.13003   0.00018  -0.00218   0.00257   0.00039   3.13042
   D12       -0.04687   0.00023  -0.00326   0.00334   0.00008  -0.04679
   D13       -3.11684   0.00029   0.00090   0.00344   0.00434  -3.11250
         Item               Value     Threshold  Converged?
 Maximum Force            0.000292     0.000450     YES
 RMS     Force            0.000142     0.000300     YES
 Maximum Displacement     0.035729     0.001800     NO 
 RMS     Displacement     0.006375     0.001200     NO 
 Predicted change in Energy=-4.740593D-06
 GradGradGradGradGradGradGradGradGradGradGradGradGradGradGradGradGradGrad

 ---------------------------------------------------------------------------------------------------
                            Z-MATRIX (ANGSTROMS AND DEGREES)
   CD    Cent   Atom    N1       Length/X        N2       Alpha/Y        N3        Beta/Z          J
 ---------------------------------------------------------------------------------------------------
      1      1  C 
      2      2  C        1   1.477748(     1)
      3      3  C        1   1.521383(     2)      2  120.307(    13)
      4      4  C        1   1.502702(     3)      2  122.996(    14)      3   71.131(    24)      0
      5      5  H        1   1.083572(     4)      2  113.614(    15)      3 -140.768(    25)      0
      6      6  H        3   1.082603(     5)      1  116.627(    16)      2    4.641(    26)      0
      7      7  H        3   1.081338(     6)      1  117.842(    17)      6 -143.122(    27)      0
      8      8  H        4   1.081973(     7)      1  118.331(    18)      2   -0.392(    28)      0
      9      9  H        4   1.081165(     8)      1  117.298(    19)      8  143.272(    29)      0
     10     10  C        2   1.331852(     9)      1  127.633(    20)      3  -74.615(    30)      0
     11     11  H        2   1.088023(    10)      1  114.354(    21)     10  179.360(    31)      0
     12     12  H       10   1.083602(    11)      2  122.193(    22)      1   -2.681(    32)      0
     13     13  H       10   1.083929(    12)      2  120.902(    23)     12 -178.333(    33)      0
 ---------------------------------------------------------------------------------------------------
                         Z-Matrix orientation:                         
 ---------------------------------------------------------------------
 Center     Atomic      Atomic             Coordinates (Angstroms)
 Number     Number       Type             X           Y           Z
 ---------------------------------------------------------------------
      1          6           0        0.000000    0.000000    0.000000
      2          6           0        0.000000    0.000000    1.477748
      3          6           0        1.313464    0.000000   -0.767737
      4          6           0        0.407594   -1.192601   -0.818342
      5          1           0       -0.769046    0.627928   -0.434052
      6          1           0        2.219132   -0.078299   -0.179804
      7          1           0        1.388187    0.633810   -1.640659
      8          1           0        0.720760   -2.088762   -0.299220
      9          1           0       -0.141489   -1.378857   -1.730885
     10          6           0        0.279827   -1.016941    2.290988
     11          1           0       -0.252277    0.958567    1.926413
     12          1           0        0.508163   -2.008404    1.918083
     13          1           0        0.262012   -0.890168    3.367331
 ---------------------------------------------------------------------
                    Distance matrix (angstroms):
                    1          2          3          4          5
     1  C    0.000000
     2  C    1.477748   0.000000
     3  C    1.521383   2.601421   0.000000
     4  C    1.502702   2.619248   1.498486   0.000000
     5  H    1.083572   2.154230   2.200565   2.201474   0.000000
     6  H    2.227780   2.770948   1.082603   2.220601   3.081007
     7  H    2.240656   3.471778   1.081338   2.230145   2.471759
     8  H    2.229788   2.835496   2.221201   1.081973   3.101307
     9  H    2.217482   3.495224   2.223913   1.081165   2.470382
    10  C    2.522121   1.331852   3.385021   3.116907   3.351354
    11  H    2.166463   1.088023   3.260190   3.549173   2.438887
    12  H    2.823289   2.117973   3.449032   2.857214   3.756867
    13  H    3.492845   2.105130   4.358524   4.199109   4.221162
                    6          7          8          9         10
     6  H    0.000000
     7  H    1.825285   0.000000
     8  H    2.510247   3.107622   0.000000
     9  H    3.109636   2.529600   1.815793   0.000000
    10  C    3.278225   4.405824   2.837674   4.060043   0.000000
    11  H    3.408680   3.939618   3.896980   4.341849   2.078143
    12  H    3.324733   4.518892   2.228920   3.759434   1.083602
    13  H    4.131781   5.354506   3.884671   5.137454   1.083929
                   11         12         13
    11  H    0.000000
    12  H    3.062883   0.000000
    13  H    2.399699   1.846987   0.000000
 Symmetry turned off by external request.
 Stoichiometry    C5H8
 Framework group  C1[X(C5H8)]
 Deg. of freedom    33
 Full point group                 C1      NOp   1
 Rotational constants (GHZ):          11.4630460           3.6693067           3.3744950
 Standard basis: def2TZVP (5D, 7F)
 The following finite field(s) will be applied:
 An electric field of              0.0047 -0.0026  0.0084
   203 basis functions,   319 primitive gaussians,   228 cartesian basis functions
    19 alpha electrons       19 beta electrons
       nuclear repulsion energy       165.2009577251 Hartrees.
 NAtoms=   13 NActive=   13 NUniq=   13 SFac= 1.00D+00 NAtFMM=   60 NAOKFM=F Big=F
 Integral buffers will be    131072 words long.
 Raffenetti 2 integral format.
 Two-electron integral symmetry is turned off.
 One-electron integrals computed using PRISM.
   1 Symmetry operations used in ECPInt.
 ECPInt:  NShTT=    3828 NPrTT=   11160 LenC2=    3811 LenP2D=    9475.
 LDataN:  DoStor=T MaxTD1= 6 Len=  172
 NBasis=   203 RedAO= T EigKep=  1.47D-04  NBF=   203
 NBsUse=   203 1.00D-06 EigRej= -1.00D+00 NBFU=   203
 The nuclear repulsion energy is now       165.6832853157 hartrees.
 Initial guess from the checkpoint file:  "checkpoint.chk"
 B after Tr=     0.002396   -0.005542    0.001705
         Rot=    0.999984    0.001363   -0.002835   -0.004718 Ang=   0.65 deg.
 ExpMin= 9.52D-02 ExpMax= 1.36D+04 ExpMxC= 4.63D+02 IAcc=2 IRadAn=         4 AccDes= 0.00D+00
 Harris functional with IExCor=  402 and IRadAn=       4 diagonalized for initial guess.
 HarFok:  IExCor=  402 AccDes= 0.00D+00 IRadAn=         4 IDoV= 1 UseB2=F ITyADJ=14
 ICtDFT=  3500011 ScaDFX=  1.000000  1.000000  1.000000  1.000000
 FoFCou: FMM=F IPFlag=           0 FMFlag=      100000 FMFlg1=           0
         NFxFlg=           0 DoJE=T BraDBF=F KetDBF=T FulRan=T
         wScrn=  0.000000 ICntrl=       500 IOpCl=  0 I1Cent=   200000004 NGrid=           0
         NMat0=    1 NMatS0=      1 NMatT0=    0 NMatD0=    1 NMtDS0=    0 NMtDT0=    0
 Symmetry not used in FoFCou.
 Requested convergence on RMS density matrix=1.00D-08 within 128 cycles.
 Requested convergence on MAX density matrix=1.00D-06.
 Requested convergence on             energy=1.00D-06.
 No special actions if energy rises.
 Integral accuracy reduced to 1.0D-05 until final iterations.
 Initial convergence to 1.0D-05 achieved.  Increase integral accuracy.
 SCF Done:  E(RB3LYP) =  -195.372098095     A.U. after   10 cycles
            NFock= 10  Conv=0.26D-08     -V/T= 2.0057
   1 Symmetry operations used in ECPInt.
 ECPInt:  NShTT=    3828 NPrTT=   11160 LenC2=    3811 LenP2D=    9475.
 LDataN:  DoStor=T MaxTD1= 7 Len=  274
 Calling FoFJK, ICntrl=      2127 FMM=F ISym2X=0 I1Cent= 0 IOpClX= 0 NMat=1 NMatS=1 NMatT=0.
 -------------------------------------------------------------------
 Center     Atomic                   Forces (Hartrees/Bohr)
 Number     Number              X              Y              Z
 -------------------------------------------------------------------
      1        6          -0.000840133   -0.000701239    0.000161140
      2        6           0.000682840    0.000401986    0.000011511
      3        6           0.000084398    0.000268680   -0.000155773
      4        6           0.000136634    0.000091052   -0.000048753
      5        1           0.000061310    0.000031446   -0.000052408
      6        1          -0.000013727    0.000002666    0.000022187
      7        1          -0.000017127    0.000000671   -0.000000951
      8        1          -0.000021882   -0.000002799    0.000009640
      9        1          -0.000035746    0.000016730    0.000014733
     10        6          -0.000008987   -0.000039729    0.000028029
     11        1          -0.000048729   -0.000048541   -0.000032941
     12        1          -0.000019519   -0.000019778    0.000035199
     13        1           0.000040668   -0.000001146    0.000008386
 -------------------------------------------------------------------
 Cartesian Forces:  Max     0.000840133 RMS     0.000226866
 -----------------------------------------------------------------------------------------------
                       Internal Coordinate Forces (Hartree/Bohr or radian)
  Cent   Atom   N1       Length/X         N2         Alpha/Y        N3         Beta/Z          J
 -----------------------------------------------------------------------------------------------
      1  C 
      2  C        1   0.000050(     1)
      3  C        1   0.000114(     2)      2   0.000231(    13)
      4  C        1  -0.000049(     3)      2   0.000198(    14)      3  -0.000190(    24)     0
      5  H        1  -0.000004(     4)      2   0.000121(    15)      3   0.000118(    25)     0
      6  H        3   0.000000(     5)      1  -0.000053(    16)      2  -0.000017(    26)     0
      7  H        3  -0.000000(     6)      1  -0.000033(    17)      6  -0.000010(    27)     0
      8  H        4   0.000001(     7)      1  -0.000021(    18)      2   0.000001(    28)     0
      9  H        4   0.000003(     8)      1  -0.000074(    19)      8  -0.000038(    29)     0
     10  C        2   0.000093(     9)      1   0.000099(    20)      3   0.000048(    30)     0
     11  H        2  -0.000045(    10)      1  -0.000032(    21)     10   0.000111(    31)     0
     12  H       10   0.000002(    11)      2   0.000076(    22)      1  -0.000112(    32)     0
     13  H       10   0.000008(    12)      2   0.000025(    23)     12  -0.000068(    33)     0
 -----------------------------------------------------------------------------------------------
 Internal  Forces:  Max     0.000231411 RMS     0.000086528

 GradGradGradGradGradGradGradGradGradGradGradGradGradGradGradGradGradGrad
 Berny optimization.
 Search for a local minimum.
 Step number   4 out of a maximum of   43
 All quantities printed in internal units (Hartrees-Bohrs-Radians)
 Update second derivatives using D2CorN and points    2    1    3    4
 DE= -7.22D-06 DEPred=-4.74D-06 R= 1.52D+00
 TightC=F SS=  1.41D+00  RLast= 3.66D-02 DXNew= 1.4142D-01 1.0987D-01
 Trust test= 1.52D+00 RLast= 3.66D-02 DXMaxT set to 1.10D-01
 ITU=  1  1 -1  0
     Eigenvalues ---    0.00457   0.03258   0.05002   0.05719   0.06651
     Eigenvalues ---    0.10917   0.11868   0.15117   0.17194   0.17449
     Eigenvalues ---    0.20111   0.21103   0.22622   0.32530   0.34637
     Eigenvalues ---    0.35046   0.35509   0.35581   0.35582   0.35708
     Eigenvalues ---    0.35789   0.35824   0.35848   0.39720   0.43332
     Eigenvalues ---    0.45390   0.48309   0.48387   0.48696   0.59304
     Eigenvalues ---    0.68531   1.27906   2.40071
 RFO step:  Lambda=-1.22379329D-06 EMin= 4.56900827D-03
 Quartic linear search produced a step of  0.24564.
 Variable       Old X    -DE/DX   Delta X   Delta X   Delta X     New X
                                 (Linear)    (Quad)   (Total)
    R2        2.79254   0.00005  -0.00030   0.00025  -0.00004   2.79250
    R3        2.87500   0.00011   0.00039   0.00074   0.00114   2.87613
    R4        2.83970  -0.00005   0.00025   0.00015   0.00040   2.84009
    R5        2.04765  -0.00000  -0.00010  -0.00006  -0.00016   2.04749
    R6        2.04582   0.00000  -0.00002  -0.00001  -0.00003   2.04579
    R7        2.04343  -0.00000  -0.00000   0.00001   0.00001   2.04344
    R8        2.04463   0.00000   0.00001   0.00001   0.00002   2.04465
    R9        2.04311   0.00000   0.00001   0.00001   0.00002   2.04312
   R10        2.51684   0.00009   0.00010   0.00024   0.00035   2.51718
   R11        2.05607  -0.00005  -0.00001  -0.00020  -0.00021   2.05585
   R12        2.04771   0.00000   0.00003   0.00000   0.00003   2.04774
   R13        2.04833   0.00001  -0.00005   0.00002  -0.00003   2.04830
    A3        2.09975   0.00023  -0.00009   0.00037   0.00028   2.10003
    A4        2.14668   0.00020   0.00009   0.00014   0.00023   2.14691
    A5        1.98294   0.00012   0.00009   0.00028   0.00036   1.98331
    A6        2.03553  -0.00005  -0.00037  -0.00041  -0.00077   2.03476
    A7        2.05672  -0.00003  -0.00028   0.00001  -0.00027   2.05645
    A8        2.06527  -0.00002  -0.00017  -0.00020  -0.00037   2.06490
    A9        2.04723  -0.00007  -0.00031  -0.00046  -0.00077   2.04646
   A10        2.22762   0.00010   0.00011   0.00102   0.00113   2.22876
   A11        1.99585  -0.00003   0.00007  -0.00066  -0.00059   1.99526
   A12        2.13267   0.00008  -0.00003   0.00069   0.00066   2.13333
   A13        2.11015   0.00003  -0.00002  -0.00036  -0.00038   2.10976
    D4        1.24147  -0.00019  -0.00038  -0.00024  -0.00062   1.24085
    D5       -2.45687   0.00012   0.00004   0.00008   0.00012  -2.45675
    D6        0.08099  -0.00002  -0.00045  -0.00057  -0.00102   0.07998
    D7       -2.49795  -0.00001   0.00069   0.00032   0.00101  -2.49693
    D8       -0.00684   0.00000   0.00084   0.00040   0.00123  -0.00561
    D9        2.50056  -0.00004  -0.00073  -0.00101  -0.00174   2.49882
   D10       -1.30228   0.00005   0.00878   0.00676   0.01553  -1.28674
   D11        3.13042   0.00011   0.00010  -0.00082  -0.00072   3.12970
   D12       -0.04679  -0.00011   0.00002  -0.00164  -0.00162  -0.04841
   D13       -3.11250  -0.00007   0.00107  -0.00167  -0.00060  -3.11311
         Item               Value     Threshold  Converged?
 Maximum Force            0.000231     0.000450     YES
 RMS     Force            0.000087     0.000300     YES
 Maximum Displacement     0.015533     0.001800     NO 
 RMS     Displacement     0.002792     0.001200     NO 
 Predicted change in Energy=-7.684712D-07
 GradGradGradGradGradGradGradGradGradGradGradGradGradGradGradGradGradGrad

 ---------------------------------------------------------------------------------------------------
                            Z-MATRIX (ANGSTROMS AND DEGREES)
   CD    Cent   Atom    N1       Length/X        N2       Alpha/Y        N3        Beta/Z          J
 ---------------------------------------------------------------------------------------------------
      1      1  C 
      2      2  C        1   1.477725(     1)
      3      3  C        1   1.521985(     2)      2  120.323(    13)
      4      4  C        1   1.502912(     3)      2  123.009(    14)      3   71.096(    24)      0
      5      5  H        1   1.083487(     4)      2  113.635(    15)      3 -140.761(    25)      0
      6      6  H        3   1.082587(     5)      1  116.583(    16)      2    4.582(    26)      0
      7      7  H        3   1.081341(     6)      1  117.826(    17)      6 -143.064(    27)      0
      8      8  H        4   1.081983(     7)      1  118.310(    18)      2   -0.321(    28)      0
      9      9  H        4   1.081174(     8)      1  117.254(    19)      8  143.172(    29)      0
     10     10  C        2   1.332035(     9)      1  127.698(    20)      3  -73.725(    30)      0
     11     11  H        2   1.087911(    10)      1  114.320(    21)     10  179.318(    31)      0
     12     12  H       10   1.083617(    11)      2  122.231(    22)      1   -2.773(    32)      0
     13     13  H       10   1.083912(    12)      2  120.881(    23)     12 -178.368(    33)      0
 ---------------------------------------------------------------------------------------------------
                         Z-Matrix orientation:                         
 ---------------------------------------------------------------------
 Center     Atomic      Atomic             Coordinates (Angstroms)
 Number     Number       Type             X           Y           Z
 ---------------------------------------------------------------------
      1          6           0        0.000000    0.000000    0.000000
      2          6           0        0.000000    0.000000    1.477725
      3          6           0        1.313766    0.000000   -0.768412
      4          6           0        0.408332   -1.192337   -0.818745
      5          1           0       -0.768786    0.627875   -0.434380
      6          1           0        2.219169   -0.077346   -0.179976
      7          1           0        1.387962    0.633901   -1.641317
      8          1           0        0.720927   -2.088628   -0.299481
      9          1           0       -0.141496   -1.378348   -1.730899
     10          6           0        0.295372   -1.011726    2.292269
     11          1           0       -0.266491    0.954882    1.925758
     12          1           0        0.537853   -2.000548    1.921241
     13          1           0        0.277129   -0.883126    3.368371
 ---------------------------------------------------------------------
                    Distance matrix (angstroms):
                    1          2          3          4          5
     1  C    0.000000
     2  C    1.477725   0.000000
     3  C    1.521985   2.602136   0.000000
     4  C    1.502912   2.619576   1.498003   0.000000
     5  H    1.083487   2.154392   2.200642   2.201480   0.000000
     6  H    2.227799   2.771041   1.082587   2.220442   3.080573
     7  H    2.241025   3.472275   1.081341   2.229674   2.471496
     8  H    2.229751   2.835589   2.221198   1.081983   3.101101
     9  H    2.217178   3.495016   2.223514   1.081174   2.469694
    10  C    2.522961   1.332035   3.380604   3.118299   3.354898
    11  H    2.165955   1.087911   3.266124   3.549399   2.435054
    12  H    2.825357   2.118533   3.440707   2.859633   3.763623
    13  H    3.493227   2.105054   4.355169   4.200567   4.223503
                    6          7          8          9         10
     6  H    0.000000
     7  H    1.825458   0.000000
     8  H    2.510829   3.107672   0.000000
     9  H    3.109776   2.529113   1.815827   0.000000
    10  C    3.268954   4.401698   2.838659   4.063391   0.000000
    11  H    3.417327   3.945158   3.897389   4.339439   2.077876
    12  H    3.307664   4.511632   2.229995   3.766534   1.083617
    13  H    4.124508   5.350915   3.886300   5.140336   1.083912
                   11         12         13
    11  H    0.000000
    12  H    3.062933   0.000000
    13  H    2.398943   1.846834   0.000000
 Symmetry turned off by external request.
 Stoichiometry    C5H8
 Framework group  C1[X(C5H8)]
 Deg. of freedom    33
 Full point group                 C1      NOp   1
 Rotational constants (GHZ):          11.4507104           3.6679617           3.3780898
 Standard basis: def2TZVP (5D, 7F)
 The following finite field(s) will be applied:
 An electric field of              0.0047 -0.0026  0.0084
   203 basis functions,   319 primitive gaussians,   228 cartesian basis functions
    19 alpha electrons       19 beta electrons
       nuclear repulsion energy       165.1974748698 Hartrees.
 NAtoms=   13 NActive=   13 NUniq=   13 SFac= 1.00D+00 NAtFMM=   60 NAOKFM=F Big=F
 Integral buffers will be    131072 words long.
 Raffenetti 2 integral format.
 Two-electron integral symmetry is turned off.
 One-electron integrals computed using PRISM.
   1 Symmetry operations used in ECPInt.
 ECPInt:  NShTT=    3828 NPrTT=   11160 LenC2=    3811 LenP2D=    9476.
 LDataN:  DoStor=T MaxTD1= 6 Len=  172
 NBasis=   203 RedAO= T EigKep=  1.46D-04  NBF=   203
 NBsUse=   203 1.00D-06 EigRej= -1.00D+00 NBFU=   203
 The nuclear repulsion energy is now       165.6807948318 hartrees.
 Initial guess from the checkpoint file:  "checkpoint.chk"
 B after Tr=     0.000830   -0.002217    0.000915
         Rot=    0.999997    0.000785   -0.001331   -0.002036 Ang=   0.29 deg.
 Requested convergence on RMS density matrix=1.00D-08 within 128 cycles.
 Requested convergence on MAX density matrix=1.00D-06.
 Requested convergence on             energy=1.00D-06.
 No special actions if energy rises.
 SCF Done:  E(RB3LYP) =  -195.372098861     A.U. after    8 cycles
            NFock=  8  Conv=0.60D-08     -V/T= 2.0057
   1 Symmetry operations used in ECPInt.
 ECPInt:  NShTT=    3828 NPrTT=   11160 LenC2=    3811 LenP2D=    9476.
 LDataN:  DoStor=T MaxTD1= 7 Len=  274
 Calling FoFJK, ICntrl=      2127 FMM=F ISym2X=0 I1Cent= 0 IOpClX= 0 NMat=1 NMatS=1 NMatT=0.
 -------------------------------------------------------------------
 Center     Atomic                   Forces (Hartrees/Bohr)
 Number     Number              X              Y              Z
 -------------------------------------------------------------------
      1        6          -0.000746395   -0.000692253    0.000111244
      2        6           0.000726225    0.000358026   -0.000002023
      3        6           0.000017224    0.000308612   -0.000035751
      4        6           0.000046788    0.000033164   -0.000036717
      5        1           0.000017979   -0.000002611   -0.000025309
      6        1          -0.000000549   -0.000008797    0.000003625
      7        1          -0.000010875    0.000011956    0.000013998
      8        1          -0.000010423   -0.000005262    0.000017055
      9        1          -0.000010655   -0.000006828    0.000003704
     10        6          -0.000042167    0.000018758   -0.000058113
     11        1          -0.000002094    0.000005352    0.000001338
     12        1           0.000026417   -0.000004336   -0.000001553
     13        1          -0.000011476   -0.000015782    0.000008501
 -------------------------------------------------------------------
 Cartesian Forces:  Max     0.000746395 RMS     0.000215702
 -----------------------------------------------------------------------------------------------
                       Internal Coordinate Forces (Hartree/Bohr or radian)
  Cent   Atom   N1       Length/X         N2         Alpha/Y        N3         Beta/Z          J
 -----------------------------------------------------------------------------------------------
      1  C 
      2  C        1  -0.000052(     1)
      3  C        1   0.000014(     2)      2   0.000046(    13)
      4  C        1  -0.000001(     3)      2   0.000022(    14)      3  -0.000057(    24)     0
      5  H        1  -0.000004(     4)      2   0.000060(    15)      3   0.000018(    25)     0
      6  H        3   0.000002(     5)      1  -0.000007(    16)      2   0.000040(    26)     0
      7  H        3  -0.000005(     6)      1  -0.000033(    17)      6   0.000024(    27)     0
      8  H        4   0.000010(     7)      1  -0.000029(    18)      2  -0.000002(    28)     0
      9  H        4   0.000003(     8)      1  -0.000002(    19)      8  -0.000023(    29)     0
     10  C        2  -0.000036(     9)      1  -0.000113(    20)      3  -0.000001(    30)     0
     11  H        2   0.000006(    10)      1  -0.000002(    21)     10   0.000001(    31)     0
     12  H       10   0.000010(    11)      2   0.000006(    22)      1   0.000070(    32)     0
     13  H       10   0.000007(    12)      2   0.000027(    23)     12   0.000027(    33)     0
 -----------------------------------------------------------------------------------------------
 Internal  Forces:  Max     0.000113379 RMS     0.000033986

 GradGradGradGradGradGradGradGradGradGradGradGradGradGradGradGradGradGrad
 Berny optimization.
 Search for a local minimum.
 Step number   5 out of a maximum of   43
 All quantities printed in internal units (Hartrees-Bohrs-Radians)
 Update second derivatives using D2CorN and points    2    1    3    4    5

 DE= -7.66D-07 DEPred=-7.68D-07 R= 9.97D-01
 Trust test= 9.97D-01 RLast= 1.60D-02 DXMaxT set to 1.10D-01
 ITU=  0  1  1 -1  0
     Eigenvalues ---    0.00442   0.03175   0.04999   0.05711   0.06726
     Eigenvalues ---    0.10882   0.11890   0.15105   0.17194   0.17458
     Eigenvalues ---    0.20159   0.21185   0.22616   0.32514   0.34642
     Eigenvalues ---    0.35046   0.35510   0.35581   0.35582   0.35709
     Eigenvalues ---    0.35789   0.35824   0.35848   0.39714   0.43331
     Eigenvalues ---    0.45389   0.48309   0.48399   0.48693   0.59306
     Eigenvalues ---    0.68520   1.27907   2.40060
 RFO step:  Lambda=-1.37392548D-07 EMin= 4.41895063D-03
 Quartic linear search produced a step of -0.08113.
 Variable       Old X    -DE/DX   Delta X   Delta X   Delta X     New X
                                 (Linear)    (Quad)   (Total)
    R2        2.79250  -0.00005   0.00000  -0.00014  -0.00014   2.79236
    R3        2.87613   0.00001  -0.00009   0.00017   0.00007   2.87621
    R4        2.84009  -0.00000  -0.00003   0.00006   0.00003   2.84012
    R5        2.04749  -0.00000   0.00001  -0.00003  -0.00001   2.04748
    R6        2.04579   0.00000   0.00000   0.00000   0.00000   2.04580
    R7        2.04344  -0.00001  -0.00000  -0.00001  -0.00001   2.04343
    R8        2.04465   0.00001  -0.00000   0.00003   0.00003   2.04468
    R9        2.04312   0.00000  -0.00000   0.00001   0.00001   2.04313
   R10        2.51718  -0.00004  -0.00003  -0.00003  -0.00006   2.51712
   R11        2.05585   0.00001   0.00002  -0.00000   0.00001   2.05587
   R12        2.04774   0.00001  -0.00000   0.00003   0.00003   2.04777
   R13        2.04830   0.00001   0.00000   0.00002   0.00002   2.04832
    A3        2.10003   0.00005  -0.00002  -0.00003  -0.00005   2.09998
    A4        2.14691   0.00002  -0.00002   0.00010   0.00008   2.14699
    A5        1.98331   0.00006  -0.00003   0.00015   0.00012   1.98343
    A6        2.03476  -0.00001   0.00006  -0.00006   0.00001   2.03476
    A7        2.05645  -0.00003   0.00002  -0.00015  -0.00013   2.05632
    A8        2.06490  -0.00003   0.00003  -0.00018  -0.00015   2.06475
    A9        2.04646  -0.00000   0.00006  -0.00009  -0.00003   2.04644
   A10        2.22876  -0.00011  -0.00009  -0.00036  -0.00045   2.22831
   A11        1.99526  -0.00000   0.00005   0.00018   0.00022   1.99548
   A12        2.13333   0.00001  -0.00005  -0.00006  -0.00011   2.13322
   A13        2.10976   0.00003   0.00003   0.00016   0.00019   2.10996
    D4        1.24085  -0.00006   0.00005  -0.00010  -0.00005   1.24080
    D5       -2.45675   0.00002  -0.00001   0.00016   0.00015  -2.45659
    D6        0.07998   0.00004   0.00008   0.00011   0.00019   0.08017
    D7       -2.49693   0.00002  -0.00008   0.00020   0.00012  -2.49681
    D8       -0.00561  -0.00000  -0.00010   0.00041   0.00031  -0.00530
    D9        2.49882  -0.00002   0.00014  -0.00047  -0.00032   2.49850
   D10       -1.28674  -0.00000  -0.00126   0.00116  -0.00010  -1.28685
   D11        3.12970   0.00000   0.00006   0.00031   0.00037   3.13007
   D12       -0.04841   0.00007   0.00013   0.00051   0.00064  -0.04776
   D13       -3.11311   0.00003   0.00005   0.00012   0.00017  -3.11294
         Item               Value     Threshold  Converged?
 Maximum Force            0.000113     0.000450     YES
 RMS     Force            0.000034     0.000300     YES
 Maximum Displacement     0.000643     0.001800     YES
 RMS     Displacement     0.000195     0.001200     YES
 Predicted change in Energy=-7.874643D-08
 Optimization completed.
    -- Stationary point found.
                       ----------------------------
                       !   Optimized Parameters   !
                       ! (Angstroms and Degrees)  !
 ----------------------                            ----------------------
 !      Name          Value   Derivative information (Atomic Units)     !
 ------------------------------------------------------------------------
 !       R2          1.4777   -DE/DX =   -0.0001                        !
 !       R3          1.522    -DE/DX =    0.0                           !
 !       R4          1.5029   -DE/DX =    0.0                           !
 !       R5          1.0835   -DE/DX =    0.0                           !
 !       R6          1.0826   -DE/DX =    0.0                           !
 !       R7          1.0813   -DE/DX =    0.0                           !
 !       R8          1.082    -DE/DX =    0.0                           !
 !       R9          1.0812   -DE/DX =    0.0                           !
 !       R10         1.332    -DE/DX =    0.0                           !
 !       R11         1.0879   -DE/DX =    0.0                           !
 !       R12         1.0836   -DE/DX =    0.0                           !
 !       R13         1.0839   -DE/DX =    0.0                           !
 !       A3        120.3231   -DE/DX =    0.0                           !
 !       A4        123.0091   -DE/DX =    0.0                           !
 !       A5        113.635    -DE/DX =    0.0001                        !
 !       A6        116.583    -DE/DX =    0.0                           !
 !       A7        117.8258   -DE/DX =    0.0                           !
 !       A8        118.3101   -DE/DX =    0.0                           !
 !       A9        117.2537   -DE/DX =    0.0                           !
 !       A10       127.6983   -DE/DX =   -0.0001                        !
 !       A11       114.3198   -DE/DX =    0.0                           !
 !       A12       122.2309   -DE/DX =    0.0                           !
 !       A13       120.8806   -DE/DX =    0.0                           !
 !       D4         71.0955   -DE/DX =   -0.0001                        !
 !       D5       -140.7611   -DE/DX =    0.0                           !
 !       D6          4.5823   -DE/DX =    0.0                           !
 !       D7       -143.0637   -DE/DX =    0.0                           !
 !       D8         -0.3214   -DE/DX =    0.0                           !
 !       D9        143.1719   -DE/DX =    0.0                           !
 !       D10       -73.7249   -DE/DX =    0.0                           !
 !       D11       179.3184   -DE/DX =    0.0                           !
 !       D12        -2.7734   -DE/DX =    0.0001                        !
 !       D13      -178.3678   -DE/DX =    0.0                           !
 ------------------------------------------------------------------------
 GradGradGradGradGradGradGradGradGradGradGradGradGradGradGradGradGradGrad

 ---------------------------------------------------------------------------------------------------
                            Z-MATRIX (ANGSTROMS AND DEGREES)
[...]
   A12        2.13333   0.00001   0.00000  -0.00006  -0.00006   2.13327
   A13        2.10976   0.00003   0.00000   0.00019   0.00019   2.10995
    D4        1.24085  -0.00006   0.00000   0.00001   0.00001   1.24086
    D5       -2.45675   0.00002   0.00000   0.00041   0.00041  -2.45633
    D6        0.07998   0.00004   0.00000   0.00040   0.00040   0.08037
    D7       -2.49693   0.00002   0.00000   0.00015   0.00015  -2.49678
    D8       -0.00561  -0.00000   0.00000   0.00019   0.00019  -0.00542
    D9        2.49882  -0.00002   0.00000  -0.00047  -0.00047   2.49835
   D10       -1.28674  -0.00000   0.00000  -0.00122  -0.00122  -1.28797
   D11        3.12970   0.00000   0.00000   0.00074   0.00074   3.13044
   D12       -0.04841   0.00007   0.00000   0.00108   0.00108  -0.04733
   D13       -3.11311   0.00003   0.00000  -0.00033  -0.00033  -3.11343
         Item               Value     Threshold  Converged?
 Maximum Force            0.000113     0.000450     YES
 RMS     Force            0.000034     0.000300     YES
 Maximum Displacement     0.001223     0.001800     YES
 RMS     Displacement     0.000367     0.001200     YES
 Predicted change in Energy=-1.020975D-07
 Optimization completed.
    -- Stationary point found.
                       ----------------------------
                       !   Optimized Parameters   !
                       ! (Angstroms and Degrees)  !
 ----------------------                            ----------------------
 !      Name          Value   Derivative information (Atomic Units)     !
 ------------------------------------------------------------------------
 !       R2          1.4777   -DE/DX =   -0.0001                        !
 !       R3          1.522    -DE/DX =    0.0                           !
 !       R4          1.5029   -DE/DX =    0.0                           !
 !       R5          1.0835   -DE/DX =    0.0                           !
 !       R6          1.0826   -DE/DX =    0.0                           !
 !       R7          1.0813   -DE/DX =    0.0                           !
 !       R8          1.082    -DE/DX =    0.0                           !
 !       R9          1.0812   -DE/DX =    0.0                           !
 !       R10         1.332    -DE/DX =    0.0                           !
 !       R11         1.0879   -DE/DX =    0.0                           !
 !       R12         1.0836   -DE/DX =    0.0                           !
 !       R13         1.0839   -DE/DX =    0.0                           !
 !       A3        120.3231   -DE/DX =    0.0                           !
 !       A4        123.0091   -DE/DX =    0.0                           !
 !       A5        113.635    -DE/DX =    0.0001                        !
 !       A6        116.583    -DE/DX =    0.0                           !
 !       A7        117.8258   -DE/DX =    0.0                           !
 !       A8        118.3101   -DE/DX =    0.0                           !
 !       A9        117.2537   -DE/DX =    0.0                           !
 !       A10       127.6983   -DE/DX =   -0.0001                        !
 !       A11       114.3198   -DE/DX =    0.0                           !
 !       A12       122.2309   -DE/DX =    0.0                           !
 !       A13       120.8806   -DE/DX =    0.0                           !
 !       D4         71.0955   -DE/DX =   -0.0001                        !
 !       D5       -140.7611   -DE/DX =    0.0                           !
 !       D6          4.5823   -DE/DX =    0.0                           !
 !       D7       -143.0637   -DE/DX =    0.0                           !
 !       D8         -0.3214   -DE/DX =    0.0                           !
 !       D9        143.1719   -DE/DX =    0.0                           !
 !       D10       -73.7249   -DE/DX =    0.0                           !
 !       D11       179.3184   -DE/DX =    0.0                           !
 !       D12        -2.7734   -DE/DX =    0.0001                        !
 !       D13      -178.3678   -DE/DX =    0.0                           !
 ------------------------------------------------------------------------
 GradGradGradGradGradGradGradGradGradGradGradGradGradGradGradGradGradGrad


 ----------------------------------------------------------------------

 Electric dipole moment (input orientation):
 (Debye = 10**-18 statcoulomb cm , SI units = C m)
                  (au)            (Debye)         (10**-30 SI)
   Tot        0.858950D+00      0.218323D+01      0.728248D+01
   x         -0.213959D+00     -0.543830D+00     -0.181402D+01
   y          0.286785D+00      0.728935D+00      0.243147D+01
   z         -0.780879D+00     -0.198480D+01     -0.662056D+01

 Dipole polarizability, Alpha (input orientation).
 (esu units = cm**3 , SI units = C**2 m**2 J**-1)
 Alpha(0;0):
               (au)            (10**-24 esu)      (10**-40 SI)
   iso        0.586736D+02      0.869453D+01      0.967397D+01
   aniso      0.222176D+02      0.329231D+01      0.366319D+01
   xx         0.483295D+02      0.716170D+01      0.796846D+01
   yx        -0.109582D+01     -0.162384D+00     -0.180676D+00
   yy         0.570380D+02      0.845216D+01      0.940430D+01
   zx        -0.256162D+01     -0.379593D+00     -0.422354D+00
   zy        -0.549401D+01     -0.814128D+00     -0.905840D+00
   zz         0.706533D+02      0.104697D+02      0.116492D+02

 ----------------------------------------------------------------------

 Dipole orientation:
     6          0.00000000         -0.00000000          0.00000000
     6         -0.69559310         -0.93235504         -2.53868035
     6          2.76367524          0.37666860          0.70169069
     6          1.03379861          2.60458772          0.46207251
     1         -1.14941772         -0.77987363          1.50428296
     1          4.13567677          0.06849498         -0.78421254
     1          3.36240607         -0.20664171          2.56633896
     1          1.28710663          3.84607422         -1.14265355
     1          0.44259923          3.55635058          2.17057529
     6         -0.62227130          0.32964991         -4.71541346
     1         -1.31511034         -2.89219954         -2.58047012
     1         -0.08569446          2.30327636         -4.81602644
     1         -1.15157992         -0.57663306         -6.47439211

 Electric dipole moment (dipole orientation):
 (Debye = 10**-18 statcoulomb cm , SI units = C m)
                  (au)            (Debye)         (10**-30 SI)
   Tot        0.858950D+00      0.218323D+01      0.728248D+01
   x          0.000000D+00      0.000000D+00      0.000000D+00
   y          0.000000D+00      0.000000D+00      0.000000D+00
   z          0.858950D+00      0.218323D+01      0.728248D+01

 Dipole polarizability, Alpha (dipole orientation).
 (esu units = cm**3 , SI units = C**2 m**2 J**-1)
 Alpha(0;0):
               (au)            (10**-24 esu)      (10**-40 SI)
   iso        0.586736D+02      0.869453D+01      0.967397D+01
   aniso      0.222176D+02      0.329231D+01      0.366319D+01
   xx         0.509927D+02      0.755634D+01      0.840757D+01
   yx         0.209073D+01      0.309815D+00      0.344716D+00
   yy         0.549204D+02      0.813836D+01      0.905515D+01
   zx         0.760853D+01      0.112747D+01      0.125448D+01
   zy        -0.607961D+00     -0.900906D-01     -0.100239D+00
   zz         0.701077D+02      0.103889D+02      0.115592D+02

 ----------------------------------------------------------------------
 1\1\GINC-BHC0008\Freq\RB3LYP\def2TZVP\C5H8\DHANAWAY\10-Jun-2022\1\\#N 
 Geom=AllCheck Guess=TCheck SCRF=Check GenChk RB3LYP/def2TZVP Freq\\int
 _zmat_initalOpt\\0,1\C\C,1,R2\C,1,R3,2,A3\C,1,R4,2,A4,3,D4,0\H,1,R5,2,
 A5,3,D5,0\H,3,R6,1,A6,2,D6,0\H,3,R7,1,A7,6,D7,0\H,4,R8,1,A8,2,D8,0\H,4
 ,R9,1,A9,8,D9,0\C,2,R10,1,A10,3,D10,0\H,2,R11,1,A11,10,D11,0\H,10,R12,
 2,A12,1,D12,0\H,10,R13,2,A13,12,D13,0\\R2=1.47772522\R3=1.52198485\R4=
 1.50291245\R5=1.0834871\R6=1.08258685\R7=1.08134132\R8=1.08198293\R9=1
 .08117406\R10=1.33203476\R11=1.08791144\R12=1.08361733\R13=1.08391232\
 A3=120.32305186\A4=123.00908172\A5=113.63504703\A6=116.58300835\A7=117
 .82578286\A8=118.31008558\A9=117.25371922\A10=127.69829221\A11=114.319
 75386\A12=122.23086113\A13=120.88055296\D4=71.09554501\D5=-140.7611423
 2\D6=4.58232931\D7=-143.06369854\D8=-0.32141911\D9=143.17186828\D10=-7
 3.72491651\D11=179.31842207\D12=-2.77341295\D13=-178.36784024\\Version
 =ES64L-G16RevA.03\HF=-195.3720989\RMSD=2.164e-09\RMSF=2.157e-04\ZeroPo
 int=0.1141776\Thermal=0.1196371\Dipole=-0.2139591,0.2867853,-0.7808786
 \DipoleDeriv=0.006058,0.0283043,0.30997,0.1064576,0.04528,-0.0697757,0
 .1355767,0.0006864,-0.3010143,-0.1732937,-0.0465987,0.0233367,-0.06910
 33,0.1588013,-0.1181015,-0.0786939,-0.1008222,0.6188597,-0.0173977,-0.
 0519098,-0.039091,-0.1206621,0.0126337,0.1778286,0.0396396,0.0119025,0
 .1133851,0.1034688,-0.01986,-0.1279345,-0.0183302,-0.0837069,-0.118459
 7,0.0018115,-0.0709715,0.0144037,0.0163961,0.0686642,-0.0196944,0.0720
 387,0.0460604,-0.0509686,0.0015853,0.0149198,-0.0269477,-0.0980064,-0.
 034592,-0.0322691,-0.0051256,0.0481531,0.0289206,-0.1093503,0.0127725,
 -0.0034438,0.0272196,-0.0252316,0.0350998,-0.036602,0.0468192,0.026153
 5,0.0321477,0.0765192,-0.025148,0.0505066,0.0341224,-0.0391611,0.01389
 75,-0.091243,0.021647,-0.0419745,0.095298,0.0115406,0.060233,-0.031942
 3,-0.0271061,-0.0024507,0.0368805,-0.0362717,-0.0473641,-0.0338182,0.0
 035687,-0.3616546,-0.0424414,-0.130978,-0.0829775,-0.1018056,0.2724673
 ,0.0171563,0.1431573,-0.1851389,0.1129096,0.0438897,0.0403712,0.061535
 3,-0.0779842,-0.0730387,0.0329462,-0.0808244,-0.038038,0.1278338,0.057
 3505,0.0069328,0.0579602,-0.0817578,-0.0203207,0.0161464,-0.0806567,0.
 0237629,0.145727,0.0202448,0.0005238,0.0233622,0.0418692,-0.0400803,0.
 0003732,0.0118375,-0.2057898\Polar=48.3295198,-1.0958193,57.0380204,-2
 .5616185,-5.4940103,70.6533128\PG=C01 [X(C5H8)]\NImag=0\\0.45457816,-0
 .19843193,0.40329641,0.02599286,-0.01153191,0.56158241,-0.07375261,0.0
 1311151,-0.00230396,0.20333042,0.01414300,-0.08409990,-0.00624678,-0.1
 6652670,0.71651275,-0.01853203,0.00194943,-0.22554401,0.03303879,-0.10
 683200,0.63780590,-0.15278918,0.03171554,0.05873391,0.00160062,-0.0009
 2577,0.01125268,0.57014720,-0.01498671,-0.01619424,0.03506393,-0.00162
 081,-0.00557141,-0.00903568,0.08316909,0.37348972,0.04446465,0.0035633
 6,-0.08219406,0.02529400,0.01545272,-0.02130403,0.08683326,-0.19094740
 ,0.52265803,-0.04361421,0.02870262,-0.00919709,-0.00408658,-0.00172232
 ,0.01091497,-0.10185781,-0.06575127,-0.01557471,0.33565780,0.07495323,
 -0.15078040,-0.07642986,0.00153608,0.00230046,-0.00405133,-0.11042986,
 -0.15657761,0.02683269,-0.00419182,0.62358680,0.01598810,-0.04784154,-
 0.10925000,-0.00176275,-0.03252707,-0.01289354,-0.03904736,-0.00156125
 ,-0.05323667,0.19378941,-0.01434644,0.54226274,-0.18099686,0.12078072,
 -0.08502354,0.00259779,-0.00224449,0.00356416,-0.02059416,0.01604692,-
 0.00851659,0.00170747,-0.00399132,0.00552718,0.19605493,0.12340735,-0.
 13781516,0.06269585,-0.00190889,-0.00030126,0.00271345,-0.00994446,0.0
 0628722,-0.00629564,0.01813249,-0.01613518,0.01153775,-0.13012673,0.14
 465726,-0.08502589,0.06667821,-0.09778889,-0.02290870,0.02027400,-0.01
 410122,0.00925496,-0.00695046,0.00269406,0.01036195,-0.00853351,0.0037
 6169,0.08370864,-0.06828505,0.10885071,-0.01793343,0.00002909,-0.00964
 113,0.00162561,0.00212094,-0.00314577,-0.23902814,0.01555177,-0.131661
 20,-0.00692215,0.00064328,-0.00096881,-0.00210202,-0.00223400,0.000910
 07,0.25897856,0.00930393,-0.00484517,0.00636082,-0.00157132,0.00017615
 ,0.00156819,0.01700260,-0.04208614,0.02276843,-0.02486733,0.00289673,-
 0.01733713,0.00226642,0.00100263,-0.00134875,-0.01545440,0.04352159,0.
 01677711,-0.00178291,0.00812431,0.00031690,-0.00180791,0.00255719,-0.1
 3582135,0.02112609,-0.13467384,-0.00437278,0.00180704,-0.00598305,0.00
 269833,0.00117841,-0.00089007,0.14027264,-0.01961965,0.13751736,-0.003
 95423,-0.01282112,0.01736649,-0.00235491,-0.00244842,-0.00187423,-0.05
 025253,-0.00948827,0.00535680,-0.00366595,-0.00530563,0.00752937,0.002
 13231,0.00136308,0.00070006,0.00442672,0.01530787,-0.01960408,0.052556
 47,-0.00121874,0.00541087,-0.01317040,0.00247467,0.00140873,0.00048105
 ,-0.01200660,-0.13946582,0.14311539,0.00046951,-0.01497185,0.02199501,
 -0.00164050,-0.00009460,0.00073507,0.00020969,-0.00008744,-0.00074307,
 0.01419595,0.14723985,-0.00095728,0.00797508,-0.01171323,0.00225575,0.
 00180657,0.00014796,0.00870418,0.14450698,-0.23801615,0.00172720,-0.00
 744664,0.01012700,-0.00142154,-0.00089678,0.00139073,0.00232253,0.0068
 4655,-0.00912136,-0.01196754,-0.15131134,0.24713386,-0.00877761,0.0130
 3254,-0.01085189,0.00080164,-0.00198011,-0.00164908,0.00814643,-0.0222
 0259,0.01518316,-0.06397599,0.07073780,-0.04970334,0.00099398,0.003342
 20,0.00199352,0.00081377,0.00281851,0.00132752,-0.00083321,-0.00458651
 ,-0.00200508,0.06600072,0.00276077,-0.01388223,0.00594010,0.00097534,0
 .00092096,0.00286750,0.00485242,-0.01319261,0.00534925,0.06885750,-0.2
 3622172,0.11281621,-0.00184458,-0.00182220,-0.00057914,-0.00049911,0.0
 0155358,0.00060089,0.00035186,-0.00156247,-0.00176206,-0.07323976,0.25
 589267,0.00606768,-0.01642460,0.01178673,0.00072411,0.00198143,0.00059
 748,-0.00204695,0.00274847,-0.00533457,-0.04955046,0.11581957,-0.11693
 440,-0.00083237,-0.00317889,-0.00121567,-0.00038520,-0.00133450,0.0009
 5723,0.00067396,0.00126932,0.00083527,0.05035268,-0.12187764,0.1201299
 5,0.01022531,0.00079900,0.01915261,0.00044390,0.00408173,0.00009363,-0
 .01329530,-0.00153265,-0.02067927,-0.11496764,-0.02301170,-0.13259542,
 -0.00003940,-0.00180036,-0.00063572,-0.00043688,-0.00458250,-0.0012441
 5,0.00130664,0.00244018,0.00124159,-0.00359438,-0.00164568,-0.00493500
 ,0.12071060,-0.00863351,-0.00584325,-0.01478028,-0.00109405,-0.0027268
 2,0.00228321,-0.00809102,-0.00497602,-0.01463924,-0.02091268,-0.056210
 90,-0.03384927,0.00079742,0.00138299,-0.00078492,0.00048839,-0.0022194
 9,-0.00107586,-0.00091542,0.00173121,0.00041966,0.01285676,0.00672079,
 0.02130844,0.02544918,0.06101741,-0.00886672,-0.00106783,-0.01342335,-
 0.00023924,-0.00258521,0.00013826,0.00657547,-0.00035262,0.00902955,-0
 .13260544,-0.03753935,-0.25569219,0.00053180,0.00133386,0.00143374,0.0
 0114245,0.00210484,0.00097146,-0.00007341,-0.00110192,0.00025531,-0.00
 488180,-0.00268891,-0.00877547,0.13823416,0.04206429,0.26676165,0.0098
 1867,-0.00142830,-0.00631358,-0.07631653,0.08699661,-0.05337345,-0.001
 90345,0.00182855,0.00163345,-0.00105898,0.00017207,0.00172939,-0.00017
 927,0.00005346,0.00060698,0.00113251,-0.00040099,-0.00077708,0.0006560
 8,-0.00006135,0.00027342,-0.00006777,-0.00033585,-0.00011243,0.0000850
 0,-0.00013467,0.00001814,0.13948717,-0.00382869,0.00527562,0.01278963,
 0.08780124,-0.35468032,0.18555467,0.00417102,-0.00093743,-0.00393892,0
 .00095885,0.00123457,0.00094588,0.00011535,0.00197818,-0.00224240,-0.0
 0064688,0.00021710,0.00021287,-0.00026362,0.00018096,-0.00021422,-0.00
 020323,0.00012949,-0.00054042,-0.00005515,0.00032625,-0.00005317,-0.16
 275837,0.70740822,-0.00242468,0.02462436,-0.02979395,-0.05885779,0.196
 35619,-0.26041460,-0.00453864,0.00526304,0.00042565,-0.00338613,0.0010
 1451,0.00208094,-0.00022323,-0.00120826,-0.00433094,0.00071620,-0.0001
 7806,0.00042113,0.00155096,-0.00102909,-0.00078489,0.00012399,-0.00042
 594,-0.00099258,0.00029626,-0.00026215,-0.00003920,0.03430174,-0.08688
 539,0.69924947,0.00267330,0.00352081,0.00155630,-0.05980483,0.06113961
 ,0.02520648,-0.00003247,-0.00179063,-0.00155710,0.00336300,-0.00040289
 ,-0.00094686,0.00043943,-0.00075577,0.00048559,-0.00028342,0.00011430,
 0.00036275,-0.00013338,0.00002479,0.00007646,-0.00003479,0.00004796,0.
 00008991,-0.00051777,0.00029478,0.00022500,0.00511755,0.00740797,0.004
 46801,0.04580995,0.00043108,0.00182518,0.00082463,0.06068657,-0.257365
 02,-0.09491639,0.00024823,-0.00043573,-0.00087450,0.00002788,0.0010968
 1,0.00039261,-0.00008711,0.00059981,-0.00021015,-0.00002660,0.00000816
 ,0.00001367,0.00006518,-0.00007103,-0.00004883,-0.00011110,0.00006968,
 0.00023828,0.00008463,0.00014286,0.00001457,0.00772302,-0.02156986,-0.
 01090955,-0.07060574,0.27626822,0.00728754,-0.02876136,-0.01274578,0.0
 2761770,-0.09796643,-0.10135175,0.00040674,-0.00036194,-0.00003509,-0.
 00159384,0.00196727,-0.00422882,-0.00023453,0.00054439,0.00100547,0.00
 036735,0.00024469,0.00001353,0.00008960,-0.00005484,-0.00010843,-0.000
 29116,-0.00000517,0.00046243,0.00116928,-0.00047841,-0.00079065,-0.005
 16159,0.01966083,0.00955152,-0.02867403,0.10195325,0.10854960,-0.00662
 894,-0.00181025,0.00119663,0.00362447,0.00863607,0.00220609,0.00004055
 ,-0.00013643,0.00176658,-0.00046551,-0.00118644,-0.00044979,0.00010881
 ,0.00019764,-0.00062890,-0.00004030,-0.00018777,0.00002234,-0.00044603
 ,0.00015224,0.00015884,0.00053926,0.00007100,-0.00027706,0.00011391,-0
 .00014060,0.00000495,-0.04680059,0.05912363,0.02026095,0.01055576,0.00
 418841,-0.00105774,0.03856322,-0.00194485,0.00020701,-0.00195025,0.006
 68750,-0.02125678,-0.01054274,0.00007075,-0.00027893,0.00033576,0.0000
 0187,-0.00002025,-0.00018192,-0.00002370,0.00014097,-0.00003763,-0.000
 05189,-0.00016829,0.00008483,-0.00009394,0.00019423,0.00011501,-0.0001
 5559,0.00089392,-0.00020291,-0.00014691,0.00033751,-0.00004514,0.06097
 026,-0.28074702,-0.08601576,0.00336133,-0.00123682,0.00325034,-0.06898
 961,0.30215333,0.00077592,-0.00007020,-0.00018931,-0.00429055,0.017114
 05,0.01307066,-0.00020440,0.00024303,0.00030787,-0.00024701,0.00072133
 ,-0.00053408,-0.00008126,-0.00030347,0.00014838,0.00000264,-0.00001129
 ,0.00004302,0.00007835,-0.00015340,-0.00011005,0.00042456,-0.00028648,
 -0.00173471,-0.00012713,-0.00026264,0.00021071,0.02166840,-0.08984030,
 -0.09153770,-0.00123450,0.00305195,-0.00160389,-0.02294257,0.09462403,
 0.08901929,0.01115163,0.00279978,-0.00066762,0.00229102,-0.00127016,-0
 .00770223,-0.00018175,0.00091303,-0.00254303,-0.00011344,0.00047719,0.
 00091087,-0.00012300,0.00027399,0.00117742,-0.00023083,0.00025068,0.00
 004185,0.00056202,-0.00045331,-0.00040854,-0.00001206,-0.00035189,0.00
 023113,-0.00003400,0.00003541,-0.00006535,-0.02997040,0.00817789,0.007
 71236,-0.00715232,-0.00262444,0.00007468,0.00083538,0.00031476,0.00617
 754,0.02297775,0.00404506,-0.00255473,0.00043454,-0.00055114,0.0046824
 7,0.02796065,0.00016807,-0.00006100,-0.00072191,0.00029471,-0.00019744
 ,-0.00004283,-0.00004840,0.00011933,0.00128470,-0.00013029,0.00003059,
 0.00000562,0.00005246,0.00008737,0.00001002,-0.00030891,0.00050015,0.0
 0019346,-0.00007978,0.00031746,-0.00008341,0.00737555,-0.05881576,-0.0
 4034390,-0.00235652,0.00066776,0.00000740,0.00008211,-0.00021887,-0.02
 482662,-0.00854293,0.05544269,-0.00154726,0.00268990,0.00114912,0.0011
 1575,-0.00501954,-0.01870831,-0.00010252,0.00025780,-0.00032078,-0.000
 26609,0.00018473,0.00052039,0.00030295,0.00016438,-0.00095800,0.000068
 25,-0.00006412,0.00006308,0.00017366,-0.00003178,-0.00003601,-0.000023
 09,0.00005140,0.00021831,0.00002916,0.00005718,-0.00007983,0.00550662,
 -0.03544906,-0.32383486,-0.00005802,0.00047045,0.00128185,-0.00026032,
 0.00056638,-0.00709018,-0.00493908,0.03612229,0.34779521\\0.00074639,0
 .00069226,-0.00011131,-0.00072624,-0.00035798,0.00000202,-0.00001728,-
 0.00030861,0.00003576,-0.00004684,-0.00003317,0.00003665,-0.00001795,0
 .00000260,0.00002533,0.00000058,0.00000880,-0.00000360,0.00001088,-0.0
 0001195,-0.00001400,0.00001044,0.00000524,-0.00001704,0.00001068,0.000
 00683,-0.00000367,0.00004218,-0.00001876,0.00005817,0.00000209,-0.0000
 0536,-0.00000134,-0.00002641,0.00000431,0.00000154,0.00001148,0.000015
 78,-0.00000850\\\@


 SUCCESS IS NEVER CERTAIN,
 FAILURE IS NEVER FINAL.
 Job cpu time:       0 days  0 hours 27 minutes 25.1 seconds.
 Elapsed time:       0 days  0 hours  2 minutes 17.6 seconds.
 File lengths (MBytes):  RWF=     52 Int=      0 D2E=      0 Chk=     32 Scr=      1
 Normal termination of Gaussian 16 at Fri Jun 10 12:04:12 2022.
