 Entering Gaussian System, Link 0=g16
 Input=int_initalOpt_zmat_sp.gjf
 Output=int_initalOpt_zmat_sp.out
 Initial command:
 /software/gaussian/g16-a03/l1.exe "/local_scratch/11171698/Gau-9684.inp" -scrdir="/local_scratch/11171698/"
 Entering Link 1 = /software/gaussian/g16-a03/l1.exe PID=      9685.
  
 Copyright (c) 1988,1990,1992,1993,1995,1998,2003,2009,2016,
            Gaussian, Inc.  All Rights Reserved.
  
 This is part of the Gaussian(R) 16 program.  It is based on
 the Gaussian(R) 09 system (copyright 2009, Gaussian, Inc.),
 the Gaussian(R) 03 system (copyright 2003, Gaussian, Inc.),
 the Gaussian(R) 98 system (copyright 1998, Gaussian, Inc.),
 the Gaussian(R) 94 system (copyright 1995, Gaussian, Inc.),
 the Gaussian 92(TM) system (copyright 1992, Gaussian, Inc.),
 the Gaussian 90(TM) system (copyright 1990, Gaussian, Inc.),
 the Gaussian 88(TM) system (copyright 1988, Gaussian, Inc.),
 the Gaussian 86(TM) system (copyright 1986, Carnegie Mellon
 University), and the Gaussian 82(TM) system (copyright 1983,
 Carnegie Mellon University). Gaussian is a federally registered
 trademark of Gaussian, Inc.
  
 This software contains proprietary and confidential information,
 including trade secrets, belonging to Gaussian, Inc.
  
 This software is provided under written license and may be
 used, copied, transmitted, or stored only in accord with that
 written license.
  
 The following legend is applicable only to US Government
 contracts under FAR:
  
                    RESTRICTED RIGHTS LEGEND
  
 Use, reproduction and disclosure by the US Government is
 subject to restrictions as set forth in subparagraphs (a)
 and (c) of the Commercial Computer Software - Restricted
 Rights clause in FAR 52.227-19.
  
 Gaussian, Inc.
 340 Quinnipiac St., Bldg. 40, Wallingford CT 06492
  
  
 ---------------------------------------------------------------
 Warning -- This program may not be used in any manner that
 competes with the business of Gaussian, Inc. or will provide
 assistance to any competitor of Gaussian, Inc.  The licensee
 of this program is prohibited from giving any competitor of
 Gaussian, Inc. access to this program.  By using this program,
 the user acknowledges that Gaussian, Inc. is engaged in the
 business of creating and licensing software in the field of
 computational chemistry and represents and warrants to the
 licensee that it is not a competitor of Gaussian, Inc. and that
 it will not use this program in any manner prohibited above.
 ---------------------------------------------------------------
  

 Cite this work as:
 Gaussian 16, Revision A.03,
 M. J. Frisch, G. W. Trucks, H. B. Schlegel, G. E. Scuseria, 
 M. A. Robb, J. R. Cheeseman, G. Scalmani, V. Barone, 
 G. A. Petersson, H. Nakatsuji, X. Li, M. Caricato, A. V. Marenich, 
 J. Bloino, B. G. Janesko, R. Gomperts, B. Mennucci, H. P. Hratchian, 
 J. V. Ortiz, A. F. Izmaylov, J. L. Sonnenberg, D. Williams-Young, 
 F. Ding, F. Lipparini, F. Egidi, J. Goings, B. Peng, A. Petrone, 
 T. Henderson, D. Ranasinghe, V. G. Zakrzewski, J. Gao, N. Rega, 
 G. Zheng, W. Liang, M. Hada, M. Ehara, K. Toyota, R. Fukuda, 
 J. Hasegawa, M. Ishida, T. Nakajima, Y. Honda, O. Kitao, H. Nakai, 
 T. Vreven, K. Throssell, J. A. Montgomery, Jr., J. E. Peralta, 
 F. Ogliaro, M. J. Bearpark, J. J. Heyd, E. N. Brothers, K. N. Kudin, 
 V. N. Staroverov, T. A. Keith, R. Kobayashi, J. Normand, 
 K. Raghavachari, A. P. Rendell, J. C. Burant, S. S. Iyengar, 
 J. Tomasi, M. Cossi, J. M. Millam, M. Klene, C. Adamo, R. Cammi, 
 J. W. Ochterski, R. L. Martin, K. Morokuma, O. Farkas, 
 J. B. Foresman, and D. J. Fox, Gaussian, Inc., Wallingford CT, 2016.
 
 ******************************************
 Gaussian 16:  ES64L-G16RevA.03 25-Dec-2016
                10-Jun-2022 
 ******************************************
 %nprocshared=12
 Will use up to   12 processors via shared memory.
 %chk=checkpoint.chk
 %mem=12GB
 --------------------------
 # sp B3LYP/Def2TZVP NoSymm
 --------------------------
 1/38=1,172=1/1;
 2/12=2,15=1,17=6,18=5,40=1/2;
 3/5=44,7=101,11=2,25=1,30=1,74=-5/1,2,3;
 4//1;
 5/5=2,38=5/2;
 6/7=2,8=2,9=2,10=2,28=1/1;
 99/5=1,9=1/99;
 ----------------------------
 int_initalOpt_zmat_AlignedSp
 ----------------------------
 Symbolic Z-matrix:
 Charge =  0 Multiplicity = 1
 C
 C                    1    R2
 C                    1    R3       2    A3
 C                    1    R4       2    A4       3    D4       0
 H                    1    R5       2    A5       3    D5       0
 H                    3    R6       1    A6       2    D6       0
 H                    3    R7       1    A7       6    D7       0
 H                    4    R8       1    A8       2    D8       0
 H                    4    R9       1    A9       8    D9       0
 C                    2    R10      1    A10      3    D10      0
 H                    2    R11      1    A11      10   D11      0
 H                    10   R12      2    A12      1    D12      0
 H                    10   R13      2    A13      12   D13      0
       Variables:
  R2                    1.48256                  
  R3                    1.51567                  
  R4                    1.50106                  
  R5                    1.08551                  
  R6                    1.0819                   
  R7                    1.082                    
  R8                    1.08125                  
  R9                    1.08179                  
  R10                   1.3285                   
  R11                   1.0878                   
  R12                   1.08331                  
  R13                   1.08241                  
  A3                  120.40571                  
  A4                  122.87219                  
  A5                  113.61879                  
  A6                  117.06943                  
  A7                  118.19647                  
  A8                  118.32609                  
  A9                  117.82575                  
  A10                 126.72847                  
  A11                 114.76084                  
  A12                 122.11774                  
  A13                 121.19383                  
  D4                   71.62806                  
  D5                 -140.6969                   
  D6                    5.19144                  
  D7                 -143.91262                  
  D8                   -1.32635                  
  D9                  144.05929                  
  D10                 -87.85234                  
  D11                 179.58993                  
  D12                  -1.46414                  
  D13                -179.80811                  
 
                          Input orientation:                          
 ---------------------------------------------------------------------
 Center     Atomic      Atomic             Coordinates (Angstroms)
 Number     Number       Type             X           Y           Z
 ---------------------------------------------------------------------
      1          6           0        0.000000    0.000000    0.000000
      2          6           0        0.000000    0.000000    1.482558
      3          6           0        1.307212    0.000000   -0.767112
      4          6           0        0.397357   -1.196454   -0.814723
      5          1           0       -0.769609    0.629987   -0.434908
      6          1           0        2.217423   -0.087171   -0.188821
      7          1           0        1.385433    0.629114   -1.643936
      8          1           0        0.716856   -2.088578   -0.294012
      9          1           0       -0.149007   -1.389356   -1.728261
     10          6           0        0.039902   -1.064012    2.277029
     11          1           0       -0.029952    0.987341    1.938164
     12          1           0        0.054329   -2.074313    1.886333
     13          1           0        0.056538   -0.959056    3.354207
 ---------------------------------------------------------------------
                    Distance matrix (angstroms):
                    1          2          3          4          5
     1  C    0.000000
     2  C    1.482558   0.000000
     3  C    1.515673   2.601887   0.000000
     4  C    1.501055   2.620476   1.503863   0.000000
     5  H    1.085507   2.160059   2.195547   2.200444   0.000000
     6  H    2.227155   2.778142   1.081899   2.221465   3.081758
     7  H    2.240030   3.477093   1.082000   2.235304   2.471023
     8  H    2.227663   2.834120   2.221374   1.081252   3.101616
     9  H    2.222476   3.501696   2.230402   1.081793   2.477026
    10  C    2.513678   1.328495   3.464822   3.115164   3.298415
    11  H    2.175367   1.087804   3.175117   3.539766   2.511228
    12  H    2.804278   2.113944   3.593502   2.860770   3.657905
    13  H    3.489081   2.103819   4.412396   4.189569   4.191058
                    6          7          8          9         10
     6  H    0.000000
     7  H    1.822809   0.000000
     8  H    2.503677   3.107272   0.000000
     9  H    3.108948   2.536896   1.815406   0.000000
    10  C    3.431652   4.477845   2.849254   4.022920   0.000000
    11  H    3.275567   3.868215   3.873191   4.370989   2.080327
    12  H    3.596383   4.641460   2.278826   3.684535   1.083309
    13  H    4.240596   5.410146   3.875737   5.104791   1.082407
                   11         12         13
    11  H    0.000000
    12  H    3.063252   0.000000
    13  H    2.408551   1.843490   0.000000
 Symmetry turned off by external request.
 Stoichiometry    C5H8
 Framework group  C1[X(C5H8)]
 Deg. of freedom    33
 Full point group                 C1      NOp   1
 Rotational constants (GHZ):          11.7053001           3.6577461           3.3006290
 Standard basis: def2TZVP (5D, 7F)
   203 basis functions,   319 primitive gaussians,   228 cartesian basis functions
    19 alpha electrons       19 beta electrons
       nuclear repulsion energy       165.0281160633 Hartrees.
 NAtoms=   13 NActive=   13 NUniq=   13 SFac= 1.00D+00 NAtFMM=   60 NAOKFM=F Big=F
 Integral buffers will be    131072 words long.
 Raffenetti 2 integral format.
 Two-electron integral symmetry is turned off.
 One-electron integrals computed using PRISM.
   1 Symmetry operations used in ECPInt.
 ECPInt:  NShTT=    3828 NPrTT=   11160 LenC2=    3810 LenP2D=    9471.
 LDataN:  DoStor=T MaxTD1= 6 Len=  172
 NBasis=   203 RedAO= T EigKep=  1.51D-04  NBF=   203
 NBsUse=   203 1.00D-06 EigRej= -1.00D+00 NBFU=   203
 ExpMin= 9.52D-02 ExpMax= 1.36D+04 ExpMxC= 4.63D+02 IAcc=3 IRadAn=         5 AccDes= 0.00D+00
 Harris functional with IExCor=  402 and IRadAn=       5 diagonalized for initial guess.
 HarFok:  IExCor=  402 AccDes= 0.00D+00 IRadAn=         5 IDoV= 1 UseB2=F ITyADJ=14
 ICtDFT=  3500011 ScaDFX=  1.000000  1.000000  1.000000  1.000000
 FoFCou: FMM=F IPFlag=           0 FMFlag=      100000 FMFlg1=           0
         NFxFlg=           0 DoJE=T BraDBF=F KetDBF=T FulRan=T
         wScrn=  0.000000 ICntrl=       500 IOpCl=  0 I1Cent=   200000004 NGrid=           0
         NMat0=    1 NMatS0=      1 NMatT0=    0 NMatD0=    1 NMtDS0=    0 NMtDT0=    0
 Symmetry not used in FoFCou.
 Requested convergence on RMS density matrix=1.00D-08 within 128 cycles.
 Requested convergence on MAX density matrix=1.00D-06.
 Requested convergence on             energy=1.00D-06.
 No special actions if energy rises.
 Integral accuracy reduced to 1.0D-05 until final iterations.
 Initial convergence to 1.0D-05 achieved.  Increase integral accuracy.
 SCF Done:  E(RB3LYP) =  -195.367313830     A.U. after   13 cycles
            NFock= 13  Conv=0.44D-08     -V/T= 2.0056

 **********************************************************************

            Population analysis using the SCF density.

 **********************************************************************

 Alpha  occ. eigenvalues --  -10.18343 -10.17640 -10.17501 -10.17344 -10.16187
 Alpha  occ. eigenvalues --   -0.86643  -0.76243  -0.63241  -0.60399  -0.54113
 Alpha  occ. eigenvalues --   -0.50618  -0.47318  -0.44430  -0.39079  -0.37052
 Alpha  occ. eigenvalues --   -0.35293  -0.32157  -0.30019  -0.25365
 Alpha virt. eigenvalues --    0.00268   0.04790   0.05826   0.07399   0.07533
 Alpha virt. eigenvalues --    0.10481   0.11526   0.12336   0.12954   0.15722
 Alpha virt. eigenvalues --    0.16347   0.17098   0.18595   0.19913   0.22286
 Alpha virt. eigenvalues --    0.23837   0.25457   0.26699   0.28425   0.29235
 Alpha virt. eigenvalues --    0.32119   0.33790   0.34922   0.35843   0.38005
 Alpha virt. eigenvalues --    0.39425   0.40276   0.41653   0.42128   0.42597
 Alpha virt. eigenvalues --    0.45802   0.46387   0.46734   0.47491   0.47883
 Alpha virt. eigenvalues --    0.50609   0.52969   0.53900   0.58293   0.60417
 Alpha virt. eigenvalues --    0.62719   0.65641   0.67689   0.74389   0.81108
 Alpha virt. eigenvalues --    0.86228   0.87149   0.89702   0.90024   0.95452
 Alpha virt. eigenvalues --    0.95840   0.97699   0.99197   1.00848   1.03095
 Alpha virt. eigenvalues --    1.04106   1.07744   1.11152   1.12895   1.13830
 Alpha virt. eigenvalues --    1.17568   1.18352   1.20997   1.23888   1.26674
 Alpha virt. eigenvalues --    1.33399   1.37381   1.40677   1.47863   1.49831
 Alpha virt. eigenvalues --    1.51478   1.53063   1.56765   1.58746   1.60440
 Alpha virt. eigenvalues --    1.64277   1.65702   1.68688   1.69333   1.70455
 Alpha virt. eigenvalues --    1.75292   1.75920   1.81453   1.83472   1.83970
 Alpha virt. eigenvalues --    1.84663   1.85339   1.91581   1.94660   1.97485
 Alpha virt. eigenvalues --    2.03274   2.05094   2.10723   2.16633   2.25055
 Alpha virt. eigenvalues --    2.27052   2.32279   2.34515   2.35736   2.39019
 Alpha virt. eigenvalues --    2.40859   2.42226   2.44070   2.48023   2.49306
 Alpha virt. eigenvalues --    2.52153   2.54798   2.56139   2.57667   2.60240
 Alpha virt. eigenvalues --    2.61398   2.62319   2.65577   2.68524   2.69542
 Alpha virt. eigenvalues --    2.72546   2.75133   2.78202   2.81401   2.86644
 Alpha virt. eigenvalues --    2.90526   2.93344   2.96540   2.97230   3.00351
 Alpha virt. eigenvalues --    3.02501   3.04600   3.05306   3.08058   3.08930
 Alpha virt. eigenvalues --    3.10850   3.13440   3.14693   3.15845   3.20482
 Alpha virt. eigenvalues --    3.23419   3.24991   3.27840   3.30743   3.33904
 Alpha virt. eigenvalues --    3.37010   3.40728   3.43886   3.45429   3.47644
 Alpha virt. eigenvalues --    3.56997   3.58504   3.59902   3.64480   3.69302
 Alpha virt. eigenvalues --    3.73379   3.76603   3.81175   3.85794   3.91547
 Alpha virt. eigenvalues --    3.95642   3.99788   4.03244   4.06036   4.09333
 Alpha virt. eigenvalues --    4.12295   4.14950   4.16652   4.22274   4.32308
 Alpha virt. eigenvalues --    4.38452   4.41413   4.43865   4.51837   4.54369
 Alpha virt. eigenvalues --    4.57713   4.59160   4.68221   4.71740   4.81250
 Alpha virt. eigenvalues --    4.88251   4.97085   5.06082   5.12308  22.12816
 Alpha virt. eigenvalues --   22.37133  22.42491  22.54786  22.72978
          Condensed to atoms (all electrons):
               1          2          3          4          5          6
     1  C    4.965961   0.357677   0.229403   0.258995   0.438236  -0.031453
     2  C    0.357677   4.932749  -0.023642  -0.033355  -0.053096  -0.002601
     3  C    0.229403  -0.023642   5.087377   0.213337  -0.052058   0.411678
     4  C    0.258995  -0.033355   0.213337   4.998019  -0.033625  -0.021311
     5  H    0.438236  -0.053096  -0.052058  -0.033625   0.612104   0.004397
     6  H   -0.031453  -0.002601   0.411678  -0.021311   0.004397   0.556081
     7  H   -0.031363   0.005065   0.408535  -0.022679  -0.007072  -0.026306
     8  H   -0.028484  -0.003497  -0.030132   0.421971   0.004144  -0.006516
     9  H   -0.036393   0.006239  -0.024453   0.421815  -0.007411   0.002414
    10  C   -0.045320   0.618630  -0.008174  -0.001101   0.003371   0.003060
    11  H   -0.056664   0.407030  -0.002500   0.008201  -0.002688   0.001563
    12  H   -0.010606  -0.043861  -0.001370   0.005109   0.000106   0.000478
    13  H    0.008723  -0.041232  -0.000455   0.000349  -0.000459  -0.000161
               7          8          9         10         11         12
     1  C   -0.031363  -0.028484  -0.036393  -0.045320  -0.056664  -0.010606
     2  C    0.005065  -0.003497   0.006239   0.618630   0.407030  -0.043861
     3  C    0.408535  -0.030132  -0.024453  -0.008174  -0.002500  -0.001370
     4  C   -0.022679   0.421971   0.421815  -0.001101   0.008201   0.005109
     5  H   -0.007072   0.004144  -0.007411   0.003371  -0.002688   0.000106
     6  H   -0.026306  -0.006516   0.002414   0.003060   0.001563   0.000478
     7  H    0.576105   0.002400  -0.007869  -0.000028   0.000126  -0.000057
     8  H    0.002400   0.559635  -0.026626   0.000216   0.000108   0.003377
     9  H   -0.007869  -0.026626   0.568406  -0.000570  -0.000193  -0.000054
    10  C   -0.000028   0.000216  -0.000570   4.902254  -0.037269   0.409047
    11  H    0.000126   0.000108  -0.000193  -0.037269   0.585673   0.007622
    12  H   -0.000057   0.003377  -0.000054   0.409047   0.007622   0.563822
    13  H    0.000034  -0.000227  -0.000013   0.412080  -0.009665  -0.035253
              13
     1  C    0.008723
     2  C   -0.041232
     3  C   -0.000455
     4  C    0.000349
     5  H   -0.000459
     6  H   -0.000161
     7  H    0.000034
     8  H   -0.000227
     9  H   -0.000013
    10  C    0.412080
    11  H   -0.009665
    12  H   -0.035253
    13  H    0.556460
 Mulliken charges:
               1
     1  C   -0.018711
     2  C   -0.126107
     3  C   -0.207547
     4  C   -0.215725
     5  H    0.094049
     6  H    0.108679
     7  H    0.103109
     8  H    0.103630
     9  H    0.104705
    10  C   -0.256198
    11  H    0.098656
    12  H    0.101640
    13  H    0.109820
 Sum of Mulliken charges =  -0.00000
 Mulliken charges with hydrogens summed into heavy atoms:
               1
     1  C    0.075338
     2  C   -0.027451
     3  C    0.004241
     4  C   -0.007390
    10  C   -0.044738
 Electronic spatial extent (au):  <R**2>=            515.2267
 Charge=             -0.0000 electrons
 Dipole moment (field-independent basis, Debye):
    X=              0.0311    Y=              0.2090    Z=             -0.3871  Tot=              0.4410
 Quadrupole moment (field-independent basis, Debye-Ang):
   XX=            -33.8048   YY=            -31.1850   ZZ=            -31.3059
   XY=             -0.4443   XZ=              0.7541   YZ=             -0.1844
 Traceless Quadrupole moment (field-independent basis, Debye-Ang):
   XX=             -1.7062   YY=              0.9136   ZZ=              0.7926
   XY=             -0.4443   XZ=              0.7541   YZ=             -0.1844
 Octapole moment (field-independent basis, Debye-Ang**2):
  XXX=            -34.4727  YYY=             42.8040  ZZZ=            -38.7215  XYY=            -11.8559
  XXY=             17.3335  XXZ=            -16.5305  XZZ=            -12.7855  YZZ=             16.3788
  YYZ=            -12.0442  XYZ=             -1.5315
 Hexadecapole moment (field-independent basis, Debye-Ang**3):
 XXXX=           -131.4672 YYYY=           -169.0740 ZZZZ=           -394.8381 XXXY=             11.5589
 XXXZ=             26.9991 YYYX=              8.7826 YYYZ=             28.9108 ZZZX=             26.1064
 ZZZY=             28.9700 XXYY=            -54.6584 XXZZ=           -102.7611 YYZZ=            -97.1179
 XXYZ=             10.8904 YYXZ=              9.4922 ZZXY=              6.2473
 N-N= 1.650281160633D+02 E-N=-7.821353414881D+02  KE= 1.942737236112D+02
 1\1\GINC-BHC0026\SP\RB3LYP\def2TZVP\C5H8\DHANAWAY\10-Jun-2022\0\\# sp 
 B3LYP/Def2TZVP NoSymm\\int_initalOpt_zmat_AlignedSp\\0,1\C\C,1,1.48255
 768\C,1,1.51567256,2,120.40571449\C,1,1.50105527,2,122.87219059,3,71.6
 2805633,0\H,1,1.08550732,2,113.61879462,3,-140.69690146,0\H,3,1.081898
 52,1,117.06943224,2,5.1914425,0\H,3,1.08199984,1,118.19647234,6,-143.9
 1262482,0\H,4,1.0812518,1,118.32608838,2,-1.32634652,0\H,4,1.08179334,
 1,117.82575164,8,144.05929393,0\C,2,1.3284951,1,126.7284711,3,-87.8523
 4338,0\H,2,1.08780376,1,114.76084054,10,179.58993351,0\H,10,1.08330891
 ,2,122.1177442,1,-1.46413883,0\H,10,1.08240687,2,121.19382615,12,-179.
 80810687,0\\Version=ES64L-G16RevA.03\HF=-195.3673138\RMSD=4.431e-09\Di
 pole=0.0122368,0.0822132,-0.1522919\Quadrupole=-1.2685504,0.6792487,0.
 5893016,-0.3302901,0.5606388,-0.1370896\PG=C01 [X(C5H8)]\\@


 EVANS BOLDLY PUT 50 ATM. OF ETHYLENE IN A CELL WITH 25 ATM. OF OXYGEN.
 THE APPARATUS SUBSEQUENTLY BLEW UP, BUT LUCKILY NOT BEFORE HE
 OBTAINED THE SPECTRA SHOWN IN FIGURE 8.
 A.J.MERER AND R.S.MULLIKEN, CHEM.REV. 69, 645 (1969)
 Job cpu time:       0 days  0 hours  3 minutes 36.6 seconds.
 Elapsed time:       0 days  0 hours  0 minutes 18.3 seconds.
 File lengths (MBytes):  RWF=     25 Int=      0 D2E=      0 Chk=     32 Scr=      1
 Normal termination of Gaussian 16 at Fri Jun 10 10:58:23 2022.
