 Entering Gaussian System, Link 0=g16
 Input=ts_zmat_field_N25.gjf
 Output=ts_zmat_field_N25.out
 Initial command:
 /software/gaussian/g16-a03/l1.exe "/local_scratch/11171756/Gau-11292.inp" -scrdir="/local_scratch/11171756/"
 Entering Link 1 = /software/gaussian/g16-a03/l1.exe PID=     11293.
  
 Copyright (c) 1988,1990,1992,1993,1995,1998,2003,2009,2016,
            Gaussian, Inc.  All Rights Reserved.
  
 This is part of the Gaussian(R) 16 program.  It is based on
 the Gaussian(R) 09 system (copyright 2009, Gaussian, Inc.),
 the Gaussian(R) 03 system (copyright 2003, Gaussian, Inc.),
 the Gaussian(R) 98 system (copyright 1998, Gaussian, Inc.),
 the Gaussian(R) 94 system (copyright 1995, Gaussian, Inc.),
 the Gaussian 92(TM) system (copyright 1992, Gaussian, Inc.),
 the Gaussian 90(TM) system (copyright 1990, Gaussian, Inc.),
 the Gaussian 88(TM) system (copyright 1988, Gaussian, Inc.),
 the Gaussian 86(TM) system (copyright 1986, Carnegie Mellon
 University), and the Gaussian 82(TM) system (copyright 1983,
 Carnegie Mellon University). Gaussian is a federally registered
 trademark of Gaussian, Inc.
  
 This software contains proprietary and confidential information,
 including trade secrets, belonging to Gaussian, Inc.
  
 This software is provided under written license and may be
 used, copied, transmitted, or stored only in accord with that
 written license.
  
 The following legend is applicable only to US Government
 contracts under FAR:
  
                    RESTRICTED RIGHTS LEGEND
  
 Use, reproduction and disclosure by the US Government is
 subject to restrictions as set forth in subparagraphs (a)
 and (c) of the Commercial Computer Software - Restricted
 Rights clause in FAR 52.227-19.
  
 Gaussian, Inc.
 340 Quinnipiac St., Bldg. 40, Wallingford CT 06492
  
  
 ---------------------------------------------------------------
 Warning -- This program may not be used in any manner that
 competes with the business of Gaussian, Inc. or will provide
 assistance to any competitor of Gaussian, Inc.  The licensee
 of this program is prohibited from giving any competitor of
 Gaussian, Inc. access to this program.  By using this program,
 the user acknowledges that Gaussian, Inc. is engaged in the
 business of creating and licensing software in the field of
 computational chemistry and represents and warrants to the
 licensee that it is not a competitor of Gaussian, Inc. and that
 it will not use this program in any manner prohibited above.
 ---------------------------------------------------------------
  

 Cite this work as:
 Gaussian 16, Revision A.03,
 M. J. Frisch, G. W. Trucks, H. B. Schlegel, G. E. Scuseria, 
 M. A. Robb, J. R. Cheeseman, G. Scalmani, V. Barone, 
 G. A. Petersson, H. Nakatsuji, X. Li, M. Caricato, A. V. Marenich, 
 J. Bloino, B. G. Janesko, R. Gomperts, B. Mennucci, H. P. Hratchian, 
 J. V. Ortiz, A. F. Izmaylov, J. L. Sonnenberg, D. Williams-Young, 
 F. Ding, F. Lipparini, F. Egidi, J. Goings, B. Peng, A. Petrone, 
 T. Henderson, D. Ranasinghe, V. G. Zakrzewski, J. Gao, N. Rega, 
 G. Zheng, W. Liang, M. Hada, M. Ehara, K. Toyota, R. Fukuda, 
 J. Hasegawa, M. Ishida, T. Nakajima, Y. Honda, O. Kitao, H. Nakai, 
 T. Vreven, K. Throssell, J. A. Montgomery, Jr., J. E. Peralta, 
 F. Ogliaro, M. J. Bearpark, J. J. Heyd, E. N. Brothers, K. N. Kudin, 
 V. N. Staroverov, T. A. Keith, R. Kobayashi, J. Normand, 
 K. Raghavachari, A. P. Rendell, J. C. Burant, S. S. Iyengar, 
 J. Tomasi, M. Cossi, J. M. Millam, M. Klene, C. Adamo, R. Cammi, 
 J. W. Ochterski, R. L. Martin, K. Morokuma, O. Farkas, 
 J. B. Foresman, and D. J. Fox, Gaussian, Inc., Wallingford CT, 2016.
 
 ******************************************
 Gaussian 16:  ES64L-G16RevA.03 25-Dec-2016
                10-Jun-2022 
 ******************************************
 %nprocshared=12
 Will use up to   12 processors via shared memory.
 %chk=checkpoint.chk
 %mem=12GB
 ----------------------------------------------------------------------
 # Opt=(TS, CalcFC, noeigentest, Z-matrix, MaxStep=10) Field=read NoSym
 m B3LYP/Def2TZVP freq=noraman pop=none
 ----------------------------------------------------------------------
 1/5=1,8=10,10=4,11=1,18=40,26=3,38=1/1,3;
 2/12=2,15=1,17=6,18=5,29=3,40=1/2;
 3/5=44,7=101,11=2,14=-6,25=1,30=1,71=2,74=-5,140=1/1,2,3;
 4//1;
 5/5=2,38=5/2;
 8/6=4,10=90,11=11/1;
 11/6=1,8=1,9=11,15=111,16=1,31=1/1,2,10;
 10/6=1,13=1,31=1/2;
 7/10=1,18=20,25=1,30=1/1,2,3,16;
 1/5=1,8=10,10=4,11=1,18=40,26=3/3(2);
 2/15=1,29=3/2;
 99//99;
 2/15=1,29=3/2;
 3/5=44,7=101,11=2,14=-2,25=1,30=1,71=1,74=-5/1,2,3;
 4/5=5,16=3,69=1/1;
 5/5=2,38=5/2;
 7/30=1/1,2,3,16;
 1/5=1,8=10,11=1,18=40,26=3/3(-5);
 2/15=1,29=3/2;
 99/9=1/99;
 -----------------
 ts_zmat_initalOpt
 -----------------
 Symbolic Z-matrix:
 Charge =  0 Multiplicity = 1
 C
 C                    1    R2
 C                    1    R3       2    A3
 H                    1    R4       2    A4       3    D4       0
 C                    3    R5       1    A5       2    D5       0
 H                    3    R6       1    A6       5    D6       0
 H                    3    R7       1    A7       5    D7       0
 C                    2    R8       1    A8       3    D8       0
 H                    2    R9       1    A9       8    D9       0
 H                    5    R10      3    A10      1    D10      0
 H                    5    R11      3    A11      10   D11      0
 H                    8    R12      2    A12      1    D12      0
 H                    8    R13      2    A13      12   D13      0
       Variables:
  R2                    1.38898                  
  R3                    1.50547                  
  R4                    1.08703                  
  R5                    1.45933                  
  R6                    1.09295                  
  R7                    1.09595                  
  R8                    1.36997                  
  R9                    1.09297                  
  R10                   1.07871                  
  R11                   1.08047                  
  R12                   1.07697                  
  R13                   1.08422                  
  A3                  123.46834                  
  A4                  118.91714                  
  A5                  103.43863                  
  A6                  112.24803                  
  A7                  107.97209                  
  A8                  127.86756                  
  A9                  114.76605                  
  A10                 122.85703                  
  A11                 119.03922                  
  A12                 120.90319                  
  A13                 121.23389                  
  D4                 -178.25373                  
  D5                   49.95402                  
  D6                 -122.96216                  
  D7                  118.46513                  
  D8                  -30.67262                  
  D9                  177.67396                  
  D10                -112.52617                  
  D11                 178.67074                  
  D12                 -34.33522                  
  D13                -169.52736                  
 

 GradGradGradGradGradGradGradGradGradGradGradGradGradGradGradGradGradGrad
 Berny optimization.
 Initialization pass.
                       ----------------------------
                       !    Initial Parameters    !
                       ! (Angstroms and Degrees)  !
 ----------------------                            ----------------------
 !      Name          Value   Derivative information (Atomic Units)     !
 ------------------------------------------------------------------------
 !       R2          1.389    calculate D2E/DX2 analytically            !
 !       R3          1.5055   calculate D2E/DX2 analytically            !
 !       R4          1.087    calculate D2E/DX2 analytically            !
 !       R5          1.4593   calculate D2E/DX2 analytically            !
 !       R6          1.0929   calculate D2E/DX2 analytically            !
 !       R7          1.096    calculate D2E/DX2 analytically            !
 !       R8          1.37     calculate D2E/DX2 analytically            !
 !       R9          1.093    calculate D2E/DX2 analytically            !
 !       R10         1.0787   calculate D2E/DX2 analytically            !
 !       R11         1.0805   calculate D2E/DX2 analytically            !
 !       R12         1.077    calculate D2E/DX2 analytically            !
 !       R13         1.0842   calculate D2E/DX2 analytically            !
 !       A3        123.4683   calculate D2E/DX2 analytically            !
 !       A4        118.9171   calculate D2E/DX2 analytically            !
 !       A5        103.4386   calculate D2E/DX2 analytically            !
 !       A6        112.248    calculate D2E/DX2 analytically            !
 !       A7        107.9721   calculate D2E/DX2 analytically            !
 !       A8        127.8676   calculate D2E/DX2 analytically            !
 !       A9        114.7661   calculate D2E/DX2 analytically            !
 !       A10       122.857    calculate D2E/DX2 analytically            !
 !       A11       119.0392   calculate D2E/DX2 analytically            !
 !       A12       120.9032   calculate D2E/DX2 analytically            !
 !       A13       121.2339   calculate D2E/DX2 analytically            !
 !       D4       -178.2537   calculate D2E/DX2 analytically            !
 !       D5         49.954    calculate D2E/DX2 analytically            !
 !       D6       -122.9622   calculate D2E/DX2 analytically            !
 !       D7        118.4651   calculate D2E/DX2 analytically            !
 !       D8        -30.6726   calculate D2E/DX2 analytically            !
 !       D9        177.674    calculate D2E/DX2 analytically            !
 !       D10      -112.5262   calculate D2E/DX2 analytically            !
 !       D11       178.6707   calculate D2E/DX2 analytically            !
 !       D12       -34.3352   calculate D2E/DX2 analytically            !
 !       D13      -169.5274   calculate D2E/DX2 analytically            !
 ------------------------------------------------------------------------
 Trust Radius=1.00D-01 FncErr=1.00D-07 GrdErr=1.00D-06 EigMax=2.50D+02 EigMin=1.00D-04
 Number of steps in this run=     43 maximum allowed number of steps=    100.
 Search for a saddle point of order  1.
 GradGradGradGradGradGradGradGradGradGradGradGradGradGradGradGradGradGrad

 ---------------------------------------------------------------------------------------------------
                            Z-MATRIX (ANGSTROMS AND DEGREES)
   CD    Cent   Atom    N1       Length/X        N2       Alpha/Y        N3        Beta/Z          J
 ---------------------------------------------------------------------------------------------------
      1      1  C 
      2      2  C        1   1.388977(     1)
      3      3  C        1   1.505466(     2)      2  123.468(    13)
      4      4  H        1   1.087030(     3)      2  118.917(    14)      3 -178.254(    24)      0
      5      5  C        3   1.459328(     4)      1  103.439(    15)      2   49.954(    25)      0
      6      6  H        3   1.092947(     5)      1  112.248(    16)      5 -122.962(    26)      0
      7      7  H        3   1.095952(     6)      1  107.972(    17)      5  118.465(    27)      0
      8      8  C        2   1.369970(     7)      1  127.868(    18)      3  -30.673(    28)      0
      9      9  H        2   1.092971(     8)      1  114.766(    19)      8  177.674(    29)      0
     10     10  H        5   1.078713(     9)      3  122.857(    20)      1 -112.526(    30)      0
     11     11  H        5   1.080469(    10)      3  119.039(    21)     10  178.671(    31)      0
     12     12  H        8   1.076968(    11)      2  120.903(    22)      1  -34.335(    32)      0
     13     13  H        8   1.084224(    12)      2  121.234(    23)     12 -169.527(    33)      0
 ---------------------------------------------------------------------------------------------------
                         Z-Matrix orientation:                         
 ---------------------------------------------------------------------
 Center     Atomic      Atomic             Coordinates (Angstroms)
 Number     Number       Type             X           Y           Z
 ---------------------------------------------------------------------
      1          6           0        0.000000    0.000000    0.000000
      2          6           0        0.000000    0.000000    1.388977
      3          6           0        1.255846    0.000000   -0.830229
      4          1           0       -0.951057    0.028995   -0.525627
      5          6           0        2.042387   -1.086568   -0.255459
      6          1           0        1.764069    0.967422   -0.811831
      7          1           0        0.974738   -0.209278   -1.868637
      8          6           0        0.930192   -0.551706    2.229917
      9          1           0       -0.832348    0.540505    1.846838
     10          1           0        2.964218   -0.922028    0.280055
     11          1           0        1.681867   -2.100901   -0.348029
     12          1           0        1.442731   -1.461690    1.967060
     13          1           0        1.055625   -0.190055    3.244321
 ---------------------------------------------------------------------
                    Distance matrix (angstroms):
                    1          2          3          4          5
     1  C    0.000000
     2  C    1.388977   0.000000
     3  C    1.505466   2.549907   0.000000
     4  H    1.087030   2.138003   2.228013   0.000000
     5  C    2.327495   2.838335   1.459328   3.205960   0.000000
     6  H    2.169542   2.981844   1.092947   2.886947   2.146133
     7  H    2.117951   3.406752   1.095952   2.359902   2.124113
     8  C    2.478339   1.369970   3.126487   3.386640   2.774914
     9  H    2.096607   1.092971   3.437933   2.429881   3.915497
    10  H    3.116914   3.296427   2.236381   4.108886   1.078713
    11  H    2.713593   3.203069   2.197224   3.391207   1.080469
    12  H    2.843824   2.133586   3.161691   3.763754   2.332358
    13  H    3.417028   2.143074   4.083891   4.276361   3.745116
                    6          7          8          9         10
     6  H    0.000000
     7  H    1.767627   0.000000
     8  C    3.500761   4.113075   0.000000
     9  H    3.740609   4.199106   2.108606   0.000000
    10  H    2.490501   3.013789   2.841894   4.359785   0.000000
    11  H    3.104267   2.527947   3.100133   4.256259   1.851662
    12  H    3.704872   4.062034   1.076968   3.033022   2.334982
    13  H    4.277150   5.113634   1.084224   2.459902   3.600747
                   11         12         13
    11  H    0.000000
    12  H    2.413589   0.000000
    13  H    4.116854   1.843449   0.000000
 Symmetry turned off by external request.
 Stoichiometry    C5H8
 Framework group  C1[X(C5H8)]
 Deg. of freedom    33
 Full point group                 C1      NOp   1
 Rotational constants (GHZ):           8.4972827           4.4922933           3.1937431
 Standard basis: def2TZVP (5D, 7F)
 The following finite field(s) will be applied:
 An electric field of              0.0012 -0.0001  0.0022
   203 basis functions,   319 primitive gaussians,   228 cartesian basis functions
    19 alpha electrons       19 beta electrons
       nuclear repulsion energy       162.0285214557 Hartrees.
 NAtoms=   13 NActive=   13 NUniq=   13 SFac= 1.00D+00 NAtFMM=   60 NAOKFM=F Big=F
 Integral buffers will be    131072 words long.
 Raffenetti 2 integral format.
 Two-electron integral symmetry is turned off.
 One-electron integrals computed using PRISM.
   1 Symmetry operations used in ECPInt.
 ECPInt:  NShTT=    3828 NPrTT=   11160 LenC2=    3812 LenP2D=    9471.
 LDataN:  DoStor=T MaxTD1= 6 Len=  172
 NBasis=   203 RedAO= T EigKep=  1.52D-04  NBF=   203
 NBsUse=   203 1.00D-06 EigRej= -1.00D+00 NBFU=   203
 The nuclear repulsion energy is now       162.1866505098 hartrees.
 ExpMin= 9.52D-02 ExpMax= 1.36D+04 ExpMxC= 4.63D+02 IAcc=3 IRadAn=         5 AccDes= 0.00D+00
 Harris functional with IExCor=  402 and IRadAn=       5 diagonalized for initial guess.
 HarFok:  IExCor=  402 AccDes= 0.00D+00 IRadAn=         5 IDoV= 1 UseB2=F ITyADJ=14
 ICtDFT=  3500011 ScaDFX=  1.000000  1.000000  1.000000  1.000000
 FoFCou: FMM=F IPFlag=           0 FMFlag=      100000 FMFlg1=           0
         NFxFlg=           0 DoJE=T BraDBF=F KetDBF=T FulRan=T
         wScrn=  0.000000 ICntrl=       500 IOpCl=  0 I1Cent=   200000004 NGrid=           0
         NMat0=    1 NMatS0=      1 NMatT0=    0 NMatD0=    1 NMtDS0=    0 NMtDT0=    0
 Symmetry not used in FoFCou.
 Requested convergence on RMS density matrix=1.00D-08 within 128 cycles.
 Requested convergence on MAX density matrix=1.00D-06.
 Requested convergence on             energy=1.00D-06.
 No special actions if energy rises.
 Integral accuracy reduced to 1.0D-05 until final iterations.
 Initial convergence to 1.0D-05 achieved.  Increase integral accuracy.
 SCF Done:  E(RB3LYP) =  -195.276941342     A.U. after   16 cycles
            NFock= 16  Conv=0.39D-08     -V/T= 2.0056
 DoSCS=F DFT=T ScalE2(SS,OS)=  1.000000  1.000000
 Range of M.O.s used for correlation:     1   203
 NBasis=   203 NAE=    19 NBE=    19 NFC=     0 NFV=     0
 NROrb=    203 NOA=    19 NOB=    19 NVA=   184 NVB=   184

 **** Warning!!: The largest alpha MO coefficient is  0.19722563D+02

   1 Symmetry operations used in ECPInt.
 ECPInt:  NShTT=    3828 NPrTT=   11160 LenC2=    3812 LenP2D=    9471.
 LDataN:  DoStor=T MaxTD1= 7 Len=  274
 Symmetrizing basis deriv contribution to polar:
 IMax=3 JMax=2 DiffMx= 0.00D+00
 G2DrvN: will do    14 centers at a time, making    1 passes.
 Calling FoFCou, ICntrl=  3107 FMM=F I1Cent=   0 AccDes= 0.00D+00.
 End of G2Drv F.D. properties file   721 does not exist.
 End of G2Drv F.D. properties file   722 does not exist.
 End of G2Drv F.D. properties file   788 does not exist.
          IDoAtm=1111111111111
          Differentiating once with respect to nuclear coordinates.
 Keep R1 ints in memory in canonical form, NReq=227048987.
          There are    42 degrees of freedom in the 1st order CPHF.  IDoFFX=6 NUNeed=     0.
     36 vectors produced by pass  0 Test12= 8.32D-15 2.38D-09 XBig12= 1.31D-01 1.37D-01.
 AX will form    36 AO Fock derivatives at one time.
     36 vectors produced by pass  1 Test12= 8.32D-15 2.38D-09 XBig12= 2.51D-02 6.35D-02.
     36 vectors produced by pass  2 Test12= 8.32D-15 2.38D-09 XBig12= 2.54D-04 3.18D-03.
     36 vectors produced by pass  3 Test12= 8.32D-15 2.38D-09 XBig12= 9.44D-07 1.67D-04.
     36 vectors produced by pass  4 Test12= 8.32D-15 2.38D-09 XBig12= 1.91D-09 5.19D-06.
     28 vectors produced by pass  5 Test12= 8.32D-15 2.38D-09 XBig12= 3.09D-12 2.08D-07.
      5 vectors produced by pass  6 Test12= 8.32D-15 2.38D-09 XBig12= 3.97D-15 9.79D-09.
 InvSVY:  IOpt=1 It=  1 EMax= 2.66D-15
 Solved reduced A of dimension   213 with    36 vectors.
 End of Minotr F.D. properties file   721 does not exist.
 End of Minotr F.D. properties file   722 does not exist.
 End of Minotr F.D. properties file   788 does not exist.
   1 Symmetry operations used in ECPInt.
 ECPInt:  NShTT=    3828 NPrTT=   11160 LenC2=    3812 LenP2D=    9471.
 LDataN:  DoStor=T MaxTD1= 8 Len=  415
 Calling FoFJK, ICntrl=    100147 FMM=F ISym2X=0 I1Cent= 0 IOpClX= 0 NMat=1 NMatS=1 NMatT=0.
 -------------------------------------------------------------------
 Center     Atomic                   Forces (Hartrees/Bohr)
 Number     Number              X              Y              Z
 -------------------------------------------------------------------
      1        6          -0.000542122   -0.000143592    0.000360439
      2        6          -0.000198949    0.000293727   -0.000604972
      3        6           0.000555739   -0.000198299   -0.000135727
      4        1           0.000336236    0.000022620    0.000046928
      5        6          -0.000660992    0.000260798   -0.000086925
      6        1          -0.000159833   -0.000041404   -0.000123403
      7        1           0.000038102    0.000069371    0.000258690
      8        6           0.000752498   -0.000469480    0.000204418
      9        1          -0.000075492    0.000028490   -0.000200714
     10        1           0.000157241    0.000060992   -0.000081905
     11        1           0.000003061    0.000005223   -0.000080111
     12        1          -0.000044070    0.000006679    0.000111106
     13        1          -0.000161420    0.000104875    0.000332175
 -------------------------------------------------------------------
 Cartesian Forces:  Max     0.000752498 RMS     0.000283086
 -----------------------------------------------------------------------------------------------
                       Internal Coordinate Forces (Hartree/Bohr or radian)
  Cent   Atom   N1       Length/X         N2         Alpha/Y        N3         Beta/Z          J
 -----------------------------------------------------------------------------------------------
      1  C 
      2  C        1  -0.000158(     1)
      3  C        1   0.000082(     2)      2   0.000945(    13)
      4  H        1  -0.000316(     3)      2   0.000249(    14)      3   0.000059(    24)     0
      5  C        3  -0.000611(     4)      1  -0.000167(    15)      2   0.000166(    25)     0
      6  H        3  -0.000113(     5)      1  -0.000050(    16)      5  -0.000326(    26)     0
      7  H        3  -0.000268(     6)      1  -0.000061(    17)      5   0.000040(    27)     0
      8  C        2   0.000913(     7)      1   0.000776(    18)      3   0.000039(    28)     0
      9  H        2  -0.000013(     8)      1  -0.000445(    19)      8   0.000032(    29)     0
     10  H        5   0.000103(     9)      3  -0.000118(    20)      1  -0.000124(    30)     0
     11  H        5   0.000001(    10)      3  -0.000080(    21)     10   0.000125(    31)     0
     12  H        8  -0.000054(    11)      2   0.000150(    22)      1   0.000121(    32)     0
     13  H        8   0.000327(    12)      2  -0.000282(    23)     12   0.000257(    33)     0
 -----------------------------------------------------------------------------------------------
 Internal  Forces:  Max     0.000944935 RMS     0.000335261

 GradGradGradGradGradGradGradGradGradGradGradGradGradGradGradGradGradGrad
 Berny optimization.
 Search for a saddle point.
 Step number   1 out of a maximum of   43
 All quantities printed in internal units (Hartrees-Bohrs-Radians)
 Swapping is turned off.
 Second derivative matrix not updated -- analytic derivatives used.
 ITU=  0
     Eigenvalues ---   -0.15396   0.01559   0.01587   0.02452   0.04197
     Eigenvalues ---    0.05747   0.07672   0.10379   0.11645   0.11750
     Eigenvalues ---    0.13501   0.15058   0.17171   0.19664   0.21939
     Eigenvalues ---    0.24495   0.28293   0.29340   0.31527   0.32309
     Eigenvalues ---    0.32575   0.33558   0.34526   0.35443   0.36445
     Eigenvalues ---    0.36863   0.37148   0.38923   0.39860   0.41008
     Eigenvalues ---    0.44973   0.53955   0.90518
 Eigenvectors required to have negative eigenvalues:
                          D5        D12       A5        A3        D10
   1                    0.67581   0.36172  -0.34151   0.25152   0.24828
                          D4        A8        R2        D9        R8
   1                   -0.21556   0.19429   0.15216  -0.12198  -0.11693
 RFO step:  Lambda0=1.452046361D-06 Lambda=-1.44283184D-05.
 Linear search not attempted -- option 19 set.
 Variable       Old X    -DE/DX   Delta X   Delta X   Delta X     New X
                                 (Linear)    (Quad)   (Total)
    R2        2.62479  -0.00016   0.00000  -0.00130  -0.00130   2.62348
    R3        2.84492   0.00008   0.00000   0.00102   0.00102   2.84593
    R4        2.05419  -0.00032   0.00000  -0.00087  -0.00087   2.05332
    R5        2.75773  -0.00061   0.00000  -0.00226  -0.00226   2.75547
    R6        2.06537  -0.00011   0.00000  -0.00038  -0.00038   2.06500
    R7        2.07105  -0.00027   0.00000  -0.00065  -0.00065   2.07040
    R8        2.58887   0.00091   0.00000   0.00191   0.00191   2.59078
    R9        2.06542  -0.00001   0.00000   0.00005   0.00005   2.06546
   R10        2.03847   0.00010   0.00000   0.00030   0.00030   2.03877
   R11        2.04179   0.00000   0.00000  -0.00008  -0.00008   2.04171
   R12        2.03517  -0.00005   0.00000  -0.00015  -0.00015   2.03502
   R13        2.04889   0.00033   0.00000   0.00089   0.00089   2.04978
    A3        2.15493   0.00094   0.00000   0.00162   0.00162   2.15655
    A4        2.07550   0.00025   0.00000   0.00024   0.00024   2.07574
    A5        1.80534  -0.00017   0.00000  -0.00085  -0.00085   1.80450
    A6        1.95910  -0.00005   0.00000   0.00039   0.00039   1.95949
    A7        1.88447  -0.00006   0.00000  -0.00196  -0.00196   1.88251
    A8        2.23171   0.00078   0.00000   0.00197   0.00197   2.23368
    A9        2.00305  -0.00044   0.00000  -0.00256  -0.00256   2.00048
   A10        2.14426  -0.00012   0.00000   0.00001   0.00001   2.14427
   A11        2.07763  -0.00008   0.00000  -0.00019  -0.00019   2.07743
   A12        2.11016   0.00015   0.00000   0.00105   0.00105   2.11121
   A13        2.11593  -0.00028   0.00000  -0.00228  -0.00228   2.11365
    D4       -3.11111   0.00006   0.00000  -0.00079  -0.00079  -3.11190
    D5        0.87186   0.00017   0.00000  -0.00300  -0.00300   0.86886
    D6       -2.14609  -0.00033   0.00000  -0.00341  -0.00341  -2.14951
    D7        2.06761   0.00004   0.00000  -0.00154  -0.00154   2.06606
    D8       -0.53534   0.00004   0.00000   0.00326   0.00326  -0.53208
    D9        3.10100   0.00003   0.00000   0.00049   0.00049   3.10149
   D10       -1.96395  -0.00012   0.00000  -0.00483  -0.00483  -1.96878
   D11        3.11839   0.00013   0.00000   0.00835   0.00835   3.12675
   D12       -0.59926   0.00012   0.00000  -0.00295  -0.00295  -0.60221
   D13       -2.95881   0.00026   0.00000   0.00582   0.00582  -2.95299
         Item               Value     Threshold  Converged?
 Maximum Force            0.000945     0.000450     NO 
 RMS     Force            0.000335     0.000300     NO 
 Maximum Displacement     0.008353     0.001800     NO 
 RMS     Displacement     0.002511     0.001200     NO 
 Predicted change in Energy=-6.488128D-06
 GradGradGradGradGradGradGradGradGradGradGradGradGradGradGradGradGradGrad

 ---------------------------------------------------------------------------------------------------
                            Z-MATRIX (ANGSTROMS AND DEGREES)
   CD    Cent   Atom    N1       Length/X        N2       Alpha/Y        N3        Beta/Z          J
 ---------------------------------------------------------------------------------------------------
      1      1  C 
      2      2  C        1   1.388288(     1)
      3      3  C        1   1.506004(     2)      2  123.561(    13)
      4      4  H        1   1.086570(     3)      2  118.931(    14)      3 -178.299(    24)      0
      5      5  C        3   1.458132(     4)      1  103.390(    15)      2   49.782(    25)      0
      6      6  H        3   1.092749(     5)      1  112.270(    16)      5 -123.158(    26)      0
      7      7  H        3   1.095607(     6)      1  107.860(    17)      5  118.377(    27)      0
      8      8  C        2   1.370980(     7)      1  127.980(    18)      3  -30.486(    28)      0
      9      9  H        2   1.092995(     8)      1  114.619(    19)      8  177.702(    29)      0
     10     10  H        5   1.078870(     9)      3  122.858(    20)      1 -112.803(    30)      0
     11     11  H        5   1.080425(    10)      3  119.028(    21)     10  179.149(    31)      0
     12     12  H        8   1.076888(    11)      2  120.963(    22)      1  -34.504(    32)      0
     13     13  H        8   1.084696(    12)      2  121.103(    23)     12 -169.194(    33)      0
 ---------------------------------------------------------------------------------------------------
                         Z-Matrix orientation:                         
 ---------------------------------------------------------------------
 Center     Atomic      Atomic             Coordinates (Angstroms)
 Number     Number       Type             X           Y           Z
 ---------------------------------------------------------------------
      1          6           0        0.000000    0.000000    0.000000
      2          6           0        0.000000    0.000000    1.388288
      3          6           0        1.254951    0.000000   -0.832554
      4          1           0       -0.950548    0.028230   -0.525637
      5          6           0        2.042674   -1.083152   -0.255993
      6          1           0        1.759979    0.968968   -0.820411
      7          1           0        0.970723   -0.213988   -1.868788
      8          6           0        0.931245   -0.548236    2.231974
      9          1           0       -0.835370    0.538026    1.843615
     10          1           0        2.967253   -0.916413    0.274396
     11          1           0        1.684691   -2.098363   -0.348250
     12          1           0        1.445766   -1.458148    1.973102
     13          1           0        1.050228   -0.185119    3.247136
 ---------------------------------------------------------------------
                    Distance matrix (angstroms):
                    1          2          3          4          5
     1  C    0.000000
     2  C    1.388288   0.000000
     3  C    1.506004   2.550890   0.000000
     4  H    1.086570   2.137159   2.226931   0.000000
     5  C    2.326213   2.837145   1.458132   3.204256   0.000000
     6  H    2.170138   2.985762   1.092749   2.884240   2.147017
     7  H    2.116710   3.405383   1.095607   2.356694   2.122647
     8  C    2.479816   1.370980   3.129965   3.387902   2.776938
     9  H    2.094334   1.092995   3.438138   2.426215   3.914040
    10  H    3.117643   3.299266   2.235426   4.108719   1.078870
    11  H    2.713410   3.202636   2.195987   3.390922   1.080425
    12  H    2.847730   2.135051   3.167698   3.767670   2.337901
    13  H    3.417768   2.143027   4.089016   4.275797   3.750110
                    6          7          8          9         10
     6  H    0.000000
     7  H    1.766749   0.000000
     8  C    3.507956   4.114550   0.000000
     9  H    3.744140   4.196360   2.109909   0.000000
    10  H    2.492142   3.012103   2.848332   4.363231   0.000000
    11  H    3.104372   2.524412   3.102922   4.255059   1.851934
    12  H    3.713938   4.066167   1.076888   3.033984   2.343928
    13  H    4.287260   5.116623   1.084696   2.459327   3.612057
                   11         12         13
    11  H    0.000000
    12  H    2.419841   0.000000
    13  H    4.121874   1.843968   0.000000
 Symmetry turned off by external request.
 Stoichiometry    C5H8
 Framework group  C1[X(C5H8)]
 Deg. of freedom    33
 Full point group                 C1      NOp   1
 Rotational constants (GHZ):           8.5045003           4.4861537           3.1908482
 Standard basis: def2TZVP (5D, 7F)
 The following finite field(s) will be applied:
 An electric field of              0.0012 -0.0001  0.0022
   203 basis functions,   319 primitive gaussians,   228 cartesian basis functions
    19 alpha electrons       19 beta electrons
       nuclear repulsion energy       162.0059032778 Hartrees.
 NAtoms=   13 NActive=   13 NUniq=   13 SFac= 1.00D+00 NAtFMM=   60 NAOKFM=F Big=F
 Integral buffers will be    131072 words long.
 Raffenetti 2 integral format.
 Two-electron integral symmetry is turned off.
 One-electron integrals computed using PRISM.
   1 Symmetry operations used in ECPInt.
 ECPInt:  NShTT=    3828 NPrTT=   11160 LenC2=    3812 LenP2D=    9471.
 LDataN:  DoStor=T MaxTD1= 6 Len=  172
 NBasis=   203 RedAO= T EigKep=  1.52D-04  NBF=   203
 NBsUse=   203 1.00D-06 EigRej= -1.00D+00 NBFU=   203
 The nuclear repulsion energy is now       162.1639419447 hartrees.
 Initial guess from the checkpoint file:  "checkpoint.chk"
 B after Tr=    -0.001944   -0.001947   -0.000973
         Rot=    0.999999    0.000653   -0.000232   -0.000984 Ang=   0.14 deg.
 Requested convergence on RMS density matrix=1.00D-08 within 128 cycles.
 Requested convergence on MAX density matrix=1.00D-06.
 Requested convergence on             energy=1.00D-06.
 No special actions if energy rises.
 SCF Done:  E(RB3LYP) =  -195.276947831     A.U. after    9 cycles
            NFock=  9  Conv=0.71D-08     -V/T= 2.0056
   1 Symmetry operations used in ECPInt.
 ECPInt:  NShTT=    3828 NPrTT=   11160 LenC2=    3812 LenP2D=    9471.
 LDataN:  DoStor=T MaxTD1= 7 Len=  274
 Calling FoFJK, ICntrl=      2127 FMM=F ISym2X=0 I1Cent= 0 IOpClX= 0 NMat=1 NMatS=1 NMatT=0.
 -------------------------------------------------------------------
 Center     Atomic                   Forces (Hartrees/Bohr)
 Number     Number              X              Y              Z
 -------------------------------------------------------------------
      1        6          -0.000111028   -0.000101899   -0.000002020
      2        6           0.000109257    0.000061514    0.000000023
      3        6          -0.000001284    0.000044083   -0.000000901
      4        1          -0.000000240   -0.000000160   -0.000000185
      5        6           0.000002942   -0.000003379    0.000000832
      6        1          -0.000000011    0.000000024   -0.000000028
      7        1          -0.000000355    0.000000056   -0.000000123
      8        6           0.000001853   -0.000001001    0.000002043
      9        1           0.000000120    0.000000216    0.000000240
     10        1           0.000000828    0.000000829   -0.000000140
     11        1          -0.000001019   -0.000000399   -0.000000469
     12        1          -0.000000585   -0.000000183   -0.000000015
     13        1          -0.000000479    0.000000300    0.000000743
 -------------------------------------------------------------------
 Cartesian Forces:  Max     0.000111028 RMS     0.000032191
 -----------------------------------------------------------------------------------------------
                       Internal Coordinate Forces (Hartree/Bohr or radian)
  Cent   Atom   N1       Length/X         N2         Alpha/Y        N3         Beta/Z          J
 -----------------------------------------------------------------------------------------------
      1  C 
      2  C        1   0.000003(     1)
      3  C        1   0.000001(     2)      2   0.000004(    13)
      4  H        1   0.000000(     3)      2   0.000000(    14)      3  -0.000000(    24)     0
      5  C        3   0.000004(     4)      1   0.000004(    15)      2   0.000002(    25)     0
      6  H        3   0.000000(     5)      1   0.000000(    16)      5  -0.000000(    26)     0
      7  H        3   0.000000(     6)      1  -0.000001(    17)      5   0.000000(    27)     0
      8  C        2   0.000003(     7)      1   0.000005(    18)      3  -0.000002(    28)     0
      9  H        2   0.000000(     8)      1   0.000000(    19)      8  -0.000000(    29)     0
     10  H        5   0.000001(     9)      3  -0.000002(    20)      1  -0.000001(    30)     0
     11  H        5   0.000001(    10)      3  -0.000002(    21)     10  -0.000000(    31)     0
     12  H        8  -0.000000(    11)      2  -0.000001(    22)      1  -0.000000(    32)     0
     13  H        8   0.000001(    12)      2  -0.000001(    23)     12   0.000001(    33)     0
 -----------------------------------------------------------------------------------------------
 Internal  Forces:  Max     0.000004604 RMS     0.000001811

 GradGradGradGradGradGradGradGradGradGradGradGradGradGradGradGradGradGrad
 Berny optimization.
 Search for a saddle point.
 Step number   2 out of a maximum of   43
 All quantities printed in internal units (Hartrees-Bohrs-Radians)
 Swapping is turned off.
 Update second derivatives using D2CorN and points    1    2
 ITU=  0  0
     Eigenvalues ---   -0.15394   0.01559   0.01586   0.02453   0.04198
     Eigenvalues ---    0.05747   0.07671   0.10377   0.11646   0.11750
     Eigenvalues ---    0.13502   0.15059   0.17171   0.19664   0.21939
     Eigenvalues ---    0.24495   0.28294   0.29340   0.31527   0.32309
     Eigenvalues ---    0.32575   0.33558   0.34526   0.35443   0.36445
     Eigenvalues ---    0.36863   0.37149   0.38924   0.39859   0.41008
     Eigenvalues ---    0.44973   0.53954   0.90515
 Eigenvectors required to have negative eigenvalues:
                          D5        D12       A5        A3        D10
   1                    0.67578   0.36166  -0.34160   0.25153   0.24822
                          D4        A8        R2        D9        R8
   1                   -0.21563   0.19429   0.15214  -0.12198  -0.11696
 RFO step:  Lambda0=2.038719193D-11 Lambda= 0.00000000D+00.
 Linear search not attempted -- option 19 set.
 Variable       Old X    -DE/DX   Delta X   Delta X   Delta X     New X
                                 (Linear)    (Quad)   (Total)
    R2        2.62348   0.00000   0.00000   0.00000   0.00000   2.62349
    R3        2.84593   0.00000   0.00000  -0.00000  -0.00000   2.84593
    R4        2.05332   0.00000   0.00000   0.00000   0.00000   2.05332
    R5        2.75547   0.00000   0.00000   0.00001   0.00001   2.75548
    R6        2.06500   0.00000   0.00000  -0.00000  -0.00000   2.06500
    R7        2.07040   0.00000   0.00000   0.00000   0.00000   2.07040
    R8        2.59078   0.00000   0.00000   0.00001   0.00001   2.59078
    R9        2.06546   0.00000   0.00000   0.00000   0.00000   2.06546
   R10        2.03877   0.00000   0.00000   0.00000   0.00000   2.03877
   R11        2.04171   0.00000   0.00000   0.00000   0.00000   2.04171
   R12        2.03502  -0.00000   0.00000   0.00000   0.00000   2.03502
   R13        2.04978   0.00000   0.00000   0.00000   0.00000   2.04978
    A3        2.15655   0.00000   0.00000  -0.00000  -0.00000   2.15654
    A4        2.07574   0.00000   0.00000   0.00000   0.00000   2.07574
    A5        1.80450   0.00000   0.00000   0.00001   0.00001   1.80451
    A6        1.95949   0.00000   0.00000  -0.00000  -0.00000   1.95948
    A7        1.88251  -0.00000   0.00000  -0.00000  -0.00000   1.88250
    A8        2.23368   0.00000   0.00000   0.00000   0.00000   2.23368
    A9        2.00048   0.00000   0.00000   0.00000   0.00000   2.00049
   A10        2.14427  -0.00000   0.00000  -0.00000  -0.00000   2.14427
   A11        2.07743  -0.00000   0.00000  -0.00001  -0.00001   2.07742
   A12        2.11121  -0.00000   0.00000  -0.00000  -0.00000   2.11120
   A13        2.11365  -0.00000   0.00000  -0.00000  -0.00000   2.11365
    D4       -3.11190  -0.00000   0.00000   0.00001   0.00001  -3.11189
    D5        0.86886   0.00000   0.00000   0.00000   0.00000   0.86886
    D6       -2.14951  -0.00000   0.00000  -0.00000  -0.00000  -2.14951
    D7        2.06606   0.00000   0.00000   0.00000   0.00000   2.06606
    D8       -0.53208  -0.00000   0.00000  -0.00001  -0.00001  -0.53209
    D9        3.10149  -0.00000   0.00000   0.00000   0.00000   3.10149
   D10       -1.96878  -0.00000   0.00000  -0.00002  -0.00002  -1.96879
   D11        3.12675  -0.00000   0.00000  -0.00000  -0.00000   3.12674
   D12       -0.60221  -0.00000   0.00000  -0.00000  -0.00000  -0.60222
   D13       -2.95299   0.00000   0.00000   0.00002   0.00002  -2.95297
         Item               Value     Threshold  Converged?
 Maximum Force            0.000005     0.000450     YES
 RMS     Force            0.000002     0.000300     YES
 Maximum Displacement     0.000018     0.001800     YES
 RMS     Displacement     0.000007     0.001200     YES
 Predicted change in Energy=-1.056319D-10
 Optimization completed.
    -- Stationary point found.
                       ----------------------------
                       !   Optimized Parameters   !
                       ! (Angstroms and Degrees)  !
 ----------------------                            ----------------------
 !      Name          Value   Derivative information (Atomic Units)     !
 ------------------------------------------------------------------------
 !       R2          1.3883   -DE/DX =    0.0                           !
 !       R3          1.506    -DE/DX =    0.0                           !
 !       R4          1.0866   -DE/DX =    0.0                           !
 !       R5          1.4581   -DE/DX =    0.0                           !
 !       R6          1.0927   -DE/DX =    0.0                           !
 !       R7          1.0956   -DE/DX =    0.0                           !
 !       R8          1.371    -DE/DX =    0.0                           !
 !       R9          1.093    -DE/DX =    0.0                           !
 !       R10         1.0789   -DE/DX =    0.0                           !
 !       R11         1.0804   -DE/DX =    0.0                           !
 !       R12         1.0769   -DE/DX =    0.0                           !
 !       R13         1.0847   -DE/DX =    0.0                           !
 !       A3        123.5609   -DE/DX =    0.0                           !
 !       A4        118.9312   -DE/DX =    0.0                           !
 !       A5        103.39     -DE/DX =    0.0                           !
 !       A6        112.2703   -DE/DX =    0.0                           !
 !       A7        107.8597   -DE/DX =    0.0                           !
 !       A8        127.9802   -DE/DX =    0.0                           !
 !       A9        114.6193   -DE/DX =    0.0                           !
 !       A10       122.8577   -DE/DX =    0.0                           !
 !       A11       119.0281   -DE/DX =    0.0                           !
 !       A12       120.9632   -DE/DX =    0.0                           !
 !       A13       121.1032   -DE/DX =    0.0                           !
 !       D4       -178.2989   -DE/DX =    0.0                           !
 !       D5         49.7819   -DE/DX =    0.0                           !
 !       D6       -123.1576   -DE/DX =    0.0                           !
 !       D7        118.3767   -DE/DX =    0.0                           !
 !       D8        -30.4859   -DE/DX =    0.0                           !
 !       D9        177.702    -DE/DX =    0.0                           !
 !       D10      -112.8026   -DE/DX =    0.0                           !
 !       D11       179.1494   -DE/DX =    0.0                           !
 !       D12       -34.5041   -DE/DX =    0.0                           !
 !       D13      -169.1938   -DE/DX =    0.0                           !
 ------------------------------------------------------------------------
 GradGradGradGradGradGradGradGradGradGradGradGradGradGradGradGradGradGrad

 ---------------------------------------------------------------------------------------------------
                            Z-MATRIX (ANGSTROMS AND DEGREES)
   CD    Cent   Atom    N1       Length/X        N2       Alpha/Y        N3        Beta/Z          J
 ---------------------------------------------------------------------------------------------------
      1      1  C 
      2      2  C        1   1.388288(     1)
      3      3  C        1   1.506004(     2)      2  123.561(    13)
      4      4  H        1   1.086570(     3)      2  118.931(    14)      3 -178.299(    24)      0
      5      5  C        3   1.458132(     4)      1  103.390(    15)      2   49.782(    25)      0
      6      6  H        3   1.092749(     5)      1  112.270(    16)      5 -123.158(    26)      0
      7      7  H        3   1.095607(     6)      1  107.860(    17)      5  118.377(    27)      0
      8      8  C        2   1.370980(     7)      1  127.980(    18)      3  -30.486(    28)      0
      9      9  H        2   1.092995(     8)      1  114.619(    19)      8  177.702(    29)      0
     10     10  H        5   1.078870(     9)      3  122.858(    20)      1 -112.803(    30)      0
     11     11  H        5   1.080425(    10)      3  119.028(    21)     10  179.149(    31)      0
     12     12  H        8   1.076888(    11)      2  120.963(    22)      1  -34.504(    32)      0
     13     13  H        8   1.084696(    12)      2  121.103(    23)     12 -169.194(    33)      0
 ---------------------------------------------------------------------------------------------------
                         Z-Matrix orientation:                         
 ---------------------------------------------------------------------
 Center     Atomic      Atomic             Coordinates (Angstroms)
 Number     Number       Type             X           Y           Z
 ---------------------------------------------------------------------
      1          6           0        0.000000    0.000000    0.000000
      2          6           0        0.000000    0.000000    1.388288
      3          6           0        1.254951    0.000000   -0.832554
      4          1           0       -0.950548    0.028230   -0.525637
      5          6           0        2.042674   -1.083152   -0.255993
      6          1           0        1.759979    0.968968   -0.820411
      7          1           0        0.970723   -0.213988   -1.868788
      8          6           0        0.931245   -0.548236    2.231974
      9          1           0       -0.835370    0.538026    1.843615
     10          1           0        2.967253   -0.916413    0.274396
     11          1           0        1.684691   -2.098363   -0.348250
     12          1           0        1.445766   -1.458148    1.973102
     13          1           0        1.050228   -0.185119    3.247136
 ---------------------------------------------------------------------
                    Distance matrix (angstroms):
                    1          2          3          4          5
     1  C    0.000000
     2  C    1.388288   0.000000
     3  C    1.506004   2.550890   0.000000
     4  H    1.086570   2.137159   2.226931   0.000000
     5  C    2.326213   2.837145   1.458132   3.204256   0.000000
     6  H    2.170138   2.985762   1.092749   2.884240   2.147017
     7  H    2.116710   3.405383   1.095607   2.356694   2.122647
     8  C    2.479816   1.370980   3.129965   3.387902   2.776938
     9  H    2.094334   1.092995   3.438138   2.426215   3.914040
    10  H    3.117643   3.299266   2.235426   4.108719   1.078870
    11  H    2.713410   3.202636   2.195987   3.390922   1.080425
    12  H    2.847730   2.135051   3.167698   3.767670   2.337901
    13  H    3.417768   2.143027   4.089016   4.275797   3.750110
                    6          7          8          9         10
     6  H    0.000000
     7  H    1.766749   0.000000
     8  C    3.507956   4.114550   0.000000
     9  H    3.744140   4.196360   2.109909   0.000000
    10  H    2.492142   3.012103   2.848332   4.363231   0.000000
    11  H    3.104372   2.524412   3.102922   4.255059   1.851934
    12  H    3.713938   4.066167   1.076888   3.033984   2.343928
    13  H    4.287260   5.116623   1.084696   2.459327   3.612057
                   11         12         13
    11  H    0.000000
    12  H    2.419841   0.000000
    13  H    4.121874   1.843968   0.000000
 Symmetry turned off by external request.
 Stoichiometry    C5H8
 Framework group  C1[X(C5H8)]
 Deg. of freedom    33
 Full point group                 C1      NOp   1
 Rotational constants (GHZ):           8.5045003           4.4861537           3.1908482
 1\1\GINC-BHC0026\FTS\RB3LYP\def2TZVP\C5H8\DHANAWAY\10-Jun-2022\1\\# Op
 t=(TS, CalcFC, noeigentest, Z-matrix, MaxStep=10) Field=read NoSymm B3
 LYP/Def2TZVP freq=noraman pop=none\\ts_zmat_initalOpt\\0,1\C\C,1,R2\C,
 1,R3,2,A3\H,1,R4,2,A4,3,D4,0\C,3,R5,1,A5,2,D5,0\H,3,R6,1,A6,5,D6,0\H,3
 ,R7,1,A7,5,D7,0\C,2,R8,1,A8,3,D8,0\H,2,R9,1,A9,8,D9,0\H,5,R10,3,A10,1,
 D10,0\H,5,R11,3,A11,10,D11,0\H,8,R12,2,A12,1,D12,0\H,8,R13,2,A13,12,D1
 3,0\\R2=1.38828773\R3=1.50600382\R4=1.08656974\R5=1.45813231\R6=1.0927
 4869\R7=1.09560749\R8=1.37097978\R9=1.09299503\R10=1.07886984\R11=1.08
 042461\R12=1.07688757\R13=1.08469611\A3=123.5609286\A4=118.93116797\A5
 =103.39002141\A6=112.27032029\A7=107.85965581\A8=127.98018815\A9=114.6
 1931129\A10=122.85766205\A11=119.02806754\A12=120.9632349\A13=121.1032
 4169\D4=-178.29889906\D5=49.78193835\D6=-123.15757971\D7=118.3766544\D
 8=-30.48586311\D9=177.70201426\D10=-112.80262834\D11=179.14935881\D12=
 -34.50414302\D13=-169.19375374\\Version=ES64L-G16RevA.03\HF=-195.27694
 78\RMSD=7.053e-09\RMSF=3.219e-05\Dipole=-0.1051137,0.0636621,-0.424998
 8\PG=C01 [X(C5H8)]\\@


 NEVER TEACH A PIG TO SING.
 IT WASTES YOUR TIME AND ANNOYS THE PIG.
     -- SEEN ON A GREETING CARD
 Job cpu time:       0 days  0 hours 31 minutes 52.3 seconds.
 Elapsed time:       0 days  0 hours  2 minutes 40.1 seconds.
 File lengths (MBytes):  RWF=     47 Int=      0 D2E=      0 Chk=     32 Scr=      1
 Normal termination of Gaussian 16 at Fri Jun 10 11:04:45 2022.
 Link1:  Proceeding to internal job step number  2.
 --------------------------------------------------------------------
 #N Geom=AllCheck Guess=TCheck SCRF=Check GenChk RB3LYP/def2TZVP Freq
 --------------------------------------------------------------------
 1/5=1,8=10,10=4,11=1,29=7,30=1,38=1,40=1/1,3;
 2/12=2,15=1,40=1/2;
 3/5=44,7=101,11=2,14=-4,25=1,30=1,70=2,71=2,74=-5,116=1,140=1/1,2,3;
 4/5=101/1;
 5/5=2,38=6,98=1/2;
 8/6=4,10=90,11=11/1;
 11/6=1,8=1,9=11,15=111,16=1,31=1/1,2,10;
 10/6=1,31=1/2;
 7/8=1,10=1,25=1,30=1/1,2,3,16;
 1/5=1,8=10,10=4,11=1,30=1/3;
 99//99;
 Structure from the checkpoint file:  "checkpoint.chk"
 -----------------
 ts_zmat_initalOpt
 -----------------
 Charge =  0 Multiplicity = 1
 Z-Matrix found in chk file.
 C
 C,1,R2
 C,1,R3,2,A3
 H,1,R4,2,A4,3,D4,0
 C,3,R5,1,A5,2,D5,0
 H,3,R6,1,A6,5,D6,0
 H,3,R7,1,A7,5,D7,0
 C,2,R8,1,A8,3,D8,0
 H,2,R9,1,A9,8,D9,0
 H,5,R10,3,A10,1,D10,0
 H,5,R11,3,A11,10,D11,0
 H,8,R12,2,A12,1,D12,0
 H,8,R13,2,A13,12,D13,0
      Variables:
 R2=1.38828773
 R3=1.50600382
 R4=1.08656974
 R5=1.45813231
 R6=1.09274869
 R7=1.09560749
 R8=1.37097978
 R9=1.09299503
 R10=1.07886984
 R11=1.08042461
 R12=1.07688757
 R13=1.08469611
 A3=123.5609286
 A4=118.93116797
 A5=103.39002141
 A6=112.27032029
 A7=107.85965581
 A8=127.98018815
 A9=114.61931129
 A10=122.85766205
 A11=119.02806754
 A12=120.9632349
 A13=121.10324169
 D4=-178.29889906
 D5=49.78193835
 D6=-123.15757971
 D7=118.3766544
 D8=-30.48586311
 D9=177.70201426
 D10=-112.80262834
 D11=179.14935881
 D12=-34.50414302
 D13=-169.19375374
 Recover connectivity data from disk.

 GradGradGradGradGradGradGradGradGradGradGradGradGradGradGradGradGradGrad
 Berny optimization.
 Initialization pass.
                       ----------------------------
                       !    Initial Parameters    !
                       ! (Angstroms and Degrees)  !
 ----------------------                            ----------------------
 !      Name          Value   Derivative information (Atomic Units)     !
 ------------------------------------------------------------------------
 !       R2          1.3883   calculate D2E/DX2 analytically            !
 !       R3          1.506    calculate D2E/DX2 analytically            !
 !       R4          1.0866   calculate D2E/DX2 analytically            !
 !       R5          1.4581   calculate D2E/DX2 analytically            !
 !       R6          1.0927   calculate D2E/DX2 analytically            !
 !       R7          1.0956   calculate D2E/DX2 analytically            !
 !       R8          1.371    calculate D2E/DX2 analytically            !
 !       R9          1.093    calculate D2E/DX2 analytically            !
 !       R10         1.0789   calculate D2E/DX2 analytically            !
 !       R11         1.0804   calculate D2E/DX2 analytically            !
 !       R12         1.0769   calculate D2E/DX2 analytically            !
 !       R13         1.0847   calculate D2E/DX2 analytically            !
 !       A3        123.5609   calculate D2E/DX2 analytically            !
 !       A4        118.9312   calculate D2E/DX2 analytically            !
 !       A5        103.39     calculate D2E/DX2 analytically            !
 !       A6        112.2703   calculate D2E/DX2 analytically            !
 !       A7        107.8597   calculate D2E/DX2 analytically            !
 !       A8        127.9802   calculate D2E/DX2 analytically            !
 !       A9        114.6193   calculate D2E/DX2 analytically            !
 !       A10       122.8577   calculate D2E/DX2 analytically            !
 !       A11       119.0281   calculate D2E/DX2 analytically            !
 !       A12       120.9632   calculate D2E/DX2 analytically            !
 !       A13       121.1032   calculate D2E/DX2 analytically            !
 !       D4       -178.2989   calculate D2E/DX2 analytically            !
 !       D5         49.7819   calculate D2E/DX2 analytically            !
 !       D6       -123.1576   calculate D2E/DX2 analytically            !
 !       D7        118.3767   calculate D2E/DX2 analytically            !
 !       D8        -30.4859   calculate D2E/DX2 analytically            !
 !       D9        177.702    calculate D2E/DX2 analytically            !
 !       D10      -112.8026   calculate D2E/DX2 analytically            !
 !       D11       179.1494   calculate D2E/DX2 analytically            !
 !       D12       -34.5041   calculate D2E/DX2 analytically            !
 !       D13      -169.1938   calculate D2E/DX2 analytically            !
 ------------------------------------------------------------------------
 Trust Radius=1.00D-01 FncErr=1.00D-07 GrdErr=1.00D-07 EigMax=2.50D+02 EigMin=1.00D-04
 Number of steps in this run=      2 maximum allowed number of steps=      2.
 Search for a saddle point of order  1.
 GradGradGradGradGradGradGradGradGradGradGradGradGradGradGradGradGradGrad

                          Input orientation:                          
 ---------------------------------------------------------------------
 Center     Atomic      Atomic             Coordinates (Angstroms)
 Number     Number       Type             X           Y           Z
 ---------------------------------------------------------------------
      1          6           0        0.000000    0.000000    0.000000
      2          6           0        0.000000    0.000000    1.388288
      3          6           0        1.254951    0.000000   -0.832554
      4          1           0       -0.950548    0.028230   -0.525637
      5          6           0        2.042674   -1.083152   -0.255993
      6          1           0        1.759979    0.968968   -0.820411
      7          1           0        0.970723   -0.213988   -1.868788
      8          6           0        0.931245   -0.548236    2.231974
      9          1           0       -0.835370    0.538026    1.843615
     10          1           0        2.967253   -0.916413    0.274396
     11          1           0        1.684691   -2.098363   -0.348250
     12          1           0        1.445766   -1.458148    1.973102
     13          1           0        1.050228   -0.185119    3.247136
 ---------------------------------------------------------------------
                    Distance matrix (angstroms):
                    1          2          3          4          5
     1  C    0.000000
     2  C    1.388288   0.000000
     3  C    1.506004   2.550890   0.000000
     4  H    1.086570   2.137159   2.226931   0.000000
     5  C    2.326213   2.837145   1.458132   3.204256   0.000000
     6  H    2.170138   2.985762   1.092749   2.884240   2.147017
     7  H    2.116710   3.405383   1.095607   2.356694   2.122647
     8  C    2.479816   1.370980   3.129965   3.387902   2.776938
     9  H    2.094334   1.092995   3.438138   2.426215   3.914040
    10  H    3.117643   3.299266   2.235426   4.108719   1.078870
    11  H    2.713410   3.202636   2.195987   3.390922   1.080425
    12  H    2.847730   2.135051   3.167698   3.767670   2.337901
    13  H    3.417768   2.143027   4.089016   4.275797   3.750110
                    6          7          8          9         10
     6  H    0.000000
     7  H    1.766749   0.000000
     8  C    3.507956   4.114550   0.000000
     9  H    3.744140   4.196360   2.109909   0.000000
    10  H    2.492142   3.012103   2.848332   4.363231   0.000000
    11  H    3.104372   2.524412   3.102922   4.255059   1.851934
    12  H    3.713938   4.066167   1.076888   3.033984   2.343928
    13  H    4.287260   5.116623   1.084696   2.459327   3.612057
                   11         12         13
    11  H    0.000000
    12  H    2.419841   0.000000
    13  H    4.121874   1.843968   0.000000
 Symmetry turned off by external request.
 Stoichiometry    C5H8
 Framework group  C1[X(C5H8)]
 Deg. of freedom    33
 Full point group                 C1      NOp   1
 Rotational constants (GHZ):           8.5045003           4.4861537           3.1908482
 Standard basis: def2TZVP (5D, 7F)
 The following finite field(s) will be applied:
 An electric field of              0.0012 -0.0001  0.0022
   203 basis functions,   319 primitive gaussians,   228 cartesian basis functions
    19 alpha electrons       19 beta electrons
       nuclear repulsion energy       162.0059032778 Hartrees.
 NAtoms=   13 NActive=   13 NUniq=   13 SFac= 1.00D+00 NAtFMM=   60 NAOKFM=F Big=F
 Integral buffers will be    131072 words long.
 Raffenetti 2 integral format.
 Two-electron integral symmetry is turned off.
 One-electron integrals computed using PRISM.
   1 Symmetry operations used in ECPInt.
 ECPInt:  NShTT=    3828 NPrTT=   11160 LenC2=    3812 LenP2D=    9471.
 LDataN:  DoStor=T MaxTD1= 6 Len=  172
 NBasis=   203 RedAO= T EigKep=  1.52D-04  NBF=   203
 NBsUse=   203 1.00D-06 EigRej= -1.00D+00 NBFU=   203
 The nuclear repulsion energy is now       162.1639419447 hartrees.
 Initial guess from the checkpoint file:  "checkpoint.chk"
 B after Tr=     0.000000    0.000000    0.000000
         Rot=    1.000000    0.000000    0.000000    0.000000 Ang=   0.00 deg.
 Requested convergence on RMS density matrix=1.00D-08 within 128 cycles.
 Requested convergence on MAX density matrix=1.00D-06.
 Requested convergence on             energy=1.00D-06.
 No special actions if energy rises.
 SCF Done:  E(RB3LYP) =  -195.276947831     A.U. after    1 cycles
            NFock=  1  Conv=0.26D-08     -V/T= 2.0056
 DoSCS=F DFT=T ScalE2(SS,OS)=  1.000000  1.000000
 Range of M.O.s used for correlation:     1   203
 NBasis=   203 NAE=    19 NBE=    19 NFC=     0 NFV=     0
 NROrb=    203 NOA=    19 NOB=    19 NVA=   184 NVB=   184

 **** Warning!!: The largest alpha MO coefficient is  0.19770909D+02

   1 Symmetry operations used in ECPInt.
 ECPInt:  NShTT=    3828 NPrTT=   11160 LenC2=    3812 LenP2D=    9471.
 LDataN:  DoStor=T MaxTD1= 7 Len=  274
 Symmetrizing basis deriv contribution to polar:
 IMax=3 JMax=2 DiffMx= 0.00D+00
 G2DrvN: will do    14 centers at a time, making    1 passes.
 Calling FoFCou, ICntrl=  3107 FMM=F I1Cent=   0 AccDes= 0.00D+00.
 End of G2Drv F.D. properties file   721 does not exist.
 End of G2Drv F.D. properties file   722 does not exist.
 End of G2Drv F.D. properties file   788 does not exist.
          IDoAtm=1111111111111
          Differentiating once with respect to electric field.
                with respect to dipole field.
          Differentiating once with respect to nuclear coordinates.
 Keep R1 ints in memory in canonical form, NReq=227048987.
          There are    42 degrees of freedom in the 1st order CPHF.  IDoFFX=6 NUNeed=     3.
     39 vectors produced by pass  0 Test12= 8.32D-15 2.38D-09 XBig12= 2.38D+02 1.35D+01.
 AX will form    39 AO Fock derivatives at one time.
     39 vectors produced by pass  1 Test12= 8.32D-15 2.38D-09 XBig12= 6.31D+01 1.94D+00.
     39 vectors produced by pass  2 Test12= 8.32D-15 2.38D-09 XBig12= 8.05D-01 1.11D-01.
     39 vectors produced by pass  3 Test12= 8.32D-15 2.38D-09 XBig12= 2.43D-03 9.47D-03.
     39 vectors produced by pass  4 Test12= 8.32D-15 2.38D-09 XBig12= 3.30D-06 2.46D-04.
     26 vectors produced by pass  5 Test12= 8.32D-15 2.38D-09 XBig12= 3.26D-09 6.87D-06.
      6 vectors produced by pass  6 Test12= 8.32D-15 2.38D-09 XBig12= 3.96D-12 2.44D-07.
      2 vectors produced by pass  7 Test12= 8.32D-15 2.38D-09 XBig12= 4.77D-15 7.31D-09.
 InvSVY:  IOpt=1 It=  1 EMax= 1.60D-14
 Solved reduced A of dimension   229 with    42 vectors.
 Isotropic polarizability for W=    0.000000       74.67 Bohr**3.
 End of Minotr F.D. properties file   721 does not exist.
 End of Minotr F.D. properties file   722 does not exist.
 End of Minotr F.D. properties file   788 does not exist.
   1 Symmetry operations used in ECPInt.
 ECPInt:  NShTT=    3828 NPrTT=   11160 LenC2=    3812 LenP2D=    9471.
 LDataN:  DoStor=T MaxTD1= 8 Len=  415
 Calling FoFJK, ICntrl=    100127 FMM=F ISym2X=0 I1Cent= 0 IOpClX= 0 NMat=1 NMatS=1 NMatT=0.
 Full mass-weighted force constant matrix:
 Low frequencies --- -421.3483   -2.6243   -0.0010   -0.0008   -0.0007    8.3965
 Low frequencies ---   10.9459  220.8810  258.9925
 ******    1 imaginary frequencies (negative Signs) ****** 
 Diagonal vibrational polarizability:
        3.9859050       4.7622562       3.2934330
 Harmonic frequencies (cm**-1), IR intensities (KM/Mole), Raman scattering
 activities (A**4/AMU), depolarization ratios for plane and unpolarized
 incident light, reduced masses (AMU), force constants (mDyne/A),
 and normal coordinates:
                      1                      2                      3
                      A                      A                      A
 Frequencies --   -421.3483               220.8807               258.9921
 Red. masses --      1.9580                 2.2018                 2.3100
 Frc consts  --      0.2048                 0.0633                 0.0913
 IR Inten    --      0.0664                 0.5439                 1.3735
  Atom  AN      X      Y      Z        X      Y      Z        X      Y      Z
     1   6    -0.09   0.12   0.00    -0.05  -0.09  -0.03     0.01  -0.09  -0.03
     2   6    -0.05  -0.02  -0.05    -0.05  -0.05  -0.05     0.10   0.09  -0.01
     3   6    -0.04  -0.09   0.07     0.05   0.09   0.13    -0.02   0.02  -0.07
     4   1    -0.07   0.52  -0.01    -0.01  -0.12  -0.10    -0.02  -0.29   0.01
     5   6     0.08   0.03   0.12    -0.11  -0.07   0.06    -0.11   0.11   0.19
     6   1    -0.09  -0.06  -0.07     0.09   0.06   0.53    -0.08   0.06  -0.16
     7   1    -0.01  -0.21   0.07     0.26   0.39   0.02     0.02  -0.14  -0.04
     8   6     0.08  -0.05  -0.12     0.13   0.10  -0.12     0.03  -0.12  -0.09
     9   1    -0.05  -0.10   0.04    -0.06  -0.11  -0.01     0.25   0.29   0.02
    10   1     0.31   0.07  -0.29    -0.10  -0.25   0.10    -0.28   0.20   0.46
    11   1     0.07   0.02   0.32    -0.20  -0.02  -0.15     0.07   0.07   0.00
    12   1    -0.25  -0.27   0.01     0.01   0.01  -0.03    -0.30  -0.30  -0.08
    13   1     0.30   0.09  -0.19     0.30   0.25  -0.20     0.19  -0.17  -0.08
                      4                      5                      6
                      A                      A                      A
 Frequencies --    373.7208               545.8267               584.3090
 Red. masses --      2.2762                 1.2812                 1.3121
 Frc consts  --      0.1873                 0.2249                 0.2639
 IR Inten    --      6.5713                 7.2420                 4.1041
  Atom  AN      X      Y      Z        X      Y      Z        X      Y      Z
     1   6    -0.07  -0.13   0.03     0.00  -0.03  -0.02    -0.02  -0.05  -0.06
     2   6    -0.00   0.18   0.03     0.04  -0.07  -0.05     0.11   0.01  -0.05
     3   6    -0.04  -0.03   0.11    -0.01   0.02  -0.02    -0.05   0.01   0.01
     4   1    -0.06  -0.06   0.01     0.00   0.33   0.00    -0.05  -0.03   0.01
     5   6     0.16  -0.03  -0.11    -0.03   0.02  -0.02    -0.02   0.03   0.00
     6   1    -0.13   0.02   0.33    -0.07   0.06  -0.01    -0.03  -0.00   0.29
     7   1     0.08   0.18   0.03     0.00   0.01  -0.02     0.12   0.27  -0.09
     8   6    -0.08  -0.02  -0.04     0.00   0.01   0.11    -0.02  -0.03   0.05
     9   1     0.18   0.47   0.02     0.10   0.08  -0.11     0.15   0.09  -0.05
    10   1     0.17   0.01  -0.15    -0.04  -0.01   0.01     0.19   0.04  -0.35
    11   1     0.33  -0.08  -0.29     0.12  -0.00  -0.34    -0.34   0.08   0.63
    12   1    -0.36  -0.16  -0.13    -0.33  -0.31   0.57     0.06  -0.03   0.16
    13   1     0.16  -0.05  -0.06     0.04   0.41  -0.04    -0.20  -0.01   0.06
                      7                      8                      9
                      A                      A                      A
 Frequencies --    650.6650               707.4727               761.4201
 Red. masses --      1.4413                 1.3953                 1.2506
 Frc consts  --      0.3595                 0.4115                 0.4272
 IR Inten    --     19.1522                32.2926                49.7681
  Atom  AN      X      Y      Z        X      Y      Z        X      Y      Z
     1   6    -0.10   0.07  -0.05    -0.04  -0.01  -0.06     0.05  -0.07   0.00
     2   6     0.07  -0.03  -0.04     0.09   0.00  -0.04    -0.04  -0.03   0.02
     3   6    -0.06  -0.04   0.04    -0.02   0.00   0.07     0.00   0.04   0.02
     4   1    -0.12   0.25   0.01    -0.05   0.19  -0.03     0.11   0.31  -0.08
     5   6     0.07  -0.04  -0.03    -0.06   0.02   0.09     0.03   0.01  -0.05
     6   1    -0.02  -0.05   0.20    -0.12   0.06  -0.09    -0.05   0.07  -0.20
     7   1     0.07   0.10  -0.02     0.08  -0.21   0.08    -0.11  -0.14   0.08
     8   6     0.03  -0.01  -0.00    -0.04  -0.03   0.02    -0.06  -0.04  -0.00
     9   1     0.16   0.05   0.05     0.16   0.09  -0.01     0.15   0.33  -0.05
    10   1    -0.37   0.21   0.66     0.20  -0.16  -0.31    -0.10  -0.09   0.22
    11   1     0.17  -0.09   0.09     0.16  -0.00  -0.48    -0.33   0.11   0.28
    12   1     0.27   0.12   0.04     0.49   0.32  -0.19     0.22   0.16  -0.14
    13   1    -0.20  -0.02   0.03    -0.09   0.03   0.00     0.39   0.31  -0.18
                     10                     11                     12
                      A                      A                      A
 Frequencies --    776.1368               827.5774               898.4147
 Red. masses --      1.3706                 1.4983                 1.4712
 Frc consts  --      0.4865                 0.6046                 0.6996
 IR Inten    --     28.2030                 7.7118                 3.8306
  Atom  AN      X      Y      Z        X      Y      Z        X      Y      Z
     1   6    -0.01   0.07  -0.01     0.13  -0.11   0.04    -0.01   0.01  -0.00
     2   6    -0.03  -0.02   0.04    -0.02   0.02  -0.01    -0.09  -0.12   0.07
     3   6     0.02  -0.04  -0.10    -0.06  -0.02  -0.03     0.04  -0.01  -0.03
     4   1    -0.04  -0.17   0.02     0.17   0.71   0.04     0.03   0.04  -0.08
     5   6    -0.03  -0.01   0.03    -0.06   0.00   0.03    -0.02   0.01   0.02
     6   1     0.17  -0.12   0.27    -0.00  -0.05   0.21     0.10  -0.04  -0.00
     7   1     0.12   0.31  -0.19    -0.06   0.22  -0.08     0.03   0.02  -0.03
     8   6    -0.05  -0.06   0.05     0.01   0.04  -0.03     0.05   0.06  -0.06
     9   1     0.04   0.09   0.04    -0.16  -0.11  -0.13     0.45   0.70   0.09
    10   1     0.02   0.30  -0.15    -0.08   0.30  -0.05     0.07   0.09  -0.17
    11   1     0.34  -0.13   0.03     0.24  -0.10   0.02     0.08  -0.02   0.01
    12   1     0.20   0.12  -0.10     0.01   0.09  -0.18    -0.01  -0.01   0.08
    13   1     0.47   0.34  -0.15    -0.08  -0.22   0.07    -0.36  -0.20   0.08
                     13                     14                     15
                      A                      A                      A
 Frequencies --    929.9245              1030.4738              1063.3830
 Red. masses --      1.8770                 1.5597                 1.6660
 Frc consts  --      0.9563                 0.9758                 1.1100
 IR Inten    --      2.7969                 0.0733                13.6843
  Atom  AN      X      Y      Z        X      Y      Z        X      Y      Z
     1   6     0.14   0.06   0.05     0.00   0.04  -0.09    -0.11  -0.08  -0.04
     2   6     0.04  -0.03  -0.07     0.02  -0.08  -0.05     0.00   0.07   0.03
     3   6    -0.08  -0.00   0.15    -0.03  -0.00   0.08     0.12   0.04   0.07
     4   1     0.15  -0.44   0.02     0.02  -0.11  -0.13     0.07   0.16  -0.34
     5   6    -0.04  -0.02  -0.03    -0.03   0.00  -0.03    -0.08   0.01  -0.07
     6   1     0.07  -0.08  -0.03     0.04  -0.04  -0.03     0.46  -0.14  -0.23
     7   1    -0.47   0.03   0.26    -0.05  -0.09   0.11    -0.12  -0.21   0.17
     8   6    -0.05  -0.01  -0.10     0.02   0.06   0.13     0.02  -0.03   0.02
     9   1     0.09   0.08  -0.12    -0.01   0.16  -0.38    -0.04  -0.17   0.24
    10   1    -0.05   0.30  -0.11    -0.05   0.15  -0.03    -0.11   0.43  -0.16
    11   1     0.24  -0.12   0.06     0.06  -0.03   0.05     0.18  -0.10   0.21
    12   1     0.05  -0.03   0.16    -0.32   0.01  -0.40     0.06  -0.05   0.14
    13   1    -0.17   0.31  -0.20     0.46  -0.40   0.24    -0.03   0.02   0.01
                     16                     17                     18
                      A                      A                      A
 Frequencies --   1129.2250              1153.9227              1220.7821
 Red. masses --      2.2314                 1.9160                 1.2455
 Frc consts  --      1.6765                 1.5032                 1.0936
 IR Inten    --     15.8401                 0.0831                 5.1324
  Atom  AN      X      Y      Z        X      Y      Z        X      Y      Z
     1   6    -0.07  -0.04   0.02    -0.07  -0.03   0.14     0.05   0.01  -0.00
     2   6     0.05  -0.04  -0.03     0.09  -0.07  -0.05    -0.01  -0.01   0.02
     3   6     0.00   0.21  -0.08     0.13  -0.06   0.00    -0.06   0.08   0.03
     4   1    -0.21   0.07   0.27    -0.35   0.09   0.64    -0.10  -0.04   0.26
     5   6     0.07  -0.18   0.10    -0.04   0.08  -0.05    -0.03  -0.06  -0.04
     6   1     0.10   0.17  -0.35     0.30  -0.16   0.06    -0.03   0.07  -0.19
     7   1    -0.47   0.25   0.04     0.06  -0.12   0.03     0.78  -0.35  -0.12
     8   6    -0.03   0.04  -0.00    -0.08   0.05  -0.05    -0.01   0.01  -0.02
     9   1     0.07  -0.00  -0.02     0.02   0.03  -0.28    -0.02  -0.02   0.02
    10   1     0.15  -0.09  -0.03    -0.07   0.10   0.00    -0.04   0.17  -0.07
    11   1     0.32  -0.29   0.24    -0.13   0.12  -0.01     0.16  -0.15   0.16
    12   1    -0.12   0.03  -0.16    -0.15   0.07  -0.25    -0.04  -0.02   0.03
    13   1     0.00  -0.03   0.01    -0.07   0.07  -0.08    -0.01   0.05  -0.04
                     19                     20                     21
                      A                      A                      A
 Frequencies --   1266.3841              1306.3398              1400.5928
 Red. masses --      1.2629                 1.3033                 1.3594
 Frc consts  --      1.1933                 1.3104                 1.5712
 IR Inten    --     16.9983                 6.4434                 3.2929
  Atom  AN      X      Y      Z        X      Y      Z        X      Y      Z
     1   6     0.03  -0.00  -0.02     0.01  -0.02  -0.01     0.07  -0.02  -0.13
     2   6     0.06  -0.06  -0.00    -0.01   0.00   0.01    -0.08   0.03  -0.03
     3   6    -0.03  -0.02   0.00    -0.14   0.03  -0.00     0.02  -0.02   0.04
     4   1     0.11   0.03  -0.14     0.01   0.00  -0.01    -0.35   0.02   0.61
     5   6     0.00   0.02  -0.00     0.05   0.04   0.03     0.01   0.00   0.00
     6   1     0.02  -0.04   0.02     0.79  -0.45  -0.09     0.05  -0.03  -0.05
     7   1     0.04   0.02  -0.02     0.08   0.03  -0.06    -0.19   0.10   0.07
     8   6    -0.08   0.08  -0.00     0.01  -0.01   0.00    -0.00   0.01   0.01
     9   1     0.34  -0.27   0.74    -0.03   0.03  -0.07     0.10  -0.02   0.35
    10   1     0.00  -0.02   0.01     0.09  -0.27   0.08    -0.01   0.14  -0.02
    11   1    -0.04   0.03  -0.02    -0.04   0.08  -0.13    -0.13   0.07  -0.11
    12   1    -0.33   0.03  -0.30     0.02  -0.01   0.03     0.14  -0.01   0.30
    13   1     0.03   0.08  -0.03    -0.01   0.01   0.00     0.25  -0.24   0.08
                     22                     23                     24
                      A                      A                      A
 Frequencies --   1423.9928              1481.8013              1497.4662
 Red. masses --      1.1095                 1.2537                 1.4620
 Frc consts  --      1.3255                 1.6219                 1.9316
 IR Inten    --     11.2799                 6.4780                 2.0165
  Atom  AN      X      Y      Z        X      Y      Z        X      Y      Z
     1   6     0.01   0.00  -0.00     0.01   0.00  -0.06    -0.03   0.00   0.12
     2   6    -0.01   0.00  -0.02    -0.00   0.00   0.06     0.02  -0.01  -0.08
     3   6    -0.01   0.06  -0.06    -0.02   0.03  -0.01    -0.02   0.03  -0.03
     4   1    -0.01  -0.00   0.04    -0.06   0.01   0.05     0.18  -0.04  -0.24
     5   6     0.00   0.00  -0.01     0.05  -0.07   0.04     0.05  -0.07   0.03
     6   1     0.07  -0.01   0.67     0.05  -0.01   0.14     0.05  -0.00  -0.00
     7   1    -0.20  -0.64   0.15    -0.09  -0.13   0.04     0.12  -0.05  -0.05
     8   6    -0.00   0.00   0.00     0.05  -0.03   0.02    -0.06   0.04  -0.04
     9   1     0.04   0.00   0.07    -0.08   0.01  -0.08     0.10   0.00   0.02
    10   1     0.02  -0.13   0.01     0.00   0.54  -0.08     0.01   0.44  -0.07
    11   1     0.12  -0.05   0.09    -0.45   0.14  -0.29    -0.36   0.10  -0.24
    12   1     0.04   0.00   0.06    -0.15  -0.03  -0.32     0.18   0.05   0.38
    13   1     0.06  -0.06   0.02    -0.27   0.31  -0.06     0.33  -0.38   0.07
                     25                     26                     27
                      A                      A                      A
 Frequencies --   1591.7891              3011.0640              3056.4139
 Red. masses --      4.0755                 1.0581                 1.0999
 Frc consts  --      6.0842                 5.6522                 6.0539
 IR Inten    --     18.2110                18.9110                12.4292
  Atom  AN      X      Y      Z        X      Y      Z        X      Y      Z
     1   6    -0.01   0.02  -0.18     0.00  -0.00   0.00     0.01  -0.00   0.00
     2   6     0.19  -0.08   0.36     0.00  -0.00   0.00    -0.02   0.01   0.01
     3   6    -0.01  -0.02   0.01     0.00   0.03  -0.06    -0.04  -0.07  -0.04
     4   1    -0.08   0.11  -0.09    -0.05   0.01  -0.03    -0.09   0.00  -0.05
     5   6     0.01   0.01   0.01     0.00  -0.00   0.00     0.00   0.00   0.00
     6   1    -0.04   0.01   0.10    -0.26  -0.50  -0.03     0.36   0.70   0.01
     7   1    -0.12  -0.02   0.03     0.22   0.17   0.77     0.13   0.09   0.50
     8   6    -0.17   0.10  -0.19    -0.00   0.00  -0.00    -0.00  -0.00  -0.00
     9   1    -0.29  -0.18  -0.42    -0.01   0.01   0.01     0.22  -0.14  -0.12
    10   1     0.04  -0.02  -0.02    -0.00  -0.00  -0.01    -0.03  -0.01  -0.02
    11   1     0.00   0.01  -0.01     0.00   0.01   0.00    -0.01  -0.03  -0.00
    12   1    -0.03   0.01   0.48    -0.00   0.00   0.00     0.00  -0.01  -0.00
    13   1     0.27  -0.23  -0.14    -0.00  -0.00  -0.00     0.00   0.01   0.03
                     28                     29                     30
                      A                      A                      A
 Frequencies --   3060.5720              3135.3484              3139.5880
 Red. masses --      1.0846                 1.0818                 1.0701
 Frc consts  --      5.9858                 6.2659                 6.2149
 IR Inten    --     17.2746                23.0969                 4.2214
  Atom  AN      X      Y      Z        X      Y      Z        X      Y      Z
     1   6     0.00   0.00   0.00    -0.07   0.00  -0.04     0.03  -0.00   0.02
     2   6    -0.06   0.04   0.03    -0.00   0.00   0.01     0.01  -0.01  -0.00
     3   6     0.01   0.02   0.01    -0.00  -0.00  -0.01     0.00   0.00   0.00
     4   1    -0.07  -0.00  -0.03     0.77  -0.02   0.44    -0.37   0.02  -0.21
     5   6    -0.00  -0.00  -0.00     0.00   0.00   0.00     0.00  -0.00   0.00
     6   1    -0.11  -0.22  -0.00     0.01   0.02  -0.00    -0.01  -0.01   0.00
     7   1    -0.04  -0.03  -0.15     0.02   0.02   0.07    -0.01  -0.01  -0.04
     8   6    -0.00  -0.00  -0.00    -0.01   0.00  -0.03    -0.02   0.00  -0.06
     9   1     0.72  -0.46  -0.40     0.04  -0.03  -0.03    -0.08   0.05   0.04
    10   1     0.01   0.00   0.01     0.01   0.00   0.01    -0.01  -0.00  -0.00
    11   1     0.00   0.01   0.00    -0.01  -0.02  -0.00     0.00   0.01   0.00
    12   1    -0.00  -0.00   0.00     0.09  -0.16  -0.05     0.16  -0.29  -0.10
    13   1     0.01   0.03   0.07     0.04   0.14   0.37     0.08   0.28   0.77
                     31                     32                     33
                      A                      A                      A
 Frequencies --   3165.8292              3256.9871              3269.1211
 Red. masses --      1.0514                 1.1047                 1.1186
 Frc consts  --      6.2087                 6.9045                 7.0434
 IR Inten    --      4.1176                10.1372                 2.8312
  Atom  AN      X      Y      Z        X      Y      Z        X      Y      Z
     1   6    -0.00   0.00  -0.00    -0.00   0.00  -0.00    -0.00   0.00   0.00
     2   6    -0.00   0.00   0.00     0.00  -0.00  -0.00    -0.00   0.00  -0.00
     3   6    -0.00   0.00  -0.00    -0.00  -0.00  -0.00    -0.00  -0.00  -0.00
     4   1     0.02  -0.00   0.01     0.02  -0.00   0.01     0.00   0.00   0.00
     5   6     0.03  -0.05   0.02    -0.01  -0.01  -0.00    -0.07  -0.06  -0.04
     6   1     0.01   0.01  -0.00     0.00   0.01  -0.00     0.01   0.03   0.00
     7   1     0.00  -0.00  -0.00     0.00  -0.00   0.01     0.01   0.00   0.03
     8   6    -0.00   0.00   0.00     0.03  -0.08  -0.04    -0.00   0.01   0.00
     9   1     0.00  -0.00  -0.00    -0.02   0.02   0.01     0.00  -0.00  -0.00
    10   1    -0.56  -0.11  -0.32     0.06   0.01   0.03     0.64   0.11   0.37
    11   1     0.26   0.70   0.07     0.03   0.07   0.00     0.21   0.61   0.05
    12   1     0.00  -0.01  -0.00    -0.44   0.78   0.22     0.05  -0.09  -0.03
    13   1    -0.00  -0.00  -0.01     0.05   0.12   0.34    -0.00  -0.01  -0.03

 -------------------
 - Thermochemistry -
 -------------------
 Temperature   298.150 Kelvin.  Pressure   1.00000 Atm.
 Atom     1 has atomic number  6 and mass  12.00000
 Atom     2 has atomic number  6 and mass  12.00000
 Atom     3 has atomic number  6 and mass  12.00000
 Atom     4 has atomic number  1 and mass   1.00783
 Atom     5 has atomic number  6 and mass  12.00000
 Atom     6 has atomic number  1 and mass   1.00783
 Atom     7 has atomic number  1 and mass   1.00783
 Atom     8 has atomic number  6 and mass  12.00000
 Atom     9 has atomic number  1 and mass   1.00783
 Atom    10 has atomic number  1 and mass   1.00783
 Atom    11 has atomic number  1 and mass   1.00783
 Atom    12 has atomic number  1 and mass   1.00783
 Atom    13 has atomic number  1 and mass   1.00783
 Molecular mass:    68.06260 amu.
 Principal axes and moments of inertia in atomic units:
                           1         2         3
     Eigenvalues --   212.21014 402.29144 565.59921
           X           -0.36945   0.79198   0.48609
           Y            0.06244  -0.50076   0.86333
           Z            0.92715   0.34931   0.13556
 This molecule is an asymmetric top.
[...]
   A13        2.11365  -0.00000   0.00000  -0.00000  -0.00000   2.11365
    D4       -3.11190  -0.00000   0.00000   0.00002   0.00002  -3.11189
    D5        0.86886   0.00000   0.00000   0.00000   0.00000   0.86886
    D6       -2.14951  -0.00000   0.00000  -0.00000  -0.00000  -2.14951
    D7        2.06606   0.00000   0.00000   0.00000   0.00000   2.06606
    D8       -0.53208  -0.00000   0.00000  -0.00001  -0.00001  -0.53209
    D9        3.10149  -0.00000   0.00000   0.00000   0.00000   3.10149
   D10       -1.96878  -0.00000   0.00000  -0.00002  -0.00002  -1.96879
   D11        3.12675  -0.00000   0.00000  -0.00000  -0.00000   3.12674
   D12       -0.60221  -0.00000   0.00000  -0.00001  -0.00001  -0.60222
   D13       -2.95299   0.00000   0.00000   0.00002   0.00002  -2.95297
         Item               Value     Threshold  Converged?
 Maximum Force            0.000005     0.000450     YES
 RMS     Force            0.000002     0.000300     YES
 Maximum Displacement     0.000018     0.001800     YES
 RMS     Displacement     0.000007     0.001200     YES
 Predicted change in Energy=-1.067730D-10
 Optimization completed.
    -- Stationary point found.
                       ----------------------------
                       !   Optimized Parameters   !
                       ! (Angstroms and Degrees)  !
 ----------------------                            ----------------------
 !      Name          Value   Derivative information (Atomic Units)     !
 ------------------------------------------------------------------------
 !       R2          1.3883   -DE/DX =    0.0                           !
 !       R3          1.506    -DE/DX =    0.0                           !
 !       R4          1.0866   -DE/DX =    0.0                           !
 !       R5          1.4581   -DE/DX =    0.0                           !
 !       R6          1.0927   -DE/DX =    0.0                           !
 !       R7          1.0956   -DE/DX =    0.0                           !
 !       R8          1.371    -DE/DX =    0.0                           !
 !       R9          1.093    -DE/DX =    0.0                           !
 !       R10         1.0789   -DE/DX =    0.0                           !
 !       R11         1.0804   -DE/DX =    0.0                           !
 !       R12         1.0769   -DE/DX =    0.0                           !
 !       R13         1.0847   -DE/DX =    0.0                           !
 !       A3        123.5609   -DE/DX =    0.0                           !
 !       A4        118.9312   -DE/DX =    0.0                           !
 !       A5        103.39     -DE/DX =    0.0                           !
 !       A6        112.2703   -DE/DX =    0.0                           !
 !       A7        107.8597   -DE/DX =    0.0                           !
 !       A8        127.9802   -DE/DX =    0.0                           !
 !       A9        114.6193   -DE/DX =    0.0                           !
 !       A10       122.8577   -DE/DX =    0.0                           !
 !       A11       119.0281   -DE/DX =    0.0                           !
 !       A12       120.9632   -DE/DX =    0.0                           !
 !       A13       121.1032   -DE/DX =    0.0                           !
 !       D4       -178.2989   -DE/DX =    0.0                           !
 !       D5         49.7819   -DE/DX =    0.0                           !
 !       D6       -123.1576   -DE/DX =    0.0                           !
 !       D7        118.3767   -DE/DX =    0.0                           !
 !       D8        -30.4859   -DE/DX =    0.0                           !
 !       D9        177.702    -DE/DX =    0.0                           !
 !       D10      -112.8026   -DE/DX =    0.0                           !
 !       D11       179.1494   -DE/DX =    0.0                           !
 !       D12       -34.5041   -DE/DX =    0.0                           !
 !       D13      -169.1938   -DE/DX =    0.0                           !
 ------------------------------------------------------------------------
 GradGradGradGradGradGradGradGradGradGradGradGradGradGradGradGradGradGrad


 ----------------------------------------------------------------------

 Electric dipole moment (input orientation):
 (Debye = 10**-18 statcoulomb cm , SI units = C m)
                  (au)            (Debye)         (10**-30 SI)
   Tot        0.442411D+00      0.112450D+01      0.375091D+01
   x         -0.105114D+00     -0.267173D+00     -0.891193D+00
   y          0.636620D-01      0.161813D+00      0.539749D+00
   z         -0.425000D+00     -0.108024D+01     -0.360330D+01

 Dipole polarizability, Alpha (input orientation).
 (esu units = cm**3 , SI units = C**2 m**2 J**-1)
 Alpha(0;0):
               (au)            (10**-24 esu)      (10**-40 SI)
   iso        0.746740D+02      0.110655D+02      0.123121D+02
   aniso      0.488946D+02      0.724544D+01      0.806164D+01
   xx         0.757065D+02      0.112185D+02      0.124823D+02
   yx        -0.156726D+02     -0.232244D+01     -0.258406D+01
   yy         0.545192D+02      0.807891D+01      0.898900D+01
   zx        -0.120735D+02     -0.178911D+01     -0.199065D+01
   zy         0.436184D+01      0.646358D+00      0.719170D+00
   zz         0.937962D+02      0.138992D+02      0.154649D+02

 ----------------------------------------------------------------------

 Dipole orientation:
     6          0.00000000         -0.00000000          0.00000000
     6         -0.62332310         -0.37751424         -2.52024154
     6          2.67703857          0.18504091          0.94792885
     1         -1.50762329          0.12147514          1.38868127
     6          3.82819998          2.02754365         -0.74695461
     1          3.63040399         -1.64664844          0.96262289
     1          2.61359526          0.87629640          2.89849006
     6          0.68893731          0.38745109         -4.61903227
     1         -2.34319883         -1.47978693         -2.82545072
     1          5.29245247          1.54108541         -2.07958365
     1          3.17915600          3.96263763         -0.69480996
     1          1.71949353          2.14221562         -4.62753079
     1          0.46348028         -0.57146550         -6.41659737

 Electric dipole moment (dipole orientation):
 (Debye = 10**-18 statcoulomb cm , SI units = C m)
                  (au)            (Debye)         (10**-30 SI)
   Tot        0.442411D+00      0.112450D+01      0.375091D+01
   x          0.000000D+00      0.000000D+00      0.000000D+00
   y          0.000000D+00      0.000000D+00      0.000000D+00
   z          0.442411D+00      0.112450D+01      0.375091D+01

 Dipole polarizability, Alpha (dipole orientation).
 (esu units = cm**3 , SI units = C**2 m**2 J**-1)
 Alpha(0;0):
               (au)            (10**-24 esu)      (10**-40 SI)
   iso        0.746740D+02      0.110655D+02      0.123121D+02
   aniso      0.488946D+02      0.724544D+01      0.806164D+01
   xx         0.817262D+02      0.121106D+02      0.134748D+02
   yx         0.187012D+02      0.277123D+01      0.308341D+01
   yy         0.559796D+02      0.829532D+01      0.922979D+01
   zx         0.123110D+02      0.182430D+01      0.202981D+01
   zy         0.531276D+01      0.787270D+00      0.875956D+00
   zz         0.863160D+02      0.127907D+02      0.142316D+02

 ----------------------------------------------------------------------
 1\1\GINC-BHC0026\Freq\RB3LYP\def2TZVP\C5H8\DHANAWAY\10-Jun-2022\1\\#N 
 Geom=AllCheck Guess=TCheck SCRF=Check GenChk RB3LYP/def2TZVP Freq\\ts_
 zmat_initalOpt\\0,1\C\C,1,R2\C,1,R3,2,A3\H,1,R4,2,A4,3,D4,0\C,3,R5,1,A
 5,2,D5,0\H,3,R6,1,A6,5,D6,0\H,3,R7,1,A7,5,D7,0\C,2,R8,1,A8,3,D8,0\H,2,
 R9,1,A9,8,D9,0\H,5,R10,3,A10,1,D10,0\H,5,R11,3,A11,10,D11,0\H,8,R12,2,
 A12,1,D12,0\H,8,R13,2,A13,12,D13,0\\R2=1.38828773\R3=1.50600382\R4=1.0
 8656974\R5=1.45813231\R6=1.09274869\R7=1.09560749\R8=1.37097978\R9=1.0
 9299503\R10=1.07886984\R11=1.08042461\R12=1.07688757\R13=1.08469611\A3
 =123.5609286\A4=118.93116797\A5=103.39002141\A6=112.27032029\A7=107.85
 965581\A8=127.98018815\A9=114.61931129\A10=122.85766205\A11=119.028067
 54\A12=120.9632349\A13=121.10324169\D4=-178.29889906\D5=49.78193835\D6
 =-123.15757971\D7=118.3766544\D8=-30.48586311\D9=177.70201426\D10=-112
 .80262834\D11=179.14935881\D12=-34.50414302\D13=-169.19375374\\Version
 =ES64L-G16RevA.03\HF=-195.2769478\RMSD=2.550e-09\RMSF=3.219e-05\ZeroPo
 int=0.1097995\Thermal=0.1150956\Dipole=-0.105114,0.063662,-0.4250005\D
 ipoleDeriv=0.1127422,0.0628471,0.1635566,-0.0748639,-0.2325027,0.07531
 82,-0.0485392,0.0102834,-0.166843,-0.0543986,-0.1078064,0.1464091,-0.1
 368068,-0.1046408,-0.0813856,0.0689198,-0.0190501,0.2660735,0.08065,-0
 .0217168,-0.3160197,0.0591948,0.1451904,0.0615904,-0.0349077,0.0310494
 ,0.0657923,-0.049639,0.013052,-0.1121507,0.0395081,0.1398351,-0.010365
 9,-0.0615032,0.0016865,0.0153746,-0.2306699,0.1484941,0.4401015,0.2043
 014,-0.034628,-0.2360121,0.1637265,-0.0037078,-0.0247177,0.055559,-0.0
 976951,0.0386126,-0.0804815,-0.0867603,0.061256,-0.0054911,-0.0208446,
 0.0630314,0.0899555,-0.0122128,-0.0620798,-0.0612376,0.1159248,0.00853
 22,-0.0257488,-0.018043,-0.0864784,-0.2254298,-0.1377169,-0.2358126,-0
 .0722142,-0.1373643,0.2570985,0.0793741,0.1903489,-0.1407206,-0.043806
 3,0.1092258,0.0669619,0.1019763,0.0873948,-0.0558491,0.0756191,-0.0542
 353,0.0418856,-0.0040864,0.0090413,-0.0681183,-0.0145992,0.0188312,-0.
 0123957,-0.0801145,0.0003031,0.0745479,0.0221409,-0.0428479,-0.0161351
 ,-0.0113887,-0.0443978,0.0118412,-0.0401085,0.0129345,0.0624355,0.1216
 012,0.0454077,-0.0433536,0.0290306,0.0319898,-0.0211587,-0.0275314,-0.
 0799184,-0.0422786,0.1253813,0.0319277,-0.0019718,0.0175808,0.1011276,
 -0.0584694,-0.0636952,-0.0508064,-0.1281024\Polar=75.7064992,-15.67260
 69,54.5192142,-12.0735118,4.3618412,93.7961551\PG=C01 [X(C5H8)]\NImag=
 1\\0.53760184,0.00232023,0.12251228,0.06310522,-0.01709922,0.63983861,
 -0.09468959,0.01880229,0.00831546,0.51962522,-0.00286745,-0.05326412,-
 0.00985108,-0.22661125,0.27416694,-0.01598643,0.01699128,-0.33467502,0
 .04857905,-0.00850455,0.66758463,-0.14833649,-0.02795797,0.04010775,-0
 .01021287,0.01373722,0.00759694,0.42651932,-0.02797990,-0.03567847,0.0
 1420258,-0.00634528,-0.00081210,-0.02372824,0.05505758,0.54554491,0.07
 203531,0.00087690,-0.09559976,0.02169877,0.01125778,-0.02260066,0.0638
 8962,-0.01008543,0.50892017,-0.26069608,0.01300224,-0.11773919,0.00209
 504,-0.00171654,0.00253953,-0.01672540,-0.00184428,-0.01005348,0.27665
 528,0.00899682,-0.03660082,-0.00262043,0.00732171,0.00050341,0.0170579
 0,0.00843774,0.00346433,-0.01422306,-0.00918744,0.01790956,-0.11554721
 ,-0.00211352,-0.11852890,-0.02836789,0.00361759,-0.01097148,0.01906037
 ,0.00046527,0.00438216,0.12361280,-0.00376167,0.12859066,-0.02095112,0
 .00679807,-0.00110507,0.00541424,0.00153742,0.01870484,-0.10128726,0.0
 8149823,-0.07059888,-0.00163647,-0.00701233,-0.00065004,0.47250680,0.0
 2400420,-0.01839380,-0.01235912,0.00274210,0.00129544,0.00824502,0.052
 78868,-0.19469689,0.05651544,-0.00108622,0.00490828,0.00210497,0.05227
 529,0.59608961,0.00007008,-0.00278359,-0.01210945,0.01792849,-0.011240
 24,0.01341796,-0.06549144,0.07064749,-0.08707710,0.00203886,-0.0014765
 5,-0.00135501,0.22970496,-0.03639204,0.22686592,-0.01800338,-0.0190102
 0,0.00386647,-0.00206058,0.00121322,-0.00516224,-0.10177429,-0.1113646
 9,-0.00266297,-0.00249940,0.00034320,0.00187259,0.01273742,0.02122059,
 0.00298589,0.11227103,-0.00283695,0.00497308,0.00395002,0.00020251,0.0
 0115924,-0.00132162,-0.09950412,-0.24512706,-0.00979271,0.00040544,-0.
 00126080,0.00024172,-0.00982153,-0.02376812,-0.00303602,0.11256976,0.2
 6941597,0.01225579,0.01342839,-0.00531775,0.00333163,-0.00050869,0.003
 92817,-0.00555796,-0.00567049,-0.04255159,0.00079240,0.00048609,-0.000
 31815,0.00231431,0.01148116,0.00024272,0.00139960,0.00584989,0.0445886
 1,0.00024218,0.00556711,0.02993545,-0.00181505,-0.00305922,0.00297686,
 -0.05002032,-0.01539569,-0.06946649,0.00143714,-0.00000618,-0.00018986
 ,-0.01189036,-0.00012558,-0.02004114,-0.00291420,-0.00249032,-0.012449
 08,0.06737407,-0.00544378,-0.00151859,-0.00287210,0.00046573,-0.000471
 86,-0.00081588,-0.01188914,-0.05605648,-0.04317627,0.00054461,0.001819
 95,0.00008514,0.00776574,0.00663964,0.02088292,-0.00565657,-0.00505927
 ,-0.02645977,0.01136896,0.05638882,-0.00325253,-0.00455687,-0.02048884
 ,0.00131176,0.00148932,-0.00107939,-0.06339401,-0.05151913,-0.26585400
 ,-0.00045755,0.00121953,0.00196322,-0.00493794,0.00097960,-0.01017458,
 -0.00045681,-0.00047944,0.00052688,0.06934216,0.05174699,0.29546226,0.
 00262913,-0.00708783,-0.03883783,-0.20546629,0.10429784,-0.10503255,0.
 00153751,0.00954910,0.00505693,0.00095155,-0.00585522,0.00011718,-0.01
 294145,-0.01022172,-0.00826164,0.00209731,0.00085361,-0.00225096,-0.00
 109699,0.00073127,0.00090720,0.35440511,0.00518611,0.01082490,0.007022
 90,0.10718133,-0.12690628,0.06695573,-0.00390738,-0.00536649,-0.001960
 69,-0.00135328,0.00896000,-0.00210388,0.00239734,-0.00213002,0.0069374
 8,-0.00173007,-0.00038967,0.00021472,0.00130932,0.00045658,-0.00076791
 ,-0.25242616,0.46228788,-0.02653363,0.00867980,-0.04448642,-0.14468446
 ,0.06640458,-0.20608763,-0.00539520,0.00349116,0.00032967,-0.00013029,
 0.00012140,-0.00407093,-0.00189212,0.00541616,0.00409831,0.00088418,0.
 00072829,-0.00039510,-0.00001994,0.00060059,0.00016087,0.17420819,0.07
 549017,0.59515966,-0.00115098,0.00343426,0.01045409,-0.20222223,0.1000
 0039,0.06519445,0.00259647,0.00222628,-0.00066834,0.00034750,-0.001499
 33,0.00071082,0.00081074,0.00242642,0.00187754,0.00022381,-0.00043091,
 -0.00024075,-0.00038970,0.00001773,0.00015603,-0.00717952,0.01161798,0
 .01144184,0.20831966,0.00006213,0.00387998,0.01173974,0.09051054,-0.09
 655807,-0.07555869,0.00057617,0.00117810,0.00047137,-0.00018920,-0.000
 70643,0.00061216,0.00255908,0.00250324,0.00280852,0.00022099,-0.000432
 87,-0.00015225,-0.00004894,-0.00007858,0.00002547,0.02188336,-0.008651
 09,0.00144821,-0.11798107,0.09885089,0.02369654,-0.01155508,-0.0129043
 2,0.07672119,-0.05895190,-0.09620369,0.00312657,-0.00345833,-0.0025992
 0,-0.00060014,0.00104075,0.00045040,-0.00036179,0.00211100,-0.00266514
 ,-0.00011825,0.00002842,0.00006508,0.00016559,-0.00016966,-0.00032824,
 -0.01256776,0.01162480,0.00882992,-0.08775470,0.05765099,0.10542629,0.
 00152465,-0.00317375,-0.00162954,0.00162913,-0.00000804,0.00292567,-0.
 00396411,0.00196844,-0.01145383,-0.00007374,-0.00195539,-0.00025265,-0
 .26573007,-0.04634316,-0.13813556,0.00115416,-0.00003589,0.00086878,-0
 .00120760,0.00201730,0.00117710,-0.00215786,0.00127121,0.00122355,0.00
 043697,0.00075531,-0.00006695,0.27222767,0.00069348,0.00019477,0.00208
 720,-0.00026802,0.00017451,-0.00144790,0.01802192,0.00489437,0.0123316
 5,0.00055404,0.00050306,-0.00028625,-0.04488840,-0.06422927,-0.0206618
 4,-0.00093907,0.00173634,-0.00037861,0.00273819,-0.00211313,0.00104806
 ,0.00054564,-0.00036082,-0.00041827,-0.00000913,-0.00017423,0.00007772
 ,0.04552871,0.05954212,-0.00280573,0.00688539,0.00238690,-0.00301956,-
 0.00039648,-0.00598273,-0.00760921,-0.01471372,0.00141379,-0.00032628,
 0.00307098,0.00088642,-0.14059574,-0.01595680,-0.09451821,-0.00031883,
 -0.00035078,0.00046342,-0.00184847,0.00131498,-0.00152503,0.00572920,-
 0.00079237,-0.00229955,-0.00082636,-0.00139577,0.00017820,0.14976186,0
 .02063451,0.09963861,0.00156178,0.00533952,-0.00208579,-0.00103274,0.0
 0034208,-0.00040678,0.00132075,0.01342256,0.00419793,0.00003725,0.0002
 9046,-0.00007859,-0.07704845,-0.09814051,-0.02655262,-0.00098777,0.001
 34044,-0.00064697,0.00027408,-0.00024131,-0.00040996,0.00231348,0.0004
 1464,-0.00047176,-0.00028781,-0.00033573,-0.00005322,-0.00316167,-0.02
 184713,-0.00000915,0.07708372,-0.00202194,0.00023841,0.00181547,0.0001
 8508,0.00002664,-0.00043011,-0.00717360,-0.01618583,-0.00256193,0.0001
 8795,-0.00022817,-0.00013192,-0.09355870,-0.30988645,-0.02494226,0.002
 92027,-0.00124620,0.00166645,0.00004685,0.00048233,0.00048286,0.000170
 79,0.00021685,0.00010570,-0.00012318,-0.00011890,-0.00008225,0.0004260
 3,0.00011476,0.00209810,0.09916821,0.32652916,0.00003023,-0.00847451,0
 .00201078,0.00168194,-0.00070768,0.00159461,0.01363400,0.01878372,0.00
 032717,-0.00012276,-0.00064295,-0.00007292,-0.03195671,-0.02208628,-0.
 03196353,-0.00286152,0.00425684,-0.00075922,0.00161362,-0.00103569,0.0
 0123211,-0.00299285,-0.00018147,0.00073473,0.00043767,0.00067541,0.000
 03439,-0.00512927,-0.01255230,0.00075914,0.02585573,0.02251672,0.02740
 402,-0.00402115,-0.00028695,0.01189429,-0.01800332,0.02231924,-0.01133
 666,0.00068063,-0.00294785,-0.00051438,-0.00041286,0.00201306,0.000004
 62,-0.00019772,0.00045232,0.01021735,-0.00059736,-0.00032287,0.0004451
 9,-0.00004871,0.00010528,0.00014530,-0.08301891,0.12381924,0.02056890,
 -0.00200470,0.00418746,-0.00282964,0.00024576,-0.00053175,0.00027378,0
 .00043528,-0.00027287,-0.00050539,0.10307701,-0.00594546,0.00128438,0.
 00605260,0.00222625,-0.00335011,-0.01851972,0.00113022,-0.00250265,0.0
 0108874,-0.00002467,0.00220320,0.00013175,0.00034009,0.00107597,0.0048
 7329,-0.00015163,-0.00009938,0.00018431,0.00006053,-0.00036396,0.00032
 741,0.13703111,-0.26492205,-0.06660617,0.00126788,0.00210453,0.0018151
 7,0.00033777,-0.00050307,-0.00150744,0.00062850,-0.00017289,-0.0011113
 6,-0.14329026,0.26882296,-0.00031766,0.00036042,-0.00284487,-0.0029236
 1,0.01412918,0.01019807,-0.00058657,0.00290937,0.00008997,0.00037861,-
 0.00206111,0.00022426,0.00104892,-0.00035072,-0.00523304,0.00069162,-0
 .00002626,-0.00046863,0.00001585,-0.00002412,0.00003628,0.01479658,-0.
 06846944,-0.06027566,-0.00099233,0.00003701,-0.00069580,0.00056017,-0.
 00019805,-0.00105224,0.00055751,-0.00052203,-0.00136241,-0.02678697,0.
 07414578,0.06526906,0.00428921,0.00225298,-0.00628133,0.00673904,-0.00
 918492,-0.01059270,-0.00033392,0.00215550,-0.00146019,0.00052018,-0.00
 188710,-0.00029214,0.00021369,0.00000761,-0.00634077,0.00035325,0.0000
 7082,-0.00026197,0.00005546,0.00021417,-0.00013076,-0.05207307,0.00621
 974,-0.02919926,0.00049978,-0.00220011,0.00064258,-0.00092331,0.000401
 51,0.00159448,-0.00050791,0.00004511,0.00031531,0.00386605,0.00638968,
 0.01355787,0.03730155,0.00583251,0.00154800,-0.00206853,0.00358701,0.0
 0403634,0.02107678,0.00068268,0.00134425,-0.00074180,0.00070734,-0.001
 47558,0.00113864,0.00010971,0.00059237,-0.00561716,0.00036420,0.000098
 73,-0.00014119,0.00003498,-0.00012545,0.00000409,0.00052822,-0.0740198
 1,-0.09546164,-0.00094734,-0.00179657,-0.00013164,-0.00078856,0.000220
 58,0.00110940,-0.00038174,0.00023028,0.00055954,-0.00524403,-0.0035769
 2,-0.01993003,-0.00448497,0.07292377,-0.00674999,-0.00063938,0.0027190
 4,-0.00057277,-0.00673783,-0.01912285,0.00061913,-0.00132424,0.0008193
 7,0.00006748,0.00178910,-0.00117973,0.00032524,0.00029159,0.00047116,-
 0.00011973,-0.00004835,-0.00000444,-0.00003455,-0.00007714,0.00006847,
 -0.03087169,-0.09397002,-0.29169786,0.00021006,0.00163783,0.00041210,0
 .00015066,-0.00023594,-0.00034872,0.00010367,-0.00001479,0.00006112,-0
 .00157639,-0.00087436,-0.00388499,0.03844888,0.10020354,0.31168732\\0.
 00011107,0.00010189,0.00000198,-0.00010919,-0.00006155,0.00000006,0.00
 000127,-0.00004407,0.00000087,0.00000020,0.00000016,0.00000016,-0.0000
 0295,0.00000339,-0.00000082,0.00000002,-0.00000001,0.00000003,0.000000
 36,-0.00000006,0.00000013,-0.00000188,0.00000100,-0.00000204,-0.000000
 14,-0.00000020,-0.00000024,-0.00000080,-0.00000082,0.00000016,0.000001
 01,0.00000037,0.00000047,0.00000058,0.00000021,0.,0.00000047,-0.000000
 31,-0.00000077\\\@


 THERE IS MUCH PLEASURE TO BE GAINED FROM USELESS KNOWLEDGE

                                       -- BERTRAND RUSSELL
 Job cpu time:       0 days  0 hours 26 minutes 31.2 seconds.
 Elapsed time:       0 days  0 hours  2 minutes 13.0 seconds.
 File lengths (MBytes):  RWF=     52 Int=      0 D2E=      0 Chk=     32 Scr=      1
 Normal termination of Gaussian 16 at Fri Jun 10 11:06:58 2022.
