 Entering Gaussian System, Link 0=g16
 Input=int_zmat_field_N50.gjf
 Output=int_zmat_field_N50.out
 Initial command:
 /software/gaussian/g16-a03/l1.exe "/local_scratch/11177293/Gau-29891.inp" -scrdir="/local_scratch/11177293/"
 Entering Link 1 = /software/gaussian/g16-a03/l1.exe PID=     29892.
  
 Copyright (c) 1988,1990,1992,1993,1995,1998,2003,2009,2016,
            Gaussian, Inc.  All Rights Reserved.
  
 This is part of the Gaussian(R) 16 program.  It is based on
 the Gaussian(R) 09 system (copyright 2009, Gaussian, Inc.),
 the Gaussian(R) 03 system (copyright 2003, Gaussian, Inc.),
 the Gaussian(R) 98 system (copyright 1998, Gaussian, Inc.),
 the Gaussian(R) 94 system (copyright 1995, Gaussian, Inc.),
 the Gaussian 92(TM) system (copyright 1992, Gaussian, Inc.),
 the Gaussian 90(TM) system (copyright 1990, Gaussian, Inc.),
 the Gaussian 88(TM) system (copyright 1988, Gaussian, Inc.),
 the Gaussian 86(TM) system (copyright 1986, Carnegie Mellon
 University), and the Gaussian 82(TM) system (copyright 1983,
 Carnegie Mellon University). Gaussian is a federally registered
 trademark of Gaussian, Inc.
  
 This software contains proprietary and confidential information,
 including trade secrets, belonging to Gaussian, Inc.
  
 This software is provided under written license and may be
 used, copied, transmitted, or stored only in accord with that
 written license.
  
 The following legend is applicable only to US Government
 contracts under FAR:
  
                    RESTRICTED RIGHTS LEGEND
  
 Use, reproduction and disclosure by the US Government is
 subject to restrictions as set forth in subparagraphs (a)
 and (c) of the Commercial Computer Software - Restricted
 Rights clause in FAR 52.227-19.
  
 Gaussian, Inc.
 340 Quinnipiac St., Bldg. 40, Wallingford CT 06492
  
  
 ---------------------------------------------------------------
 Warning -- This program may not be used in any manner that
 competes with the business of Gaussian, Inc. or will provide
 assistance to any competitor of Gaussian, Inc.  The licensee
 of this program is prohibited from giving any competitor of
 Gaussian, Inc. access to this program.  By using this program,
 the user acknowledges that Gaussian, Inc. is engaged in the
 business of creating and licensing software in the field of
 computational chemistry and represents and warrants to the
 licensee that it is not a competitor of Gaussian, Inc. and that
 it will not use this program in any manner prohibited above.
 ---------------------------------------------------------------
  

 Cite this work as:
 Gaussian 16, Revision A.03,
 M. J. Frisch, G. W. Trucks, H. B. Schlegel, G. E. Scuseria, 
 M. A. Robb, J. R. Cheeseman, G. Scalmani, V. Barone, 
 G. A. Petersson, H. Nakatsuji, X. Li, M. Caricato, A. V. Marenich, 
 J. Bloino, B. G. Janesko, R. Gomperts, B. Mennucci, H. P. Hratchian, 
 J. V. Ortiz, A. F. Izmaylov, J. L. Sonnenberg, D. Williams-Young, 
 F. Ding, F. Lipparini, F. Egidi, J. Goings, B. Peng, A. Petrone, 
 T. Henderson, D. Ranasinghe, V. G. Zakrzewski, J. Gao, N. Rega, 
 G. Zheng, W. Liang, M. Hada, M. Ehara, K. Toyota, R. Fukuda, 
 J. Hasegawa, M. Ishida, T. Nakajima, Y. Honda, O. Kitao, H. Nakai, 
 T. Vreven, K. Throssell, J. A. Montgomery, Jr., J. E. Peralta, 
 F. Ogliaro, M. J. Bearpark, J. J. Heyd, E. N. Brothers, K. N. Kudin, 
 V. N. Staroverov, T. A. Keith, R. Kobayashi, J. Normand, 
 K. Raghavachari, A. P. Rendell, J. C. Burant, S. S. Iyengar, 
 J. Tomasi, M. Cossi, J. M. Millam, M. Klene, C. Adamo, R. Cammi, 
 J. W. Ochterski, R. L. Martin, K. Morokuma, O. Farkas, 
 J. B. Foresman, and D. J. Fox, Gaussian, Inc., Wallingford CT, 2016.
 
 ******************************************
 Gaussian 16:  ES64L-G16RevA.03 25-Dec-2016
                12-Jun-2022 
 ******************************************
 %nprocshared=12
 Will use up to   12 processors via shared memory.
 %chk=checkpoint.chk
 %mem=12GB
 ----------------------------------------------------------------------
 # Opt=(Z-matrix, MaxStep=10) B3LYP/Def2TZVP geom=allcheckpoint guess=r
 ead Field=read NoSymm freq=noraman pop=none
 ----------------------------------------------------------------------
 1/8=10,10=7,18=40,26=3,29=7,38=1/1,3;
 2/12=2,15=1,29=3,40=1/2;
 3/5=44,7=101,11=2,14=-6,25=1,30=1,71=1,74=-5,116=-2/1,2,3;
 4/5=1/1;
 5/5=2,38=6/2;
 7/29=1,30=1/1,2,3,16;
 1/8=10,10=7,18=40,26=3/3(2);
 2/15=1,29=3/2;
 99//99;
 2/15=1,29=3/2;
 3/5=44,7=101,11=2,14=-2,25=1,30=1,71=1,74=-5/1,2,3;
 4/5=5,16=3,69=1/1;
 5/5=2,38=5/2;
 7/30=1/1,2,3,16;
 1/8=10,18=40,26=3/3(-5);
 2/15=1,29=3/2;
 99/9=1/99;
 Structure from the checkpoint file:  "checkpoint.chk"
 ------------------
 int_zmat_initalOpt
 ------------------
 Charge =  0 Multiplicity = 1
 Z-Matrix found in chk file.
 C
 C,1,R2
 C,1,R3,2,A3
 H,1,R4,2,A4,3,D4,0
 O,2,R5,1,A5,3,D5,0
 C,3,R6,1,A6,2,D6,0
 H,3,R7,1,A7,6,D7,0
 O,2,R8,1,A8,5,D8,0
 O,6,R9,3,A9,1,D9,0
 C,1,R10,2,A10,3,D10,0
 C,10,R11,1,A11,2,D11,0
 C,10,R12,1,A12,11,D12,0
 H,10,R13,1,A13,11,D13,0
 C,11,R14,10,A14,1,D14,0
 H,11,R15,10,A15,14,D15,0
 H,12,R16,10,A16,1,D16,0
 H,12,R17,10,A17,16,D17,0
 C,12,R18,10,A18,16,D18,0
 H,14,R19,11,A19,10,D19,0
 H,18,R20,12,A20,10,D20,0
      Variables:
 R2=1.48519172
 R3=1.33015394
 R4=1.0780353
 R5=1.19202332
 R6=1.48548303
 R7=1.07826207
 R8=1.3863025
 R9=1.18865088
 R10=3.71351079
 R11=1.34600166
 R12=1.50079152
 R13=1.08006668
 R14=1.46332675
 R15=1.08098445
 R16=1.09689067
 R17=1.09735576
 R18=1.5008306
 R19=1.08080942
 R20=1.07986031
 A3=108.17648547
 A4=122.07558939
 A5=129.85059273
 A6=108.27324424
 A7=129.85075779
 A8=107.61475335
 A9=130.3407441
 A10=91.27381732
 A11=79.11895747
 A12=88.90339667
 A13=102.00073837
 A14=109.29802071
 A15=126.15156781
 A16=112.7596228
 A17=111.46753218
 A18=103.17681294
 A19=124.63368199
 A20=124.12872535
 D4=180.91064297
 D5=-179.13228138
 D6=1.18958615
 D7=179.15129269
 D8=178.61219999
 D9=176.86146082
 D10=-96.37470358
 D11=28.58983724
 D12=109.7014581
 D13=-125.57089954
 D14=84.24132386
 D15=179.44559361
 D16=45.03208828
 D17=118.53841342
 D18=-121.91351904
 D19=179.32681672
 D20=-179.30538336
 Recover connectivity data from disk.

 GradGradGradGradGradGradGradGradGradGradGradGradGradGradGradGradGradGrad
 Berny optimization.
 Initialization pass.
                       ----------------------------
                       !    Initial Parameters    !
                       ! (Angstroms and Degrees)  !
 ----------------------                            ----------------------
 !      Name          Value   Derivative information (Atomic Units)     !
 ------------------------------------------------------------------------
 !       R2          1.4852   estimate D2E/DX2                          !
 !       R3          1.3302   estimate D2E/DX2                          !
 !       R4          1.078    estimate D2E/DX2                          !
 !       R5          1.192    estimate D2E/DX2                          !
 !       R6          1.4855   estimate D2E/DX2                          !
 !       R7          1.0783   estimate D2E/DX2                          !
 !       R8          1.3863   estimate D2E/DX2                          !
 !       R9          1.1887   estimate D2E/DX2                          !
 !       R10         3.7135   estimate D2E/DX2                          !
 !       R11         1.346    estimate D2E/DX2                          !
 !       R12         1.5008   estimate D2E/DX2                          !
 !       R13         1.0801   estimate D2E/DX2                          !
 !       R14         1.4633   estimate D2E/DX2                          !
 !       R15         1.081    estimate D2E/DX2                          !
 !       R16         1.0969   estimate D2E/DX2                          !
 !       R17         1.0974   estimate D2E/DX2                          !
 !       R18         1.5008   estimate D2E/DX2                          !
 !       R19         1.0808   estimate D2E/DX2                          !
 !       R20         1.0799   estimate D2E/DX2                          !
 !       A3        108.1765   estimate D2E/DX2                          !
 !       A4        122.0756   estimate D2E/DX2                          !
 !       A5        129.8506   estimate D2E/DX2                          !
 !       A6        108.2732   estimate D2E/DX2                          !
 !       A7        129.8508   estimate D2E/DX2                          !
 !       A8        107.6148   estimate D2E/DX2                          !
 !       A9        130.3407   estimate D2E/DX2                          !
 !       A10        91.2738   estimate D2E/DX2                          !
 !       A11        79.119    estimate D2E/DX2                          !
 !       A12        88.9034   estimate D2E/DX2                          !
 !       A13       102.0007   estimate D2E/DX2                          !
 !       A14       109.298    estimate D2E/DX2                          !
 !       A15       126.1516   estimate D2E/DX2                          !
 !       A16       112.7596   estimate D2E/DX2                          !
 !       A17       111.4675   estimate D2E/DX2                          !
 !       A18       103.1768   estimate D2E/DX2                          !
 !       A19       124.6337   estimate D2E/DX2                          !
 !       A20       124.1287   estimate D2E/DX2                          !
 !       D4        180.9106   estimate D2E/DX2                          !
 !       D5       -179.1323   estimate D2E/DX2                          !
 !       D6          1.1896   estimate D2E/DX2                          !
 !       D7        179.1513   estimate D2E/DX2                          !
 !       D8        178.6122   estimate D2E/DX2                          !
 !       D9        176.8615   estimate D2E/DX2                          !
 !       D10       -96.3747   estimate D2E/DX2                          !
 !       D11        28.5898   estimate D2E/DX2                          !
 !       D12       109.7015   estimate D2E/DX2                          !
 !       D13      -125.5709   estimate D2E/DX2                          !
 !       D14        84.2413   estimate D2E/DX2                          !
 !       D15       179.4456   estimate D2E/DX2                          !
 !       D16        45.0321   estimate D2E/DX2                          !
 !       D17       118.5384   estimate D2E/DX2                          !
 !       D18      -121.9135   estimate D2E/DX2                          !
 !       D19       179.3268   estimate D2E/DX2                          !
 !       D20      -179.3054   estimate D2E/DX2                          !
 ------------------------------------------------------------------------
 Trust Radius=1.00D-01 FncErr=1.00D-07 GrdErr=1.00D-06 EigMax=2.50D+02 EigMin=1.00D-04
 Number of steps in this run=     64 maximum allowed number of steps=    108.
 GradGradGradGradGradGradGradGradGradGradGradGradGradGradGradGradGradGrad

 ---------------------------------------------------------------------------------------------------
                            Z-MATRIX (ANGSTROMS AND DEGREES)
   CD    Cent   Atom    N1       Length/X        N2       Alpha/Y        N3        Beta/Z          J
 ---------------------------------------------------------------------------------------------------
      1      1  C 
      2      2  C        1   1.485192(     1)
      3      3  C        1   1.330154(     2)      2  108.176(    20)
      4      4  H        1   1.078035(     3)      2  122.076(    21)      3  180.911(    38)      0
      5      5  O        2   1.192023(     4)      1  129.851(    22)      3 -179.132(    39)      0
      6      6  C        3   1.485483(     5)      1  108.273(    23)      2    1.190(    40)      0
      7      7  H        3   1.078262(     6)      1  129.851(    24)      6  179.151(    41)      0
      8      8  O        2   1.386302(     7)      1  107.615(    25)      5  178.612(    42)      0
      9      9  O        6   1.188651(     8)      3  130.341(    26)      1  176.861(    43)      0
     10     10  C        1   3.713511(     9)      2   91.274(    27)      3  -96.375(    44)      0
     11     11  C       10   1.346002(    10)      1   79.119(    28)      2   28.590(    45)      0
     12     12  C       10   1.500792(    11)      1   88.903(    29)     11  109.701(    46)      0
     13     13  H       10   1.080067(    12)      1  102.001(    30)     11 -125.571(    47)      0
     14     14  C       11   1.463327(    13)     10  109.298(    31)      1   84.241(    48)      0
     15     15  H       11   1.080984(    14)     10  126.152(    32)     14  179.446(    49)      0
     16     16  H       12   1.096891(    15)     10  112.760(    33)      1   45.032(    50)      0
     17     17  H       12   1.097356(    16)     10  111.468(    34)     16  118.538(    51)      0
     18     18  C       12   1.500831(    17)     10  103.177(    35)     16 -121.914(    52)      0
     19     19  H       14   1.080809(    18)     11  124.634(    36)     10  179.327(    53)      0
     20     20  H       18   1.079860(    19)     12  124.129(    37)     10 -179.305(    54)      0
 ---------------------------------------------------------------------------------------------------
                         Z-Matrix orientation:                         
 ---------------------------------------------------------------------
 Center     Atomic      Atomic             Coordinates (Angstroms)
 Number     Number       Type             X           Y           Z
 ---------------------------------------------------------------------
      1          6           0        0.000000    0.000000    0.000000
      2          6           0        0.000000    0.000000    1.485192
      3          6           0        1.263779    0.000000   -0.414935
      4          1           0       -0.913356    0.014518   -0.572477
      5          8           0       -0.915033   -0.013859    2.249026
      6          6           0        2.146236   -0.029284    0.779667
      7          1           0        1.662018    0.004925   -1.416948
      8          8           0        1.321248   -0.011993    1.904708
      9          8           0        3.330702   -0.088158    0.860065
     10          6           0       -0.412210    3.689638   -0.082553
     11          6           0        0.241749    3.533058    1.083441
     12          6           0        0.585930    3.747200   -1.201829
     13          1           0       -1.478967    3.793500   -0.215917
     14          6           0        1.680178    3.459131    0.825019
     15          1           0       -0.208398    3.478429    2.064721
     16          1           0        0.408653    2.982754   -1.968226
     17          1           0        0.542925    4.708545   -1.729234
     18          6           0        1.899619    3.569365   -0.498204
     19          1           0        2.436376    3.344603    1.588692
     20          1           0        2.858080    3.568316   -0.995646
 ---------------------------------------------------------------------
                    Distance matrix (angstroms):
                    1          2          3          4          5
     1  C    0.000000
     2  C    1.485192   0.000000
     3  C    1.330154   2.282021   0.000000
     4  H    1.078035   2.251318   2.182876   0.000000
     5  O    2.428084   1.192023   3.441526   2.821646   0.000000
     6  C    2.283652   2.259414   1.485483   3.345342   3.395677
     7  H    2.184049   3.344360   1.078262   2.710309   4.481173
     8  O    2.318136   1.386302   2.320386   3.336256   2.262634
     9  O    3.441084   3.390005   2.430137   4.480485   4.467774
    10  C    3.713511   4.030034   4.066061   3.741348   4.405109
    11  C    3.703348   3.564035   3.971420   4.056656   3.908625
    12  C    3.978595   4.648108   3.888469   4.071469   5.320418
    13  H    4.077329   4.412682   4.685393   3.837676   4.570553
    14  C    3.933095   3.901847   3.698169   4.532634   4.563395
    15  H    4.050428   3.532528   4.518348   4.410268   3.567825
    16  H    3.596907   4.581476   3.469983   3.536418   5.340136
    17  H    5.045336   5.726927   4.941398   5.049033   6.344548
    18  C    4.073957   4.503640   3.626512   4.533793   5.320623
    19  H    4.432408   4.139204   4.071348   5.194307   4.790328
    20  H    4.678975   5.201544   3.951189   5.199258   6.131578
                    6          7          8          9         10
     6  C    0.000000
     7  H    2.249612   0.000000
     8  O    1.395214   3.339133   0.000000
     9  O    1.188651   2.824528   2.266051   0.000000
    10  C    4.595591   4.433976   4.544905   5.400895   0.000000
    11  C    4.050881   4.551575   3.795680   4.764948   1.346002
    12  C    4.541224   3.899855   4.931815   5.147344   1.500792
    13  H    5.361620   5.065725   5.178807   6.273589   1.080067
    14  C    3.519703   4.118043   3.652843   3.912635   2.292358
    15  H    4.415849   5.261721   3.814246   5.166911   2.167241
    16  H    4.431985   3.277545   4.980057   5.095891   2.174687
    17  H    5.595732   4.844991   6.007895   6.122461   2.159169
    18  C    3.826754   3.688601   4.351393   4.155763   2.351974
    19  H    3.481640   4.559271   3.551072   3.621403   3.320625
    20  H    4.074455   3.782303   4.857213   4.127570   3.397537
                   11         12         13         14         15
    11  C    0.000000
    12  C    2.320943   0.000000
    13  H    2.171871   2.288660   0.000000
    14  C    1.463327   2.321309   3.342985   0.000000
    15  H    1.080984   3.372468   2.629624   2.259193   0.000000
    16  H    3.105376   1.096891   2.700186   3.105789   4.109879
    17  H    3.063269   1.097356   2.686165   3.062448   4.058542
    18  C    2.291604   1.500831   3.397759   1.345817   3.319727
    19  H    2.259908   3.372424   4.334516   1.080809   2.690603
    20  H    3.342011   2.288488   4.412331   2.171220   4.333269
                   16         17         18         19         20
    16  H    0.000000
    17  H    1.747427   0.000000
    18  C    2.174410   2.157263   0.000000
    19  H    4.110263   4.056369   2.166509   0.000000
    20  H    2.699720   2.682949   1.079860   2.628058   0.000000
 Symmetry turned off by external request.
 Stoichiometry    C9H8O3
 Framework group  C1[X(C9H8O3)]
 Deg. of freedom    54
 Full point group                 C1      NOp   1
 Rotational constants (GHZ):           1.3401586           0.7270309           0.5973324
 Standard basis: def2TZVP (5D, 7F)
 The following finite field(s) will be applied:
 An electric field of             -0.0027 -0.0040  0.0011
   420 basis functions,   676 primitive gaussians,   480 cartesian basis functions
    43 alpha electrons       43 beta electrons
       nuclear repulsion energy       656.2379516681 Hartrees.
 NAtoms=   20 NActive=   20 NUniq=   20 SFac= 1.00D+00 NAtFMM=   60 NAOKFM=F Big=F
 Integral buffers will be    131072 words long.
 Raffenetti 2 integral format.
 Two-electron integral symmetry is turned off.
 One-electron integrals computed using PRISM.
   1 Symmetry operations used in ECPInt.
 ECPInt:  NShTT=   13530 NPrTT=   41904 LenC2=   12968 LenP2D=   30546.
 LDataN:  DoStor=T MaxTD1= 6 Len=  172
 NBasis=   420 RedAO= T EigKep=  4.22D-05  NBF=   420
 NBsUse=   420 1.00D-06 EigRej= -1.00D+00 NBFU=   420
 The nuclear repulsion energy is now       654.9453727241 hartrees.
 Initial guess from the checkpoint file:  "checkpoint.chk"
 B after Tr=     0.000000   -0.000000   -0.000000
         Rot=    1.000000    0.000000    0.000000    0.000000 Ang=   0.00 deg.
 Requested convergence on RMS density matrix=1.00D-08 within 128 cycles.
 Requested convergence on MAX density matrix=1.00D-06.
 Requested convergence on             energy=1.00D-06.
 No special actions if energy rises.
 SCF Done:  E(RB3LYP) =  -573.632155619     A.U. after   11 cycles
            NFock= 11  Conv=0.47D-08     -V/T= 2.0047
   1 Symmetry operations used in ECPInt.
 ECPInt:  NShTT=   13530 NPrTT=   41904 LenC2=   12968 LenP2D=   30546.
 LDataN:  DoStor=T MaxTD1= 7 Len=  274
 Calling FoFJK, ICntrl=      2127 FMM=F ISym2X=0 I1Cent= 0 IOpClX= 0 NMat=1 NMatS=1 NMatT=0.
 -------------------------------------------------------------------
 Center     Atomic                   Forces (Hartrees/Bohr)
 Number     Number              X              Y              Z
 -------------------------------------------------------------------
      1        6           0.000496307    0.001815906    0.000722354
      2        6           0.001539073   -0.000388595   -0.001725330
      3        6           0.000419472   -0.000529592   -0.000263156
      4        1           0.000087386    0.000325711   -0.000050222
      5        8          -0.001718453   -0.000890139    0.001469699
      6        6           0.002033000    0.000951998   -0.000983796
      7        1           0.000123088    0.000277574    0.000016978
      8        8          -0.001864725   -0.000419947    0.000753924
      9        8          -0.001222656   -0.000736691    0.000166194
     10        6          -0.000220875   -0.000558466   -0.000549688
     11        6           0.000570807   -0.000473310    0.000165696
     12        6          -0.000032517    0.000370104    0.000177998
     13        1          -0.000043985    0.000319701   -0.000001407
     14        6          -0.000245318   -0.000550799    0.000660113
     15        1           0.000027211    0.000307864    0.000115499
     16        1           0.000056470    0.000057870   -0.000178375
     17        1           0.000137804   -0.000046815    0.000021470
     18        6          -0.000180790   -0.000552212   -0.000504529
     19        1           0.000069934    0.000372715   -0.000039441
     20        1          -0.000031234    0.000347121    0.000026020
 -------------------------------------------------------------------
 Cartesian Forces:  Max     0.002033000 RMS     0.000728449
 -----------------------------------------------------------------------------------------------
                       Internal Coordinate Forces (Hartree/Bohr or radian)
  Cent   Atom   N1       Length/X         N2         Alpha/Y        N3         Beta/Z          J
 -----------------------------------------------------------------------------------------------
      1  C 
      2  C        1   0.000498(     1)
      3  C        1   0.001617(     2)      2   0.003869(    20)
      4  H        1  -0.000043(     3)      2   0.000176(    21)      3   0.000565(    38)     0
      5  O        2   0.002271(     4)      1   0.000042(    22)      3   0.000403(    39)     0
      6  C        3  -0.000180(     5)      1   0.002605(    23)      2   0.000535(    40)     0
      7  H        3   0.000031(     6)      1   0.000244(    24)      6   0.000435(    41)     0
      8  O        2  -0.001545(     7)      1   0.003358(    25)      5  -0.001091(    42)     0
      9  O        6  -0.001171(     8)      3   0.000529(    26)      1  -0.001369(    43)     0
     10  C        1  -0.000413(     9)      2   0.000104(    27)      3   0.001387(    44)     0
     11  C       10   0.001027(    10)      1   0.000575(    28)      2   0.000052(    45)     0
     12  C       10   0.000314(    11)      1   0.001337(    29)     11   0.001408(    46)     0
     13  H       10   0.000074(    12)      1   0.000641(    30)     11   0.000013(    47)     0
     14  C       11  -0.000273(    13)     10   0.001478(    31)      1  -0.000665(    48)     0
     15  H       11   0.000078(    14)     10   0.000080(    32)     14  -0.000525(    49)     0
     16  H       12   0.000075(    15)     10   0.000323(    33)      1   0.000852(    50)     0
     17  H       12  -0.000057(    16)     10   0.000211(    34)     16   0.000174(    51)     0
     18  C       12  -0.000386(    17)     10   0.000940(    35)     16   0.000503(    52)     0
     19  H       14  -0.000018(    18)     11   0.000167(    36)     10  -0.000625(    53)     0
     20  H       18  -0.000040(    19)     12  -0.000083(    37)     10   0.000582(    54)     0
 -----------------------------------------------------------------------------------------------
 Internal  Forces:  Max     0.003868845 RMS     0.001079889

 GradGradGradGradGradGradGradGradGradGradGradGradGradGradGradGradGradGrad
 Berny optimization.
 Search for a local minimum.
 Step number   1 out of a maximum of   64
 All quantities printed in internal units (Hartrees-Bohrs-Radians)
 Second derivative matrix not updated -- first step.
 ITU=  0
     Eigenvalues ---    0.00830   0.03179   0.04798   0.05268   0.06733
     Eigenvalues ---    0.09062   0.10045   0.11197   0.12470   0.13826
     Eigenvalues ---    0.16823   0.19146   0.19837   0.21598   0.23969
     Eigenvalues ---    0.27789   0.28192   0.29058   0.29388   0.30683
     Eigenvalues ---    0.31590   0.32671   0.33976   0.34028   0.34390
     Eigenvalues ---    0.34625   0.35875   0.35897   0.35986   0.36011
     Eigenvalues ---    0.36205   0.36233   0.36240   0.37493   0.39624
     Eigenvalues ---    0.39669   0.42336   0.45421   0.46345   0.49955
     Eigenvalues ---    0.53598   0.54927   0.58759   0.60429   0.64630
     Eigenvalues ---    0.66897   0.77438   1.08936   1.10739   1.81213
     Eigenvalues ---    1.93923   1.99249  15.86784  19.64685
 RFO step:  Lambda=-1.32906891D-04 EMin= 8.30478203D-03
 Linear search not attempted -- first point.
 Variable       Old X    -DE/DX   Delta X   Delta X   Delta X     New X
                                 (Linear)    (Quad)   (Total)
    R2        2.80661   0.00050   0.00000  -0.00095  -0.00095   2.80565
    R3        2.51363   0.00162   0.00000   0.00144   0.00144   2.51506
    R4        2.03719  -0.00004   0.00000  -0.00011  -0.00011   2.03708
    R5        2.25260   0.00227   0.00000   0.00210   0.00210   2.25470
    R6        2.80716  -0.00018   0.00000   0.00048   0.00048   2.80764
    R7        2.03762   0.00003   0.00000   0.00009   0.00009   2.03771
    R8        2.61973  -0.00155   0.00000  -0.00266  -0.00266   2.61707
    R9        2.24622  -0.00117   0.00000  -0.00102  -0.00102   2.24520
   R10        7.01752  -0.00041   0.00000  -0.04889  -0.04889   6.96863
   R11        2.54357   0.00103   0.00000   0.00111   0.00111   2.54469
   R12        2.83608   0.00031   0.00000   0.00006   0.00006   2.83614
   R13        2.04103   0.00007   0.00000   0.00021   0.00021   2.04124
   R14        2.76529  -0.00027   0.00000  -0.00066  -0.00066   2.76462
   R15        2.04276   0.00008   0.00000   0.00022   0.00022   2.04299
   R16        2.07282   0.00008   0.00000   0.00023   0.00023   2.07305
   R17        2.07370  -0.00006   0.00000  -0.00015  -0.00015   2.07355
   R18        2.83616  -0.00039   0.00000  -0.00044  -0.00044   2.83572
   R19        2.04243  -0.00002   0.00000  -0.00005  -0.00005   2.04238
   R20        2.04064  -0.00004   0.00000  -0.00011  -0.00011   2.04053
    A3        1.88804   0.00387   0.00000  -0.00097  -0.00097   1.88706
    A4        2.13062   0.00018   0.00000   0.00097   0.00097   2.13159
    A5        2.26632   0.00004   0.00000  -0.00115  -0.00115   2.26517
    A6        1.88972   0.00260   0.00000  -0.00003  -0.00003   1.88969
    A7        2.26632   0.00024   0.00000   0.00070   0.00070   2.26703
    A8        1.87823   0.00336   0.00000   0.00189   0.00189   1.88012
    A9        2.27488   0.00053   0.00000   0.00109   0.00109   2.27596
   A10        1.59303   0.00010   0.00000  -0.00120  -0.00120   1.59183
   A11        1.38089   0.00058   0.00000  -0.00101  -0.00101   1.37988
   A12        1.55166   0.00134   0.00000   0.00118   0.00118   1.55284
   A13        1.78025   0.00064   0.00000   0.00274   0.00274   1.78299
   A14        1.90761   0.00148   0.00000   0.00043   0.00043   1.90804
   A15        2.20176   0.00008   0.00000  -0.00002  -0.00002   2.20174
   A16        1.96803   0.00032   0.00000   0.00139   0.00139   1.96942
   A17        1.94548   0.00021   0.00000   0.00030   0.00030   1.94578
   A18        1.80078   0.00094   0.00000  -0.00005  -0.00005   1.80072
   A19        2.17527   0.00017   0.00000   0.00072   0.00072   2.17599
   A20        2.16645  -0.00008   0.00000  -0.00060  -0.00060   2.16585
    D4        3.15749   0.00056   0.00000   0.00700   0.00700   3.16449
    D5       -3.12645   0.00040   0.00000   0.01544   0.01544  -3.11100
    D6        0.02076   0.00054   0.00000   0.00845   0.00845   0.02921
    D7        3.12678   0.00043   0.00000  -0.00184  -0.00184   3.12494
    D8        3.11737  -0.00109   0.00000  -0.02375  -0.02375   3.09362
    D9        3.08681  -0.00137   0.00000  -0.02412  -0.02412   3.06269
   D10       -1.68206   0.00139   0.00000   0.00502   0.00502  -1.67704
   D11        0.49899   0.00005   0.00000   0.00058   0.00058   0.49956
   D12        1.91465   0.00141   0.00000  -0.00057  -0.00057   1.91409
   D13       -2.19163   0.00001   0.00000   0.00014   0.00014  -2.19148
   D14        1.47029  -0.00066   0.00000  -0.00073  -0.00073   1.46956
   D15        3.13192  -0.00052   0.00000  -0.00411  -0.00411   3.12780
   D16        0.78596   0.00085   0.00000   0.00355   0.00355   0.78950
   D17        2.06889   0.00017   0.00000   0.00018   0.00018   2.06907
   D18       -2.12779   0.00050   0.00000  -0.00031  -0.00031  -2.12810
   D19        3.12984  -0.00063   0.00000  -0.00686  -0.00686   3.12298
   D20       -3.12947   0.00058   0.00000   0.00537   0.00537  -3.12410
         Item               Value     Threshold  Converged?
 Maximum Force            0.003869     0.000450     NO 
 RMS     Force            0.001080     0.000300     NO 
 Maximum Displacement     0.048891     0.001800     NO 
 RMS     Displacement     0.008683     0.001200     NO 
 Predicted change in Energy=-6.672513D-05
 GradGradGradGradGradGradGradGradGradGradGradGradGradGradGradGradGradGrad

 ---------------------------------------------------------------------------------------------------
                            Z-MATRIX (ANGSTROMS AND DEGREES)
   CD    Cent   Atom    N1       Length/X        N2       Alpha/Y        N3        Beta/Z          J
 ---------------------------------------------------------------------------------------------------
      1      1  C 
      2      2  C        1   1.484687(     1)
      3      3  C        1   1.330915(     2)      2  108.121(    20)
      4      4  H        1   1.077976(     3)      2  122.131(    21)      3  181.312(    38)      0
      5      5  O        2   1.193135(     4)      1  129.785(    22)      3 -178.247(    39)      0
      6      6  C        3   1.485737(     5)      1  108.271(    23)      2    1.674(    40)      0
      7      7  H        3   1.078311(     6)      1  129.891(    24)      6  179.046(    41)      0
      8      8  O        2   1.384895(     7)      1  107.723(    25)      5  177.251(    42)      0
      9      9  O        6   1.188109(     8)      3  130.403(    26)      1  175.479(    43)      0
     10     10  C        1   3.687639(     9)      2   91.205(    27)      3  -96.087(    44)      0
     11     11  C       10   1.346591(    10)      1   79.061(    28)      2   28.623(    45)      0
     12     12  C       10   1.500822(    11)      1   88.971(    29)     11  109.669(    46)      0
     13     13  H       10   1.080178(    12)      1  102.158(    30)     11 -125.563(    47)      0
     14     14  C       11   1.462975(    13)     10  109.323(    31)      1   84.199(    48)      0
     15     15  H       11   1.081102(    14)     10  126.151(    32)     14  179.210(    49)      0
     16     16  H       12   1.097012(    15)     10  112.839(    33)      1   45.235(    50)      0
     17     17  H       12   1.097274(    16)     10  111.485(    34)     16  118.549(    51)      0
     18     18  C       12   1.500598(    17)     10  103.174(    35)     16 -121.931(    52)      0
     19     19  H       14   1.080783(    18)     11  124.675(    36)     10  178.934(    53)      0
     20     20  H       18   1.079802(    19)     12  124.094(    37)     10 -178.998(    54)      0
 ---------------------------------------------------------------------------------------------------
                         Z-Matrix orientation:                         
 ---------------------------------------------------------------------
 Center     Atomic      Atomic             Coordinates (Angstroms)
 Number     Number       Type             X           Y           Z
 ---------------------------------------------------------------------
      1          6           0        0.000000    0.000000    0.000000
      2          6           0        0.000000    0.000000    1.484687
      3          6           0        1.264905    0.000000   -0.413943
      4          1           0       -0.912627    0.020901   -0.573329
      5          8           0       -0.916438   -0.028042    2.248183
      6          6           0        2.146220   -0.041210    0.781465
      7          1           0        1.664856    0.010390   -1.415285
      8          8           0        1.318966   -0.022932    1.906275
      9          8           0        3.328446   -0.125591    0.864074
     10          6           0       -0.390963    3.666035   -0.077551
     11          6           0        0.263323    3.503436    1.088115
     12          6           0        0.607152    3.721692   -1.196987
     13          1           0       -1.457102    3.778369   -0.209894
     14          6           0        1.700807    3.421053    0.828983
     15          1           0       -0.186059    3.453505    2.070126
     16          1           0        0.425525    2.962306   -1.967559
     17          1           0        0.570936    4.685531   -1.720162
     18          6           0        1.919645    3.532192   -0.494673
     19          1           0        2.457593    3.306680    1.592059
     20          1           0        2.877919    3.531712   -0.992349
 ---------------------------------------------------------------------
                    Distance matrix (angstroms):
                    1          2          3          4          5
     1  C    0.000000
     2  C    1.484687   0.000000
     3  C    1.330915   2.281399   0.000000
     4  H    1.077976   2.251390   2.183457   0.000000
     5  O    2.427957   1.193135   3.441796   2.821940   0.000000
     6  C    2.284436   2.258867   1.485737   3.346023   3.395779
     7  H    2.185151   3.343904   1.078311   2.711534   4.481691
     8  O    2.318207   1.384895   2.320961   3.336220   2.261407
     9  O    3.441068   3.388139   2.430494   4.480434   4.465907
    10  C    3.687639   4.004155   4.036691   3.715500   4.396746
    11  C    3.677961   3.535629   3.941244   4.033771   3.899863
    12  C    3.956312   4.627202   3.859636   4.049016   5.315170
    13  H    4.055030   4.389854   4.661226   3.814067   4.563247
    14  C    3.909419   3.876376   3.665853   4.511934   4.556353
    15  H    4.030724   3.507714   4.494730   4.393009   3.561788
    16  H    3.581566   4.568843   3.448701   3.519430   5.339993
    17  H    5.023856   5.705369   4.913452   5.027421   6.338598
    18  C    4.050447   4.480991   3.593269   4.511886   5.314310
    19  H    4.416848   4.121338   4.047305   5.181084   4.789046
    20  H    4.662635   5.185665   3.925475   5.183591   6.129441
                    6          7          8          9         10
     6  C    0.000000
     7  H    2.249463   0.000000
     8  O    1.396382   3.339687   0.000000
     9  O    1.188109   2.825155   2.265995   0.000000
    10  C    4.573715   4.402234   4.524147   5.394172   0.000000
    11  C    4.025400   4.520252   3.770814   4.755524   1.346591
    12  C    4.521331   3.865250   4.915194   5.143443   1.500822
    13  H    5.343772   5.039569   5.160873   6.268635   1.080178
    14  C    3.491119   4.082971   3.628691   3.902451   2.292885
    15  H    4.394680   5.237272   3.791776   5.159093   2.167872
    16  H    4.420297   3.248808   4.971567   5.097078   2.175780
    17  H    5.575100   4.811087   5.990011   6.117928   2.159350
    18  C    3.801193   3.649045   4.331775   4.148529   2.351768
    19  H    3.458668   4.531895   3.532920   3.615084   3.321296
    20  H    4.055560   3.748347   4.844363   4.126154   3.397130
                   11         12         13         14         15
    11  C    0.000000
    12  C    2.321109   0.000000
    13  H    2.172620   2.288822   0.000000
    14  C    1.462975   2.321857   3.343550   0.000000
    15  H    1.081102   3.372704   2.630509   2.258706   0.000000
    16  H    3.107455   1.097012   2.701782   3.107642   4.113175
    17  H    3.062417   1.097274   2.686409   3.061643   4.056749
    18  C    2.291167   1.500598   3.397664   1.346220   3.319393
    19  H    2.259977   3.372706   4.335246   1.080783   2.690540
    20  H    3.341444   2.287871   4.411970   2.171426   4.332762
                   16         17         18         19         20
    16  H    0.000000
    17  H    1.746956   0.000000
    18  C    2.174065   2.156625   0.000000
    19  H    4.113244   4.053581   2.166724   0.000000
    20  H    2.699907   2.680146   1.079802   2.628018   0.000000
 Symmetry turned off by external request.
 Stoichiometry    C9H8O3
 Framework group  C1[X(C9H8O3)]
 Deg. of freedom    54
 Full point group                 C1      NOp   1
 Rotational constants (GHZ):           1.3425741           0.7333003           0.6012899
 Standard basis: def2TZVP (5D, 7F)
 The following finite field(s) will be applied:
 An electric field of             -0.0027 -0.0040  0.0011
   420 basis functions,   676 primitive gaussians,   480 cartesian basis functions
    43 alpha electrons       43 beta electrons
       nuclear repulsion energy       657.3032891525 Hartrees.
 NAtoms=   20 NActive=   20 NUniq=   20 SFac= 1.00D+00 NAtFMM=   60 NAOKFM=F Big=F
 Integral buffers will be    131072 words long.
 Raffenetti 2 integral format.
 Two-electron integral symmetry is turned off.
 One-electron integrals computed using PRISM.
   1 Symmetry operations used in ECPInt.
 ECPInt:  NShTT=   13530 NPrTT=   41904 LenC2=   12976 LenP2D=   30582.
 LDataN:  DoStor=T MaxTD1= 6 Len=  172
 NBasis=   420 RedAO= T EigKep=  4.19D-05  NBF=   420
 NBsUse=   420 1.00D-06 EigRej= -1.00D+00 NBFU=   420
 The nuclear repulsion energy is now       656.0199433104 hartrees.
 Initial guess from the checkpoint file:  "checkpoint.chk"
 B after Tr=     0.000335   -0.025388    0.001909
         Rot=    0.999996   -0.000316    0.000276    0.002850 Ang=  -0.33 deg.
 ExpMin= 9.52D-02 ExpMax= 2.70D+04 ExpMxC= 9.22D+02 IAcc=2 IRadAn=         4 AccDes= 0.00D+00
 Harris functional with IExCor=  402 and IRadAn=       4 diagonalized for initial guess.
 HarFok:  IExCor=  402 AccDes= 0.00D+00 IRadAn=         4 IDoV= 1 UseB2=F ITyADJ=14
 ICtDFT=  3500011 ScaDFX=  1.000000  1.000000  1.000000  1.000000
 FoFCou: FMM=F IPFlag=           0 FMFlag=      100000 FMFlg1=           0
         NFxFlg=           0 DoJE=T BraDBF=F KetDBF=T FulRan=T
         wScrn=  0.000000 ICntrl=       500 IOpCl=  0 I1Cent=   200000004 NGrid=           0
         NMat0=    1 NMatS0=      1 NMatT0=    0 NMatD0=    1 NMtDS0=    0 NMtDT0=    0
 Symmetry not used in FoFCou.
 Requested convergence on RMS density matrix=1.00D-08 within 128 cycles.
 Requested convergence on MAX density matrix=1.00D-06.
 Requested convergence on             energy=1.00D-06.
 No special actions if energy rises.
 Integral accuracy reduced to 1.0D-05 until final iterations.
 Initial convergence to 1.0D-05 achieved.  Increase integral accuracy.
 SCF Done:  E(RB3LYP) =  -573.632236013     A.U. after   10 cycles
            NFock= 10  Conv=0.98D-08     -V/T= 2.0047
   1 Symmetry operations used in ECPInt.
 ECPInt:  NShTT=   13530 NPrTT=   41904 LenC2=   12976 LenP2D=   30582.
 LDataN:  DoStor=T MaxTD1= 7 Len=  274
 Calling FoFJK, ICntrl=      2127 FMM=F ISym2X=0 I1Cent= 0 IOpClX= 0 NMat=1 NMatS=1 NMatT=0.
 -------------------------------------------------------------------
 Center     Atomic                   Forces (Hartrees/Bohr)
 Number     Number              X              Y              Z
 -------------------------------------------------------------------
      1        6           0.001478609    0.003298899    0.000454885
      2        6          -0.000146278   -0.003501668   -0.000570804
      3        6           0.000082996   -0.000125748   -0.000004207
      4        1           0.000060503    0.000171946   -0.000019177
      5        8          -0.000905527    0.000315569    0.000603012
      6        6           0.000806729   -0.000567832   -0.000925463
      7        1           0.000051415   -0.000021994    0.000035873
      8        8          -0.001235175    0.000697305    0.000351036
      9        8          -0.000312470    0.000045699    0.000135805
     10        6           0.000042149   -0.000415879   -0.000251727
     11        6           0.000260469   -0.000265665    0.000049163
     12        6          -0.000072239   -0.000181550    0.000126902
     13        1           0.000048031    0.000259452    0.000039447
     14        6          -0.000272129   -0.000137849    0.000264420
     15        1           0.000007396    0.000151802    0.000006589
     16        1          -0.000044611    0.000099466   -0.000108117
     17        1           0.000124185    0.000035902    0.000086016
     18        6          -0.000026864   -0.000161779   -0.000249266
     19        1           0.000025423    0.000127703   -0.000030191
     20        1           0.000027386    0.000176222    0.000005804
 -------------------------------------------------------------------
 Cartesian Forces:  Max     0.003501668 RMS     0.000732447
 -----------------------------------------------------------------------------------------------
                       Internal Coordinate Forces (Hartree/Bohr or radian)
  Cent   Atom   N1       Length/X         N2         Alpha/Y        N3         Beta/Z          J
 -----------------------------------------------------------------------------------------------
      1  C 
      2  C        1   0.000383(     1)
      3  C        1   0.000833(     2)      2   0.003275(    20)
      4  H        1  -0.000038(     3)      2   0.000094(    21)      3   0.000299(    38)     0
      5  O        2   0.001074(     4)      1  -0.000247(    22)      3   0.001090(    39)     0
      6  C        3  -0.000328(     5)      1   0.002068(    23)      2   0.001361(    40)     0
      7  H        3  -0.000014(     6)      1   0.000125(    24)      6  -0.000033(    41)     0
      8  O        2  -0.001081(     7)      1   0.001869(    25)      5   0.001684(    42)     0
      9  O        6  -0.000305(     8)      3   0.000354(    26)      1   0.000035(    43)     0
     10  C        1  -0.000322(     9)      2   0.000067(    27)      3   0.001313(    44)     0
     11  C       10   0.000276(    10)      1   0.000265(    28)      2   0.000036(    45)     0
     12  C       10   0.000107(    11)      1   0.000523(    29)     11   0.000652(    46)     0
     13  H       10  -0.000025(    12)      1   0.000537(    30)     11   0.000071(    47)     0
     14  C       11  -0.000283(    13)     10   0.000437(    31)      1  -0.000199(    48)     0
     15  H       11  -0.000004(    14)     10  -0.000017(    32)     14  -0.000250(    49)     0
     16  H       12   0.000014(    15)     10   0.000110(    33)      1   0.000479(    50)     0
     17  H       12  -0.000014(    16)     10   0.000055(    34)     16   0.000294(    51)     0
     18  C       12  -0.000115(    17)     10   0.000623(    35)     16  -0.000088(    52)     0
     19  H       14  -0.000017(    18)     11   0.000082(    36)     10  -0.000212(    53)     0
     20  H       18   0.000022(    19)     12  -0.000019(    37)     10   0.000299(    54)     0
 -----------------------------------------------------------------------------------------------
 Internal  Forces:  Max     0.003275151 RMS     0.000773200

 GradGradGradGradGradGradGradGradGradGradGradGradGradGradGradGradGradGrad
 Berny optimization.
 Search for a local minimum.
 Step number   2 out of a maximum of   64
 All quantities printed in internal units (Hartrees-Bohrs-Radians)
 Update second derivatives using D2CorN and points    1    2
 DE= -8.04D-05 DEPred=-6.67D-05 R= 1.20D+00
 TightC=F SS=  1.41D+00  RLast= 6.38D-02 DXNew= 1.6818D-01 1.9143D-01
 Trust test= 1.20D+00 RLast= 6.38D-02 DXMaxT set to 1.68D-01
 ITU=  1  0
     Eigenvalues ---    0.00333   0.03449   0.04712   0.05274   0.06702
     Eigenvalues ---    0.09065   0.10032   0.11171   0.12463   0.13816
     Eigenvalues ---    0.16765   0.19146   0.19818   0.21597   0.23963
     Eigenvalues ---    0.27799   0.28188   0.29046   0.29388   0.30683
     Eigenvalues ---    0.31586   0.32664   0.33976   0.34028   0.34389
     Eigenvalues ---    0.34621   0.35875   0.35897   0.35986   0.36011
     Eigenvalues ---    0.36205   0.36233   0.36239   0.37493   0.39624
     Eigenvalues ---    0.39669   0.42334   0.45375   0.46335   0.49929
     Eigenvalues ---    0.53573   0.54920   0.58757   0.60420   0.64622
     Eigenvalues ---    0.66902   0.77484   1.08888   1.10732   1.81215
     Eigenvalues ---    1.93923   1.99249  15.86750  19.64682
 RFO step:  Lambda=-1.14026603D-04 EMin= 3.32569085D-03
 Quartic linear search produced a step of  0.25928.
 Variable       Old X    -DE/DX   Delta X   Delta X   Delta X     New X
                                 (Linear)    (Quad)   (Total)
    R2        2.80565   0.00038  -0.00025  -0.00110  -0.00135   2.80430
    R3        2.51506   0.00083   0.00037   0.00038   0.00076   2.51582
    R4        2.03708  -0.00004  -0.00003  -0.00018  -0.00021   2.03687
    R5        2.25470   0.00107   0.00054   0.00148   0.00203   2.25673
    R6        2.80764  -0.00033   0.00012  -0.00085  -0.00073   2.80691
    R7        2.03771  -0.00001   0.00002  -0.00010  -0.00007   2.03764
    R8        2.61707  -0.00108  -0.00069  -0.00291  -0.00360   2.61348
    R9        2.24520  -0.00030  -0.00027  -0.00029  -0.00055   2.24465
   R10        6.96863  -0.00032  -0.01268  -0.13937  -0.15205   6.81658
   R11        2.54469   0.00028   0.00029   0.00024   0.00053   2.54522
   R12        2.83614   0.00011   0.00002  -0.00045  -0.00044   2.83571
   R13        2.04124  -0.00003   0.00005  -0.00018  -0.00013   2.04111
   R14        2.76462  -0.00028  -0.00017  -0.00095  -0.00113   2.76350
   R15        2.04299  -0.00000   0.00006  -0.00007  -0.00001   2.04298
   R16        2.07305   0.00001   0.00006   0.00005   0.00011   2.07316
   R17        2.07355  -0.00001  -0.00004  -0.00003  -0.00007   2.07348
   R18        2.83572  -0.00012  -0.00011  -0.00039  -0.00050   2.83522
   R19        2.04238  -0.00002  -0.00001  -0.00009  -0.00010   2.04228
   R20        2.04053   0.00002  -0.00003   0.00015   0.00012   2.04065
    A3        1.88706   0.00328  -0.00025   0.00040   0.00015   1.88721
    A4        2.13159   0.00009   0.00025   0.00020   0.00045   2.13204
    A5        2.26517  -0.00025  -0.00030  -0.00096  -0.00126   2.26391
    A6        1.88969   0.00207  -0.00001  -0.00039  -0.00040   1.88930
    A7        2.26703   0.00012   0.00018   0.00078   0.00096   2.26799
    A8        1.88012   0.00187   0.00049   0.00039   0.00088   1.88101
    A9        2.27596   0.00035   0.00028   0.00184   0.00212   2.27808
   A10        1.59183   0.00007  -0.00031  -0.00092  -0.00123   1.59060
   A11        1.37988   0.00026  -0.00026  -0.00114  -0.00140   1.37848
   A12        1.55284   0.00052   0.00031   0.00045   0.00076   1.55360
   A13        1.78299   0.00054   0.00071   0.00344   0.00415   1.78714
   A14        1.90804   0.00044   0.00011  -0.00000   0.00011   1.90815
   A15        2.20174  -0.00002  -0.00000  -0.00022  -0.00022   2.20152
   A16        1.96942   0.00011   0.00036   0.00193   0.00229   1.97171
   A17        1.94578   0.00006   0.00008  -0.00147  -0.00140   1.94438
   A18        1.80072   0.00062  -0.00001   0.00024   0.00023   1.80095
   A19        2.17599   0.00008   0.00019   0.00024   0.00042   2.17641
   A20        2.16585  -0.00002  -0.00016   0.00003  -0.00012   2.16573
    D4        3.16449   0.00030   0.00182   0.00828   0.01010   3.17459
    D5       -3.11100   0.00109   0.00400  -0.01831  -0.01430  -3.12531
    D6        0.02921   0.00136   0.00219   0.00728   0.00947   0.03868
    D7        3.12494  -0.00003  -0.00048  -0.00501  -0.00548   3.11945
    D8        3.09362   0.00168  -0.00616   0.02502   0.01886   3.11248
    D9        3.06269   0.00003  -0.00625  -0.00607  -0.01232   3.05037
   D10       -1.67704   0.00131   0.00130   0.00801   0.00931  -1.66773
   D11        0.49956   0.00004   0.00015   0.00083   0.00098   0.50055
   D12        1.91409   0.00065  -0.00015  -0.00007  -0.00022   1.91387
   D13       -2.19148   0.00007   0.00004   0.00072   0.00076  -2.19072
   D14        1.46956  -0.00020  -0.00019   0.00154   0.00135   1.47091
   D15        3.12780  -0.00025  -0.00107  -0.00517  -0.00624   3.12157
   D16        0.78950   0.00048   0.00092   0.00421   0.00513   0.79464
   D17        2.06907   0.00029   0.00005  -0.00033  -0.00028   2.06879
   D18       -2.12810  -0.00009  -0.00008  -0.00430  -0.00438  -2.13249
   D19        3.12298  -0.00021  -0.00178  -0.00609  -0.00787   3.11511
   D20       -3.12410   0.00030   0.00139   0.00675   0.00814  -3.11596
         Item               Value     Threshold  Converged?
 Maximum Force            0.003275     0.000450     NO 
 RMS     Force            0.000773     0.000300     NO 
 Maximum Displacement     0.152051     0.001800     NO 
 RMS     Displacement     0.021263     0.001200     NO 
 Predicted change in Energy=-5.412050D-05
 GradGradGradGradGradGradGradGradGradGradGradGradGradGradGradGradGradGrad

 ---------------------------------------------------------------------------------------------------
                            Z-MATRIX (ANGSTROMS AND DEGREES)
   CD    Cent   Atom    N1       Length/X        N2       Alpha/Y        N3        Beta/Z          J
 ---------------------------------------------------------------------------------------------------
      1      1  C 
      2      2  C        1   1.483974(     1)
      3      3  C        1   1.331315(     2)      2  108.129(    20)
      4      4  H        1   1.077865(     3)      2  122.157(    21)      3  181.890(    38)      0
      5      5  O        2   1.194208(     4)      1  129.713(    22)      3 -179.067(    39)      0
      6      6  C        3   1.485353(     5)      1  108.249(    23)      2    2.216(    40)      0
      7      7  H        3   1.078272(     6)      1  129.946(    24)      6  178.731(    41)      0
      8      8  O        2   1.382992(     7)      1  107.774(    25)      5  178.332(    42)      0
      9      9  O        6   1.187816(     8)      3  130.524(    26)      1  174.773(    43)      0
     10     10  C        1   3.607177(     9)      2   91.134(    27)      3  -95.554(    44)      0
     11     11  C       10   1.346870(    10)      1   78.981(    28)      2   28.679(    45)      0
     12     12  C       10   1.500591(    11)      1   89.015(    29)     11  109.657(    46)      0
     13     13  H       10   1.080110(    12)      1  102.396(    30)     11 -125.519(    47)      0
     14     14  C       11   1.462379(    13)     10  109.329(    31)      1   84.277(    48)      0
     15     15  H       11   1.081097(    14)     10  126.138(    32)     14  178.853(    49)      0
     16     16  H       12   1.097068(    15)     10  112.971(    33)      1   45.529(    50)      0
     17     17  H       12   1.097238(    16)     10  111.405(    34)     16  118.533(    51)      0
     18     18  C       12   1.500333(    17)     10  103.187(    35)     16 -122.183(    52)      0
     19     19  H       14   1.080730(    18)     11  124.699(    36)     10  178.483(    53)      0
     20     20  H       18   1.079864(    19)     12  124.087(    37)     10 -178.532(    54)      0
 ---------------------------------------------------------------------------------------------------
                         Z-Matrix orientation:                         
 ---------------------------------------------------------------------
 Center     Atomic      Atomic             Coordinates (Angstroms)
 Number     Number       Type             X           Y           Z
 ---------------------------------------------------------------------
      1          6           0        0.000000    0.000000    0.000000
      2          6           0        0.000000    0.000000    1.483974
      3          6           0        1.265223    0.000000   -0.414258
      4          1           0       -0.912016    0.030103   -0.573684
      5          8           0       -0.918531   -0.014962    2.246999
      6          6           0        2.145874   -0.054551    0.780627
      7          1           0        1.665982    0.013673   -1.415195
      8          8           0        1.316872   -0.016895    1.906146
      9          8           0        3.326464   -0.154197    0.865390
     10          6           0       -0.349030    3.589541   -0.071418
     11          6           0        0.305132    3.417624    1.093304
     12          6           0        0.648324    3.638304   -1.191544
     13          1           0       -1.413729    3.716423   -0.201625
     14          6           0        1.741005    3.323351    0.832665
     15          1           0       -0.143345    3.374133    2.076028
     16          1           0        0.458245    2.886021   -1.967108
     17          1           0        0.622430    4.605539   -1.708956
     18          6           0        1.959595    3.435003   -0.491374
     19          1           0        2.498297    3.206956    1.594857
     20          1           0        2.917789    3.433875   -0.989337
 ---------------------------------------------------------------------
                    Distance matrix (angstroms):
                    1          2          3          4          5
     1  C    0.000000
     2  C    1.483974   0.000000
     3  C    1.331315   2.281244   0.000000
     4  H    1.077865   2.250919   2.183275   0.000000
     5  O    2.427536   1.194208   3.442571   2.821051   0.000000
     6  C    2.284104   2.258860   1.485353   3.345447   3.397411
     7  H    2.185969   3.343780   1.078272   2.711915   4.482432
     8  O    2.316857   1.382992   2.321040   3.334622   2.261241
     9  O    3.440645   3.387003   2.431048   4.479912   4.466343
    10  C    3.607177   3.927578   3.950716   3.638519   4.323405
    11  C    3.601190   3.453387   3.856769   3.966811   3.822435
    12  C    3.882957   4.562452   3.771205   3.979387   5.255945
    13  H    3.981342   4.318758   4.586261   3.738863   4.490458
    14  C    3.843058   3.807882   3.581319   4.456660   4.496422
    15  H    3.964242   3.428681   4.423841   4.335247   3.480820
    16  H    3.522587   4.522065   3.375155   3.460565   5.298104
    17  H    4.951661   5.638547   4.827051   4.957618   6.274805
    18  C    3.985060   4.420549   3.505331   4.454914   5.261611
    19  H    4.366878   4.066737   3.980149   5.140545   4.741388
    20  H    4.613435   5.140259   3.853984   5.140607   6.089804
                    6          7          8          9         10
     6  C    0.000000
     7  H    2.248685   0.000000
     8  O    1.398376   3.339778   0.000000
     9  O    1.187816   2.826030   2.267264   0.000000
    10  C    4.497770   4.318893   4.437608   5.329394   0.000000
    11  C    3.942347   4.442000   3.671546   4.683834   1.346870
    12  C    4.446267   3.771418   4.837677   5.078039   1.500591
    13  H    5.277863   4.966662   5.082966   6.212057   1.080110
    14  C    3.402478   4.001558   3.534048   3.822054   2.292699
    15  H    4.321397   5.172524   3.695967   5.094540   2.168002
    16  H    4.364069   3.164430   4.915918   5.049025   2.177217
    17  H    5.498668   4.718107   5.909155   6.049310   2.158128
    18  C    3.718827   3.556002   4.251681   4.073266   2.351593
    19  H    3.380030   4.466567   3.447591   3.537702   3.321161
    20  H    3.987198   3.666900   4.780646   4.059716   3.396898
                   11         12         13         14         15
    11  C    0.000000
    12  C    2.320993   0.000000
    13  H    2.172695   2.288690   0.000000
    14  C    1.462379   2.321759   3.343143   0.000000
    15  H    1.081097   3.372470   2.630350   2.258165   0.000000
    16  H    3.110010   1.097068   2.703846   3.110539   4.116687
    17  H    3.060144   1.097238   2.684868   3.058603   4.053256
    18  C    2.291016   1.500333   3.397420   1.346598   3.319280
    19  H    2.259626   3.372313   4.334842   1.080730   2.690306
    20  H    3.341203   2.287609   4.411618   2.171803   4.332503
                   16         17         18         19         20
    16  H    0.000000
    17  H    1.746523   0.000000
    18  C    2.175597   2.154222   0.000000
    19  H    4.117330   4.048469   2.166695   0.000000
    20  H    2.702876   2.675692   1.079864   2.627837   0.000000
 Symmetry turned off by external request.
 Stoichiometry    C9H8O3
 Framework group  C1[X(C9H8O3)]
 Deg. of freedom    54
 Full point group                 C1      NOp   1
 Rotational constants (GHZ):           1.3450618           0.7607103           0.6190718
 Standard basis: def2TZVP (5D, 7F)
 The following finite field(s) will be applied:
 An electric field of             -0.0027 -0.0040  0.0011
   420 basis functions,   676 primitive gaussians,   480 cartesian basis functions
    43 alpha electrons       43 beta electrons
       nuclear repulsion energy       661.5109180753 Hartrees.
 NAtoms=   20 NActive=   20 NUniq=   20 SFac= 1.00D+00 NAtFMM=   60 NAOKFM=F Big=F
 Integral buffers will be    131072 words long.
 Raffenetti 2 integral format.
 Two-electron integral symmetry is turned off.
 One-electron integrals computed using PRISM.
   1 Symmetry operations used in ECPInt.
 ECPInt:  NShTT=   13530 NPrTT=   41904 LenC2=   13013 LenP2D=   30743.
 LDataN:  DoStor=T MaxTD1= 6 Len=  172
 NBasis=   420 RedAO= T EigKep=  4.03D-05  NBF=   420
 NBsUse=   420 1.00D-06 EigRej= -1.00D+00 NBFU=   420
 The nuclear repulsion energy is now       660.2455204505 hartrees.
 Initial guess from the checkpoint file:  "checkpoint.chk"
 B after Tr=     0.004816   -0.058729    0.013050
         Rot=    0.999987    0.001786    0.000136    0.004838 Ang=   0.59 deg.
 ExpMin= 9.52D-02 ExpMax= 2.70D+04 ExpMxC= 9.22D+02 IAcc=2 IRadAn=         4 AccDes= 0.00D+00
 Harris functional with IExCor=  402 and IRadAn=       4 diagonalized for initial guess.
 HarFok:  IExCor=  402 AccDes= 0.00D+00 IRadAn=         4 IDoV= 1 UseB2=F ITyADJ=14
 ICtDFT=  3500011 ScaDFX=  1.000000  1.000000  1.000000  1.000000
 FoFCou: FMM=F IPFlag=           0 FMFlag=      100000 FMFlg1=           0
         NFxFlg=           0 DoJE=T BraDBF=F KetDBF=T FulRan=T
         wScrn=  0.000000 ICntrl=       500 IOpCl=  0 I1Cent=   200000004 NGrid=           0
         NMat0=    1 NMatS0=      1 NMatT0=    0 NMatD0=    1 NMtDS0=    0 NMtDT0=    0
 Symmetry not used in FoFCou.
 Requested convergence on RMS density matrix=1.00D-08 within 128 cycles.
 Requested convergence on MAX density matrix=1.00D-06.
 Requested convergence on             energy=1.00D-06.
 No special actions if energy rises.
 Integral accuracy reduced to 1.0D-05 until final iterations.
 Initial convergence to 1.0D-05 achieved.  Increase integral accuracy.
 SCF Done:  E(RB3LYP) =  -573.632261943     A.U. after   11 cycles
            NFock= 11  Conv=0.52D-08     -V/T= 2.0047
   1 Symmetry operations used in ECPInt.
 ECPInt:  NShTT=   13530 NPrTT=   41904 LenC2=   13013 LenP2D=   30743.
 LDataN:  DoStor=T MaxTD1= 7 Len=  274
 Calling FoFJK, ICntrl=      2127 FMM=F ISym2X=0 I1Cent= 0 IOpClX= 0 NMat=1 NMatS=1 NMatT=0.
 -------------------------------------------------------------------
 Center     Atomic                   Forces (Hartrees/Bohr)
 Number     Number              X              Y              Z
 -------------------------------------------------------------------
      1        6           0.001614403    0.003348919    0.000074218
      2        6          -0.001709862   -0.001237939   -0.000037922
      3        6           0.000262523   -0.001163363    0.000118421
      4        1          -0.000016021   -0.000087647    0.000001997
      5        8           0.000028336   -0.000524970    0.000029448
      6        6           0.000056215    0.001004258   -0.000755108
      7        1          -0.000009327   -0.000134883    0.000033539
      8        8          -0.000321295   -0.001123736    0.000332131
      9        8           0.000022371   -0.000321867    0.000246163
     10        6           0.000174341   -0.000496553   -0.000219195
     11        6           0.000282936    0.000313249    0.000173401
     12        6          -0.000091694   -0.000024641   -0.000080158
     13        1           0.000004074    0.000092292    0.000014549
     14        6          -0.000228073    0.000382457    0.000240889
     15        1           0.000015790   -0.000016000   -0.000043788
     16        1          -0.000052178    0.000139300    0.000014019
     17        1           0.000046854    0.000103487    0.000025313
     18        6          -0.000049223   -0.000100489   -0.000180690
     19        1          -0.000022366   -0.000082909   -0.000008138
     20        1          -0.000007804   -0.000068966    0.000020911
 -------------------------------------------------------------------
 Cartesian Forces:  Max     0.003348919 RMS     0.000634539
 -----------------------------------------------------------------------------------------------
                       Internal Coordinate Forces (Hartree/Bohr or radian)
  Cent   Atom   N1       Length/X         N2         Alpha/Y        N3         Beta/Z          J
 -----------------------------------------------------------------------------------------------
      1  C 
      2  C        1   0.000324(     1)
      3  C        1   0.000426(     2)      2   0.001065(    20)
      4  H        1   0.000010(     3)      2  -0.000018(    21)      3  -0.000152(    38)     0
      5  O        2   0.000004(     4)      1   0.000080(    22)      3  -0.001895(    39)     0
      6  C        3  -0.000388(     5)      1   0.000476(    23)      2  -0.001753(    40)     0
      7  H        3  -0.000036(     6)      1   0.000011(    24)      6  -0.000210(    41)     0
      8  O        2  -0.000191(     7)      1   0.001071(    25)      5  -0.002807(    42)     0
      9  O        6   0.000067(     8)      3   0.000531(    26)      1  -0.000551(    43)     0
     10  C        1   0.000234(     9)      2   0.000748(    27)      3   0.000101(    44)     0
     11  C       10   0.000261(    10)      1   0.001768(    28)      2   0.000218(    45)     0
     12  C       10   0.000049(    11)      1   0.000112(    29)     11   0.000978(    46)     0
     13  H       10   0.000005(    12)      1   0.000188(    30)     11   0.000029(    47)     0
     14  C       11  -0.000307(    13)     10   0.000441(    31)      1   0.000765(    48)     0
     15  H       11  -0.000046(    14)     10  -0.000003(    32)     14   0.000030(    49)     0
     16  H       12  -0.000096(    15)     10  -0.000007(    33)      1   0.000961(    50)     0
     17  H       12   0.000078(    16)     10  -0.000029(    34)     16   0.000164(    51)     0
     18  C       12  -0.000101(    17)     10   0.000237(    35)     16   0.000579(    52)     0
     19  H       14  -0.000012(    18)     11  -0.000020(    36)     10   0.000142(    53)     0
     20  H       18  -0.000016(    19)     12   0.000053(    37)     10  -0.000111(    54)     0
 -----------------------------------------------------------------------------------------------
 Internal  Forces:  Max     0.002806705 RMS     0.000685071

 GradGradGradGradGradGradGradGradGradGradGradGradGradGradGradGradGradGrad
 Berny optimization.
 Search for a local minimum.
 Step number   3 out of a maximum of   64
 All quantities printed in internal units (Hartrees-Bohrs-Radians)
 Update second derivatives using D2CorN and points    1    2    3
 DE= -2.59D-05 DEPred=-5.41D-05 R= 4.79D-01
 Trust test= 4.79D-01 RLast= 1.56D-01 DXMaxT set to 1.68D-01
 ITU=  0  1  0
     Eigenvalues ---    0.00461   0.03480   0.04680   0.05279   0.06701
     Eigenvalues ---    0.09069   0.10036   0.11166   0.12464   0.13815
     Eigenvalues ---    0.16759   0.19147   0.19816   0.21597   0.23963
     Eigenvalues ---    0.27817   0.28190   0.29045   0.29388   0.30683
     Eigenvalues ---    0.31585   0.32664   0.33976   0.34028   0.34389
     Eigenvalues ---    0.34620   0.35875   0.35897   0.35986   0.36011
     Eigenvalues ---    0.36205   0.36233   0.36239   0.37493   0.39624
     Eigenvalues ---    0.39670   0.42333   0.45364   0.46333   0.49926
     Eigenvalues ---    0.53572   0.54924   0.58757   0.60419   0.64620
     Eigenvalues ---    0.66902   0.77545   1.08884   1.10732   1.81215
     Eigenvalues ---    1.93926   1.99250  15.86745  19.64681
 RFO step:  Lambda=-1.84010889D-05 EMin= 4.61380414D-03
 Quartic linear search produced a step of -0.35010.
 Variable       Old X    -DE/DX   Delta X   Delta X   Delta X     New X
                                 (Linear)    (Quad)   (Total)
    R2        2.80430   0.00032   0.00047  -0.00038   0.00009   2.80439
    R3        2.51582   0.00043  -0.00026   0.00051   0.00025   2.51607
    R4        2.03687   0.00001   0.00007  -0.00004   0.00003   2.03690
    R5        2.25673   0.00000  -0.00071   0.00058  -0.00013   2.25660
    R6        2.80691  -0.00039   0.00025  -0.00059  -0.00034   2.80657
    R7        2.03764  -0.00004   0.00003  -0.00010  -0.00007   2.03757
    R8        2.61348  -0.00019   0.00126  -0.00132  -0.00006   2.61341
    R9        2.24465   0.00007   0.00019  -0.00010   0.00009   2.24474
   R10        6.81658   0.00023   0.05323  -0.02299   0.03024   6.84682
   R11        2.54522   0.00026  -0.00018   0.00027   0.00009   2.54530
   R12        2.83571   0.00005   0.00015  -0.00030  -0.00015   2.83556
   R13        2.04111   0.00001   0.00005  -0.00003   0.00002   2.04113
   R14        2.76350  -0.00031   0.00039  -0.00092  -0.00053   2.76297
   R15        2.04298  -0.00005   0.00000  -0.00010  -0.00009   2.04288
   R16        2.07316  -0.00010  -0.00004  -0.00019  -0.00022   2.07294
   R17        2.07348   0.00008   0.00002   0.00016   0.00018   2.07366
   R18        2.83522  -0.00010   0.00017  -0.00014   0.00003   2.83525
   R19        2.04228  -0.00001   0.00004  -0.00005  -0.00002   2.04227
   R20        2.04065  -0.00002  -0.00004  -0.00000  -0.00004   2.04060
    A3        1.88721   0.00106  -0.00005  -0.00008  -0.00013   1.88708
    A4        2.13204  -0.00002  -0.00016   0.00012  -0.00004   2.13200
    A5        2.26391   0.00008   0.00044  -0.00047  -0.00003   2.26388
    A6        1.88930   0.00048   0.00014  -0.00002   0.00012   1.88941
    A7        2.26799   0.00001  -0.00034   0.00024  -0.00009   2.26789
    A8        1.88101   0.00107  -0.00031   0.00041   0.00010   1.88111
    A9        2.27808   0.00053  -0.00074   0.00122   0.00048   2.27856
   A10        1.59060   0.00075   0.00043   0.00079   0.00122   1.59182
   A11        1.37848   0.00177   0.00049   0.00133   0.00182   1.38030
   A12        1.55360   0.00011  -0.00027   0.00107   0.00080   1.55440
   A13        1.78714   0.00019  -0.00145   0.00106  -0.00039   1.78675
   A14        1.90815   0.00044  -0.00004  -0.00010  -0.00014   1.90801
   A15        2.20152  -0.00000   0.00008  -0.00002   0.00005   2.20157
   A16        1.97171  -0.00001  -0.00080   0.00066  -0.00015   1.97157
   A17        1.94438  -0.00003   0.00049  -0.00035   0.00014   1.94452
   A18        1.80095   0.00024  -0.00008  -0.00027  -0.00035   1.80060
   A19        2.17641  -0.00002  -0.00015   0.00002  -0.00013   2.17628
   A20        2.16573   0.00005   0.00004   0.00009   0.00013   2.16586
    D4        3.17459  -0.00015  -0.00354   0.00214  -0.00139   3.17319
    D5       -3.12531  -0.00189   0.00501   0.00160   0.00661  -3.11870
    D6        0.03868  -0.00175  -0.00331   0.00379   0.00047   0.03915
    D7        3.11945  -0.00021   0.00192  -0.00367  -0.00175   3.11770
    D8        3.11248  -0.00281  -0.00660  -0.00873  -0.01533   3.09714
    D9        3.05037  -0.00055   0.00431  -0.00740  -0.00308   3.04729
   D10       -1.66773   0.00010  -0.00326   0.00268  -0.00058  -1.66831
   D11        0.50055   0.00022  -0.00034   0.00137   0.00102   0.50157
   D12        1.91387   0.00098   0.00008  -0.00011  -0.00003   1.91383
   D13       -2.19072   0.00003  -0.00027   0.00015  -0.00011  -2.19084
   D14        1.47091   0.00077  -0.00047   0.00010  -0.00038   1.47053
   D15        3.12157   0.00003   0.00218  -0.00118   0.00101   3.12257
   D16        0.79464   0.00096  -0.00180   0.00304   0.00124   0.79588
   D17        2.06879   0.00016   0.00010  -0.00005   0.00005   2.06884
   D18       -2.13249   0.00058   0.00153  -0.00178  -0.00024  -2.13273
   D19        3.11511   0.00014   0.00276  -0.00050   0.00226   3.11737
   D20       -3.11596  -0.00011  -0.00285  -0.00021  -0.00305  -3.11902
         Item               Value     Threshold  Converged?
 Maximum Force            0.002807     0.000450     NO 
 RMS     Force            0.000685     0.000300     NO 
 Maximum Displacement     0.030243     0.001800     NO 
 RMS     Displacement     0.004779     0.001200     NO 
 Predicted change in Energy=-2.503356D-05
 GradGradGradGradGradGradGradGradGradGradGradGradGradGradGradGradGradGrad

 ---------------------------------------------------------------------------------------------------
                            Z-MATRIX (ANGSTROMS AND DEGREES)
   CD    Cent   Atom    N1       Length/X        N2       Alpha/Y        N3        Beta/Z          J
 ---------------------------------------------------------------------------------------------------
      1      1  C 
      2      2  C        1   1.484020(     1)
      3      3  C        1   1.331447(     2)      2  108.122(    20)
      4      4  H        1   1.077883(     3)      2  122.155(    21)      3  181.811(    38)      0
      5      5  O        2   1.194140(     4)      1  129.711(    22)      3 -178.688(    39)      0
      6      6  C        3   1.485175(     5)      1  108.255(    23)      2    2.243(    40)      0
      7      7  H        3   1.078233(     6)      1  129.941(    24)      6  178.631(    41)      0
      8      8  O        2   1.382959(     7)      1  107.780(    25)      5  177.453(    42)      0
      9      9  O        6   1.187863(     8)      3  130.552(    26)      1  174.597(    43)      0
     10     10  C        1   3.623181(     9)      2   91.204(    27)      3  -95.587(    44)      0
     11     11  C       10   1.346917(    10)      1   79.085(    28)      2   28.738(    45)      0
     12     12  C       10   1.500511(    11)      1   89.061(    29)     11  109.655(    46)      0
     13     13  H       10   1.080119(    12)      1  102.373(    30)     11 -125.526(    47)      0
     14     14  C       11   1.462101(    13)     10  109.321(    31)      1   84.255(    48)      0
     15     15  H       11   1.081047(    14)     10  126.141(    32)     14  178.910(    49)      0
     16     16  H       12   1.096951(    15)     10  112.962(    33)      1   45.600(    50)      0
     17     17  H       12   1.097333(    16)     10  111.413(    34)     16  118.536(    51)      0
     18     18  C       12   1.500351(    17)     10  103.167(    35)     16 -122.196(    52)      0
     19     19  H       14   1.080721(    18)     11  124.692(    36)     10  178.612(    53)      0
     20     20  H       18   1.079840(    19)     12  124.095(    37)     10 -178.707(    54)      0
 ---------------------------------------------------------------------------------------------------
                         Z-Matrix orientation:                         
 ---------------------------------------------------------------------
 Center     Atomic      Atomic             Coordinates (Angstroms)
 Number     Number       Type             X           Y           Z
 ---------------------------------------------------------------------
      1          6           0        0.000000    0.000000    0.000000
      2          6           0        0.000000    0.000000    1.484020
      3          6           0        1.265404    0.000000   -0.414129
      4          1           0       -0.912094    0.028834   -0.573660
      5          8           0       -0.918384   -0.021032    2.246973
      6          6           0        2.145921   -0.055211    0.780604
      7          1           0        1.666186    0.012617   -1.415030
      8          8           0        1.316599   -0.028377    1.906318
      9          8           0        3.326261   -0.157828    0.865968
     10          6           0       -0.352675    3.605171   -0.076160
     11          6           0        0.302640    3.437570    1.088596
     12          6           0        0.643526    3.654219   -1.197192
     13          1           0       -1.417606    3.730861   -0.205700
     14          6           0        1.738099    3.344126    0.826941
     15          1           0       -0.145009    3.395739    2.071715
     16          1           0        0.452714    2.902013   -1.972484
     17          1           0        0.617107    4.621559   -1.714584
     18          6           0        1.955307    3.451381   -0.497808
     19          1           0        2.495979    3.228935    1.588719
     20          1           0        2.913028    3.447787   -0.996620
 ---------------------------------------------------------------------
                    Distance matrix (angstroms):
                    1          2          3          4          5
     1  C    0.000000
     2  C    1.484020   0.000000
     3  C    1.331447   2.281275   0.000000
     4  H    1.077883   2.250954   2.183525   0.000000
     5  O    2.427501   1.194140   3.442505   2.821081   0.000000
     6  C    2.284156   2.258942   1.485175   3.345527   3.397260
     7  H    2.186011   3.343774   1.078233   2.712138   4.482343
     8  O    2.316957   1.382959   2.321185   3.334762   2.260807
     9  O    3.440759   3.386873   2.431190   4.480069   4.465747
    10  C    3.623181   3.944085   3.966064   3.653854   4.343539
    11  C    3.618497   3.473448   3.873240   3.982231   3.846384
    12  C    3.898809   4.577809   3.788566   3.994016   5.273453
    13  H    3.996404   4.334061   4.600143   3.754457   4.510159
    14  C    3.858497   3.825692   3.598176   4.469493   4.516380
    15  H    3.980461   3.449269   4.438437   4.349998   3.507584
    16  H    3.537983   4.535863   3.392730   3.474848   5.312996
    17  H    4.967840   5.654264   4.844614   4.973258   6.293276
    18  C    3.997883   4.434287   3.520653   4.465599   5.277270
    19  H    4.379493   4.082511   3.993962   5.150873   4.759565
    20  H    4.622361   5.150392   3.865384   5.147786   6.101911
                    6          7          8          9         10
     6  C    0.000000
     7  H    2.248456   0.000000
     8  O    1.398473   3.339947   0.000000
     9  O    1.187863   2.826278   2.266677   0.000000
    10  C    4.513914   4.332992   4.463113   5.346245   0.000000
    11  C    3.961321   4.456199   3.702645   4.703056   1.346917
    12  C    4.464161   3.788740   4.862748   5.097587   1.500511
    13  H    5.292057   4.979718   5.105720   6.226929   1.080119
    14  C    3.424026   4.016286   3.566020   3.845446   2.292395
    15  H    4.338707   5.184914   3.726691   5.111885   2.168031
    16  H    4.380824   3.183061   4.937469   5.067219   2.176954
    17  H    5.516830   4.736312   5.934824   6.069704   2.158229
    18  C    3.737225   3.570712   4.277439   4.094604   2.351217
    19  H    3.400177   4.478366   3.478777   3.561165   3.320875
    20  H    4.002246   3.678326   4.802016   4.079271   3.396591
                   11         12         13         14         15
    11  C    0.000000
    12  C    2.321200   0.000000
    13  H    2.172665   2.288492   0.000000
    14  C    1.462101   2.321931   3.342812   0.000000
    15  H    1.081047   3.372589   2.630292   2.257925   0.000000
    16  H    3.111199   1.096951   2.703075   3.111987   4.117838
    17  H    3.059173   1.097333   2.685169   3.057418   4.052100
    18  C    2.290890   1.500351   3.397055   1.346715   3.319167
    19  H    2.259289   3.372499   4.334515   1.080721   2.689968
    20  H    3.341011   2.287680   4.411358   2.171768   4.332318
                   16         17         18         19         20
    16  H    0.000000
    17  H    1.746533   0.000000
    18  C    2.175836   2.154215   0.000000
    19  H    4.118735   4.047391   2.166887   0.000000
    20  H    2.702467   2.676652   1.079840   2.627889   0.000000
 Symmetry turned off by external request.
 Stoichiometry    C9H8O3
 Framework group  C1[X(C9H8O3)]
 Deg. of freedom    54
 Full point group                 C1      NOp   1
 Rotational constants (GHZ):           1.3452442           0.7534018           0.6142609
 Standard basis: def2TZVP (5D, 7F)
 The following finite field(s) will be applied:
 An electric field of             -0.0027 -0.0040  0.0011
   420 basis functions,   676 primitive gaussians,   480 cartesian basis functions
    43 alpha electrons       43 beta electrons
       nuclear repulsion energy       660.4340259462 Hartrees.
 NAtoms=   20 NActive=   20 NUniq=   20 SFac= 1.00D+00 NAtFMM=   60 NAOKFM=F Big=F
 Integral buffers will be    131072 words long.
 Raffenetti 2 integral format.
 Two-electron integral symmetry is turned off.
 One-electron integrals computed using PRISM.
   1 Symmetry operations used in ECPInt.
 ECPInt:  NShTT=   13530 NPrTT=   41904 LenC2=   13008 LenP2D=   30711.
 LDataN:  DoStor=T MaxTD1= 6 Len=  172
 NBasis=   420 RedAO= T EigKep=  4.08D-05  NBF=   420
 NBsUse=   420 1.00D-06 EigRej= -1.00D+00 NBFU=   420
 The nuclear repulsion energy is now       659.1654151315 hartrees.
 Initial guess from the checkpoint file:  "checkpoint.chk"
 B after Tr=    -0.001878    0.009462   -0.004281
         Rot=    1.000000   -0.000106   -0.000128   -0.000244 Ang=  -0.03 deg.
 ExpMin= 9.52D-02 ExpMax= 2.70D+04 ExpMxC= 9.22D+02 IAcc=2 IRadAn=         4 AccDes= 0.00D+00
 Harris functional with IExCor=  402 and IRadAn=       4 diagonalized for initial guess.
 HarFok:  IExCor=  402 AccDes= 0.00D+00 IRadAn=         4 IDoV= 1 UseB2=F ITyADJ=14
 ICtDFT=  3500011 ScaDFX=  1.000000  1.000000  1.000000  1.000000
 FoFCou: FMM=F IPFlag=           0 FMFlag=      100000 FMFlg1=           0
         NFxFlg=           0 DoJE=T BraDBF=F KetDBF=T FulRan=T
         wScrn=  0.000000 ICntrl=       500 IOpCl=  0 I1Cent=   200000004 NGrid=           0
         NMat0=    1 NMatS0=      1 NMatT0=    0 NMatD0=    1 NMtDS0=    0 NMtDT0=    0
 Symmetry not used in FoFCou.
 Requested convergence on RMS density matrix=1.00D-08 within 128 cycles.
 Requested convergence on MAX density matrix=1.00D-06.
 Requested convergence on             energy=1.00D-06.
 No special actions if energy rises.
 Integral accuracy reduced to 1.0D-05 until final iterations.
 Initial convergence to 1.0D-05 achieved.  Increase integral accuracy.
 SCF Done:  E(RB3LYP) =  -573.632282337     A.U. after   10 cycles
            NFock= 10  Conv=0.71D-08     -V/T= 2.0047
   1 Symmetry operations used in ECPInt.
 ECPInt:  NShTT=   13530 NPrTT=   41904 LenC2=   13008 LenP2D=   30711.
 LDataN:  DoStor=T MaxTD1= 7 Len=  274
 Calling FoFJK, ICntrl=      2127 FMM=F ISym2X=0 I1Cent= 0 IOpClX= 0 NMat=1 NMatS=1 NMatT=0.
 -------------------------------------------------------------------
 Center     Atomic                   Forces (Hartrees/Bohr)
[...]
 82766,0.32681062,-0.02195811,0.00207133,-0.03047363,-0.11066711,0.0000
 0031,-0.06278269,0.00108378,-0.00069069,0.00452234,0.00263976,-0.00034
 864,-0.00417125,-0.10136306,0.00042789,0.02280093,-0.05651986,0.000956
 73,-0.01191243,0.00125303,0.00019944,0.00018981,0.37397630,0.00132406,
 0.01644033,0.00064865,-0.00012438,-0.06008636,0.00266783,-0.00014106,0
 .01590420,0.00124131,-0.00000784,0.00209961,0.00006747,0.00093952,0.01
 444316,-0.00075545,0.00126539,-0.05861450,0.00134000,0.00017996,0.0018
 6717,0.00018490,-0.00964555,0.05451715,-0.03283955,-0.00008882,-0.0316
 9350,-0.05310870,0.00248424,-0.16016888,0.00773074,-0.00021317,-0.0578
 8300,0.00193576,0.00015828,-0.00483449,0.04717211,-0.00060166,0.029557
 52,-0.02378563,0.00261642,-0.18069997,-0.00645491,-0.00004231,-0.00321
 794,0.02011029,-0.00183413,0.39026095,0.00439588,-0.00070567,-0.011278
 43,0.02373848,-0.00011692,0.01679150,-0.05047511,0.00508111,-0.0148704
 7,-0.00154528,-0.00031450,0.00020654,-0.01064693,-0.00000257,-0.000409
 66,-0.77321832,0.06387162,-0.08466186,-0.00033536,0.00007426,-0.001588
 94,-0.08908631,0.00610241,0.03919614,0.89696496,0.00022961,0.00094101,
 0.00174906,-0.00141656,0.00705800,-0.00185150,0.00564042,0.02123630,0.
 00096203,0.00015648,-0.00273005,-0.00025129,0.00063050,-0.00146281,0.0
 0034019,0.06249599,-0.07353413,0.00812978,-0.00001460,-0.00107773,0.00
 009746,0.00707224,0.01367928,-0.00309074,-0.07557489,0.03685929,-0.002
 35697,-0.00056399,-0.00540878,-0.01352080,0.00020292,-0.01503937,-0.03
 625795,0.00310777,0.01116918,-0.00157323,-0.00014465,0.00191128,0.0084
 6795,0.00013897,0.00084906,-0.07473707,0.00726896,-0.10661461,0.002067
 97,-0.00017316,0.00169392,0.06149363,-0.00424124,0.01803920,0.05658238
 ,-0.00649500,0.09308578,0.00009472,0.00049922,-0.00035530,-0.00096381,
 0.00087083,0.00037021,0.00037836,-0.00077500,0.00027481,0.00016887,-0.
 00001935,0.00009825,0.00044476,-0.00056014,-0.00023212,-0.00233564,-0.
 00069648,-0.00034404,-0.00013793,0.00005089,-0.00005982,0.00081490,-0.
 00012839,-0.00006554,0.00119880,0.00051026,0.00016489,0.74639652,-0.00
 039540,0.00107344,-0.00054920,-0.00035418,0.00012230,0.00012548,0.0012
 4663,-0.00060042,0.00033403,0.00008474,-0.00010586,0.00015519,0.000240
 89,-0.00016817,0.00005592,-0.00062907,-0.00010455,-0.00123192,-0.00002
 136,0.00001625,-0.00001057,-0.00018171,0.00012879,0.00040062,0.0006272
 6,-0.00007254,0.00036205,-0.08656477,0.15310728,-0.00150081,0.00164735
 ,0.00085684,-0.00032332,0.00175769,-0.00142756,0.00269687,-0.00036077,
 -0.00032088,-0.00001578,-0.00019433,0.00022741,-0.00061318,-0.00072505
 ,0.00101252,-0.00218324,-0.00020721,-0.00168112,0.00008499,-0.00028269
 ,0.00011230,0.00052957,-0.00027807,0.00003638,0.00173912,0.00009457,0.
 00056334,0.12830656,-0.05738271,0.61576147,0.00256376,-0.00257147,-0.0
 0143400,0.00119621,-0.00125515,0.00108818,-0.00396239,-0.00063239,0.00
 047652,-0.00000849,0.00026985,-0.00015759,0.00051060,0.00075095,-0.000
 82994,0.00216885,0.00061108,0.00197853,-0.00007409,0.00034732,-0.00010
 065,-0.00076518,-0.00004733,-0.00010716,-0.00222462,0.00000016,-0.0006
 8979,-0.17886643,0.02716322,-0.13800132,0.54685030,0.00020647,0.000278
 73,0.00010866,-0.00077442,0.00109486,0.00003754,0.00097883,-0.00094616
 ,0.00000134,0.00001413,0.00006885,0.00014794,-0.00006993,-0.00097175,0
 .00015158,-0.00115109,-0.00036297,-0.00079118,0.00000623,-0.00007674,0
 .00001883,0.00046675,-0.00020306,-0.00013450,0.00098340,-0.00010996,0.
 00024486,0.02612954,-0.06745558,0.03914454,-0.04839589,0.13999776,0.00
 136146,-0.00100195,-0.00096258,-0.00079175,-0.00134795,0.00225036,-0.0
 0212428,-0.00006683,-0.00015061,0.00002521,0.00010687,-0.00017941,0.00
 124341,0.00050447,-0.00167361,0.00077774,-0.00028499,0.00170146,-0.000
 07177,0.00014639,-0.00013046,0.00021284,0.00024893,-0.00030304,-0.0009
 8426,0.00026338,-0.00043996,-0.15070931,0.04276173,-0.37900489,-0.0139
 6405,-0.05048895,0.84459361,-0.00031501,-0.00029799,0.00065919,-0.0001
 3443,-0.00014817,-0.00063772,-0.00008894,0.00049457,-0.00051064,-0.000
 07601,-0.00001475,-0.00000649,-0.00015322,0.00004462,0.00029437,0.0003
 7612,0.00019163,0.00012790,0.00005089,-0.00012135,0.00010448,0.0002067
 3,0.00009755,-0.00006186,-0.00018605,-0.00007741,-0.00001034,-0.134923
 80,0.00028978,0.06725494,0.00619563,-0.00038433,0.00263968,0.41439470,
 0.00017722,-0.00012200,-0.00010374,-0.00006763,0.00014291,0.00044617,-
 0.00015948,-0.00026584,0.00025597,-0.00006450,-0.00004055,0.00006347,0
 .00014688,-0.00004266,-0.00021324,0.00033381,0.00014197,0.00021964,0.0
 0007062,-0.00010748,0.00002887,-0.00008979,-0.00005331,-0.00022827,-0.
 00019352,-0.00010778,-0.00005781,0.00144630,-0.07210775,-0.00266745,0.
 00284840,0.00451383,0.00583499,0.00995399,0.50839928,-0.00053267,0.000
 09988,0.00016661,-0.00064298,-0.00021038,-0.00055391,0.00063490,0.0000
 9397,0.00020079,-0.00008556,-0.00004846,0.00012197,0.00001456,0.000051
 53,0.00027181,0.00061556,-0.00011231,-0.00108703,0.00019804,-0.0001101
 1,-0.00000666,-0.00010101,0.00057789,0.00026791,-0.00001954,-0.0001087
 4,0.00027107,0.04977699,-0.00027263,-0.13186389,-0.00509451,0.00657620
 ,-0.05413287,0.02904052,-0.00199361,0.56576567,0.00003035,-0.00003148,
 -0.00009247,-0.00025815,-0.00000143,0.00008326,-0.00007466,-0.00004039
 ,0.00006076,0.00001486,0.00007446,0.00002330,0.00015588,-0.00002498,-0
 .00008691,-0.00012400,-0.00009981,0.00001867,-0.00000624,-0.00002101,-
 0.00000969,0.00016787,0.00004298,0.00001297,0.00006570,0.00006510,0.00
 000439,-0.33527610,0.04396160,-0.03312022,-0.00744215,0.00138797,0.003
 64223,-0.00816678,0.00161248,-0.00641227,0.35248309,0.00011312,0.00001
 646,0.00021920,0.00036312,0.00000328,0.00000831,-0.00001054,0.00008067
 ,-0.00014687,-0.00000803,-0.00014110,-0.00008611,-0.00025383,0.0000587
 4,0.00000379,0.00015145,0.00001447,0.00016075,0.00000962,0.00002224,-0
 .00000092,-0.00018276,-0.00003505,-0.00012384,-0.00012607,0.00004278,-
 0.00007248,0.04590645,-0.03620829,0.00779484,0.00293320,0.00445352,-0.
 00058444,-0.00202067,-0.00123730,-0.00032024,-0.04785812,0.02829106,0.
 00006540,-0.00001477,0.00000995,-0.00021762,-0.00002800,0.00013014,-0.
 00004199,0.00000640,-0.00003669,-0.00000409,-0.00001857,0.00002466,0.0
 0012287,-0.00003787,-0.00009352,-0.00000727,-0.00001613,0.00004813,0.0
 0000897,0.00001936,0.00000221,0.00008223,0.00001754,-0.00002811,-0.000
 00051,0.00001223,-0.00000570,-0.02990224,0.00751601,-0.06089147,-0.026
 37386,0.00359143,0.00473350,0.01986372,-0.00395073,0.00897087,0.036172
 45,-0.00802003,0.05345935,-0.00277850,0.00053629,0.00127758,0.00117486
 ,-0.00077298,-0.00205179,0.00252231,0.00199706,-0.00023374,-0.00002871
 ,-0.00023337,0.00001946,-0.00131621,0.00024482,0.00144103,0.00024621,0
 .00096329,-0.00077883,0.00003015,-0.00027215,0.00012427,-0.00077735,-0
 .00017050,0.00016225,0.00059000,-0.00045807,0.00016349,-0.05335249,0.0
 1008131,-0.04132501,-0.21823468,0.01581198,0.03245761,-0.00118493,-0.0
 0004897,-0.01447385,-0.00038558,0.00101982,-0.00217369,0.59322170,-0.0
 0032020,-0.00116801,0.00026431,0.00069729,-0.00050474,-0.00104708,-0.0
 0061076,-0.00031119,0.00037560,-0.00000317,0.00002937,0.00001260,-0.00
 052222,0.00009748,0.00057767,0.00030696,0.00098645,-0.00010163,0.00008
 868,0.00006675,0.00009171,-0.00057851,-0.00053085,0.00000455,0.0001122
 3,-0.00088730,-0.00000931,0.00828148,0.00897719,0.00532986,0.01543779,
 -0.06022036,-0.00134771,0.00298685,0.00455657,0.00683961,0.00133268,0.
 00700850,0.00104014,-0.05393927,0.14138676,0.00297333,-0.00021769,-0.0
 0192898,-0.00010062,0.00026178,0.00302040,-0.00313978,-0.00199214,-0.0
 0017372,0.00002218,0.00013781,-0.00015542,0.00112393,-0.00001661,-0.00
 164049,0.00158018,-0.00219504,0.00231998,-0.00017223,0.00035840,-0.000
 21147,0.00021246,0.00037213,-0.00048885,-0.00227843,0.00111338,-0.0008
 7033,-0.01505004,0.00284764,0.01608869,0.00886561,0.00104508,-0.109427
 35,-0.02149096,0.00872801,-0.04741864,-0.00238992,0.00108691,-0.004499
 26,0.10217320,-0.05982526,0.80096693,0.00011182,0.00007680,-0.00010587
 ,0.00027945,0.00016425,0.00042087,-0.00011912,-0.00008696,-0.00005380,
 0.00000695,-0.00000786,-0.00002472,-0.00005189,-0.00006812,-0.00016346
 ,-0.00026313,-0.00010277,0.00040773,-0.00001995,-0.00001113,-0.0000254
 9,-0.00001772,-0.00014018,-0.00028873,0.00006411,0.00006903,-0.0000997
 4,0.01239649,0.00011751,-0.01526860,-0.10766984,0.00090203,0.10725506,
 -0.00186147,0.00193532,-0.00270864,0.00029078,-0.00070064,0.00094617,-
 0.00131100,-0.00109400,0.02430914,0.10262188,-0.00019237,0.00004814,0.
 00007974,0.00064403,-0.00073190,-0.00079062,0.00011904,0.00006983,0.00
 004581,-0.00000354,-0.00001879,-0.00000172,-0.00028929,0.00050904,0.00
 040884,0.00062918,0.00004496,-0.00044432,0.00000859,-0.00003225,0.0000
 1937,-0.00042161,0.00016818,0.00035896,-0.00033368,-0.00002445,0.00005
 732,-0.00190959,0.00396548,0.00353039,0.00159377,-0.03764335,0.0038193
 1,0.00170341,0.01135166,0.00164097,-0.00073144,-0.00497214,-0.00065516
 ,0.00002976,0.00066869,-0.00244518,-0.00146502,0.02546047,-0.00012493,
 0.00001075,0.00008617,0.00054958,-0.00024482,-0.00055837,0.00013495,0.
 00004438,0.00001148,0.00001015,-0.00000778,-0.00001476,-0.00034997,0.0
 0028106,0.00033500,0.00028644,0.00006870,-0.00030142,-0.00000829,0.000
 01657,0.00001429,-0.00025259,0.00004906,0.00022588,-0.00013181,-0.0000
 5010,0.00005258,0.01477653,-0.00039788,-0.01496361,0.10611075,0.004423
 38,-0.29408808,-0.00189375,0.00102541,-0.00252531,-0.00050519,-0.00030
 851,0.00074113,-0.00279316,0.00013959,0.00264482,-0.11612663,-0.005229
 28,0.30999738,0.00023253,0.00000983,0.00024613,-0.00022715,0.00016711,
 -0.00006867,-0.00000563,-0.00007286,-0.00032466,-0.00002006,-0.0000963
 9,0.00002151,0.00002041,-0.00009418,0.00001555,-0.00018580,-0.00021433
 ,-0.00006822,-0.00001637,0.00022041,0.00002215,0.00016347,0.00004364,0
 .00009153,0.00002408,0.00010407,0.00005904,0.00690043,0.01654374,0.015
 36188,-0.00367661,-0.00235025,0.00305564,-0.05236192,-0.03494797,-0.03
 407919,-0.00011611,-0.00072048,-0.00082257,-0.00430059,0.00296492,-0.0
 0219523,0.00029172,-0.00173195,0.00026539,0.05484436,0.00000722,0.0000
 1185,-0.00002184,-0.00003944,-0.00007354,0.00022546,-0.00001963,-0.000
 09218,0.00007425,-0.00002444,-0.00002237,-0.00000699,0.00007364,0.0000
 1918,-0.00010066,0.00016042,-0.00007231,0.00012596,0.00003923,-0.00011
 259,0.00000247,-0.00000802,-0.00004974,0.00001192,-0.00010581,0.000031
 66,-0.00004425,0.00058576,-0.00007749,0.00192480,-0.00013763,0.0002387
 1,0.00021181,-0.03426941,-0.15566201,-0.12376128,0.00035933,0.00022347
 ,-0.00054590,0.00108832,-0.00033196,0.00047031,-0.00002296,-0.00032353
 ,0.00018950,0.03823418,0.17555724,0.00030034,-0.00017216,0.00003337,0.
 00015258,-0.00012258,-0.00059176,-0.00025996,-0.00016525,0.00014012,0.
 00012787,0.00017213,-0.00002005,-0.00008974,0.00008320,0.00024272,-0.0
 0043577,-0.00006733,-0.00034539,-0.00013183,0.00019885,0.00011806,0.00
 013206,0.00004771,0.00042608,0.00018469,0.00004892,0.00012066,-0.00581
 776,-0.01369969,-0.01612096,0.00161994,-0.00035928,-0.00222866,-0.0344
 5811,-0.12754627,-0.16028774,0.00054597,0.00076185,0.00030247,-0.00084
 521,-0.00109013,-0.00088727,-0.00010435,0.00179828,-0.00061344,0.03873
 067,0.13597195,0.18004043,0.00000981,0.00002355,0.00014618,-0.00020427
 ,0.00014295,-0.00006029,0.00000070,0.00001082,-0.00012527,0.00001415,0
 .00001365,0.00000439,0.00003242,-0.00009297,0.00001289,-0.00014309,-0.
 00018998,0.00000835,0.00000022,-0.00000512,0.00000960,0.00016827,0.000
 02202,0.00000541,0.00005463,0.00008775,0.00001676,0.00096573,-0.020288
 07,0.01154454,-0.00323010,0.00208918,0.00299413,-0.03897458,0.00168554
 ,0.00078790,0.00002145,0.00090585,-0.00041459,-0.00429247,-0.00112510,
 -0.00251746,0.00063490,0.00156466,0.00038113,0.00071938,-0.00605392,0.
 00261945,0.04344397,0.00005165,-0.00001582,0.00004593,0.00004958,-0.00
 004185,-0.00019093,-0.00000495,-0.00001974,0.00005455,0.00003722,0.000
 04002,-0.00000290,-0.00005343,0.00000701,0.00009247,-0.00013200,0.0000
 0479,-0.00012745,-0.00004832,0.00006699,0.00003662,0.00002246,0.000016
 81,0.00011960,0.00008479,-0.00001987,0.00003870,-0.00078718,0.00090050
 ,0.00033085,-0.00106142,-0.00003722,-0.00133504,0.00070865,-0.23492083
 ,0.10773573,-0.00025930,0.00032121,0.00061906,0.00140423,0.00003522,-0
 .00121199,-0.00012902,-0.00039612,-0.00012493,-0.00048170,-0.02230470,
 0.00949912,-0.00075855,0.25986362,0.00001453,-0.00002004,0.00005604,0.
 00005819,-0.00004537,-0.00016499,0.00003026,-0.00003418,0.00005018,0.0
 0003292,0.00003458,-0.00000194,-0.00006120,0.00000801,0.00009290,-0.00
 010304,0.00002141,-0.00011720,-0.00004211,0.00005111,0.00003789,0.0000
 0636,-0.00001822,0.00012526,0.00008626,-0.00002922,0.00003581,-0.00076
 824,0.01874834,-0.01302237,0.00122816,0.00030802,-0.00196624,0.0013246
 3,0.11279170,-0.09279984,0.00015856,-0.00086328,0.00031878,-0.00015394
 ,0.00104357,-0.00070044,-0.00052313,-0.00183972,-0.00079121,-0.0002884
 9,-0.02004840,0.00975372,0.00010198,-0.11881102,0.10746458,-0.00070181
 ,0.00036774,0.00004443,-0.00104140,0.00037779,0.00023165,0.00070108,0.
 00027246,0.00019043,-0.00003851,-0.00005283,0.00011924,0.00032523,-0.0
 0032527,-0.00009481,-0.00062159,-0.00020489,-0.00048707,0.00016630,-0.
 00010221,-0.00005870,0.00036026,0.00009398,-0.00000236,0.00047347,0.00
 027170,0.00013489,-0.05624663,0.00669523,0.00697428,-0.02573187,0.0019
 3650,0.03235377,-0.17211934,0.01528272,-0.03217817,-0.00068961,0.00009
 186,0.00291014,-0.11072065,-0.00022469,0.05177384,-0.00598692,0.000872
 49,-0.00094851,-0.00293141,0.00069665,-0.00200549,0.00062709,0.0008920
 4,-0.00075127,0.64984252,-0.00131206,-0.00053033,0.00127291,0.00010405
 ,-0.00019244,-0.00200205,0.00061311,0.00123970,-0.00071758,0.00000999,
 -0.00003874,-0.00000874,-0.00062234,0.00004977,0.00099137,0.00073209,0
 .00000456,-0.00053161,0.00005991,-0.00022839,0.00025293,0.00018325,0.0
 0019489,0.00028109,-0.00021762,-0.00040883,0.00034878,0.00632366,0.007
 35268,-0.00007549,0.00051924,0.01001865,-0.00003116,0.01645642,-0.0746
 0599,0.00512956,-0.00026368,-0.00055294,0.00030995,-0.00071149,-0.0636
 0764,0.02673844,0.00075632,0.00190445,0.00020722,-0.02065747,0.0035909
 0,-0.00696464,0.02528163,-0.00398044,0.01032717,-0.03815752,0.14779363
 ,-0.00260771,-0.00057650,0.00154495,0.00150612,-0.00050717,-0.00322117
 ,0.00221874,0.00191932,0.00000254,-0.00000593,-0.00014662,0.00006518,-
 0.00148723,0.00041371,0.00173990,-0.00047296,0.00227088,-0.00155190,0.
 00014645,-0.00036314,0.00024089,-0.00073652,-0.00041891,0.00034375,0.0
 0124333,-0.00108110,0.00054361,0.01018077,-0.00036177,-0.01171838,0.05
 771788,-0.00370997,-0.01282559,-0.05039602,0.00681583,-0.09276343,0.00
 214155,0.00036827,-0.00497652,0.03938310,0.02508276,-0.45317612,0.0015
 6772,-0.00029406,-0.00036039,-0.02022517,0.00559960,-0.00977398,-0.015
 30358,0.00286917,-0.00799461,-0.15270912,-0.03752296,0.72586070,-0.000
 08415,0.00007020,0.00012976,-0.00069014,0.00002904,-0.00029459,0.00016
 896,-0.00004342,0.00003716,0.00000792,0.00001296,0.00003307,0.00018618
 ,-0.00004047,0.00004347,0.00007138,-0.00033322,-0.00071310,0.00001709,
 -0.00000119,0.00001754,0.00022797,0.00031814,0.00041243,0.00002993,0.0
 0015370,0.00016250,-0.00517749,0.00073636,0.00052759,-0.00813920,0.001
 84595,-0.01972726,-0.00033921,0.00078909,0.00229264,-0.00033553,0.0002
 4870,-0.00121544,-0.20133455,0.02575583,-0.14127645,0.00043897,-0.0001
 2806,0.00063781,0.00053823,-0.00006782,0.00003022,0.00011750,-0.000028
 02,-0.00017494,0.00946941,-0.00102822,0.00619419,0.20464869,-0.0000629
 1,0.00005440,0.00009572,-0.00087620,0.00004377,-0.00005915,0.00018748,
 0.00006636,-0.00004255,0.00000784,-0.00003561,0.00002574,0.00034859,-0
 .00002844,-0.00015617,-0.00078468,-0.00078362,-0.00049077,0.00000665,-
 0.00001112,0.00001162,0.00058577,0.00019779,0.00015142,0.00034978,0.00
 043841,0.00022609,0.00051885,0.00188996,-0.00019619,0.00098806,0.00022
 587,0.00179192,0.00129602,0.01138827,0.00123362,0.00009519,0.00055953,
 0.00013712,0.02472988,-0.04159701,0.02401206,-0.00006899,-0.00057876,-
 0.00008875,0.00206720,-0.00068349,0.00107329,-0.00223881,0.00000417,-0
 .00114430,0.00117196,0.00396183,0.00089342,-0.02783582,0.02989544,-0.0
 0003793,-0.00000124,0.00004847,-0.00031665,0.00002307,-0.00000767,0.00
 006955,0.00001917,-0.00004011,0.00001559,0.00000461,-0.00000370,0.0001
 3038,-0.00002671,-0.00007725,-0.00077454,-0.00018945,-0.00003431,-0.00
 001568,0.00000653,-0.00000183,0.00031312,0.00004710,-0.00001670,0.0004
 6732,0.00020819,0.00007096,0.00302231,-0.00019038,-0.00092921,0.007192
 43,-0.00124836,0.00970731,0.00122861,0.00085974,-0.00406731,0.00024420
 ,-0.00010145,0.00071618,-0.13979524,0.02408502,-0.19868801,-0.00086217
 ,0.00007307,-0.00008796,-0.00058588,0.00026913,-0.00047444,-0.00080682
 ,-0.00000604,-0.00059046,-0.02370410,0.00356139,-0.01173840,0.15366977
 ,-0.02693946,0.20532253,-0.00005237,0.00004684,-0.00007694,-0.00010186
 ,0.00004677,0.00013623,0.00001899,0.00002942,0.00011549,0.00000377,0.0
 0001750,0.00000301,0.00007485,-0.00003231,-0.00008935,-0.00019486,-0.0
 0006836,0.00015721,-0.00004094,-0.00011146,-0.00004603,0.00009235,-0.0
 0002443,-0.00011519,0.00011795,0.00005451,-0.00007200,-0.00247926,0.00
 064627,-0.00266885,0.00054031,0.00036692,0.00035391,-0.01033839,-0.000
 71052,0.01296725,-0.00035508,0.00013796,0.00100193,0.00223247,0.000453
 20,-0.00242275,0.00016397,0.00004164,-0.00001789,0.00010704,-0.0004956
 7,-0.00029557,0.00003429,0.00049329,-0.00017550,-0.28513560,0.01193074
 ,0.12164438,0.00017803,-0.00048587,0.00054573,0.29513435,-0.00001118,0
 .00006493,-0.00012997,-0.00008240,0.00000316,0.00024488,-0.00002018,-0
 .00002025,0.00022607,0.00000685,0.00000798,-0.00000662,0.00009871,0.00
 002344,-0.00015749,-0.00069658,0.00004359,0.00035239,-0.00009500,-0.00
 011043,-0.00008409,0.00016111,-0.00008449,-0.00022966,0.00040442,0.000
 14872,-0.00019452,0.00031766,-0.00063320,0.00081507,0.00063822,0.00713
 637,0.00079923,0.00311060,-0.00122101,-0.00304119,0.00039984,0.0020508
 8,0.00001793,-0.00129996,0.00534607,0.00073198,-0.00012364,0.00053040,
 -0.00000356,0.00101247,0.00013290,0.00053204,-0.00107508,0.00047625,-0
 .00048017,0.01004428,-0.03196532,-0.00125075,-0.00045371,-0.00500775,-
 0.00045393,-0.01233643,0.02307777,0.00003289,-0.00000352,-0.00005478,0
 .00013849,-0.00003823,0.00001628,-0.00007378,-0.00002657,0.00004097,-0
 .00000480,0.00001142,-0.00000002,-0.00005791,0.00002704,0.00002577,0.0
 0044950,-0.00001251,-0.00004398,-0.00001015,-0.00000374,0.00003007,-0.
 00017554,0.00003553,0.00005158,-0.00027338,-0.00006149,-0.00002771,-0.
 00366692,0.00078974,-0.00271462,0.00047486,0.00093284,-0.00547288,-0.0
 1307213,-0.00030868,0.01146991,-0.00049161,0.00022426,0.00107389,0.027
 42250,-0.00146588,-0.00477449,0.00144864,-0.00013201,0.00019585,0.0007
 8857,-0.00054784,0.00016605,0.00059528,0.00036850,0.00021414,0.1182069
 3,-0.00156658,-0.12024105,-0.00078636,-0.00053464,0.00089192,-0.130945
 08,0.00231236,0.11915311\\-0.00191745,-0.00399129,0.00000216,0.0019228
 4,0.00275729,-0.00000162,0.00000130,0.00124532,0.00000170,0.00000010,0
 .00000043,-0.00000023,-0.00000065,-0.00000167,0.00000046,-0.00000395,-
 0.00000045,0.00000070,0.00000013,-0.00000538,0.,0.00000140,-0.00000028
 ,-0.00000302,0.00000228,-0.00000341,0.00000057,-0.00000617,0.00001094,
 -0.00000043,0.00000050,-0.00001817,-0.00000289,0.00000208,0.00000996,0
 .00000299,0.00000066,0.00000471,0.00000076,-0.00000115,-0.00000175,0.0
 0000489,0.00000015,0.00000070,0.00000016,-0.00000218,0.00000027,0.0000
 0013,-0.00000006,-0.00000145,-0.00000149,-0.00000015,-0.00000969,-0.00
 000421,0.00000034,-0.00000050,-0.00000046,0.,0.00000443,-0.00000017\\\
 @


 A politician is a person who can make waves and then
 make you think he's the only one who can save the ship.
 -- Ivern Ball
 Job cpu time:       0 days  3 hours 22 minutes 36.8 seconds.
 Elapsed time:       0 days  0 hours 17 minutes  2.4 seconds.
 File lengths (MBytes):  RWF=    289 Int=      0 D2E=      0 Chk=     32 Scr=      1
 Normal termination of Gaussian 16 at Sun Jun 12 03:29:16 2022.
