 Entering Gaussian System, Link 0=g16
 Input=int_zmat_field_N100.gjf
 Output=int_zmat_field_N100.out
 Initial command:
 /software/gaussian/g16-a03/l1.exe "/local_scratch/11177432/Gau-321.inp" -scrdir="/local_scratch/11177432/"
 Entering Link 1 = /software/gaussian/g16-a03/l1.exe PID=       322.
  
 Copyright (c) 1988,1990,1992,1993,1995,1998,2003,2009,2016,
            Gaussian, Inc.  All Rights Reserved.
  
 This is part of the Gaussian(R) 16 program.  It is based on
 the Gaussian(R) 09 system (copyright 2009, Gaussian, Inc.),
 the Gaussian(R) 03 system (copyright 2003, Gaussian, Inc.),
 the Gaussian(R) 98 system (copyright 1998, Gaussian, Inc.),
 the Gaussian(R) 94 system (copyright 1995, Gaussian, Inc.),
 the Gaussian 92(TM) system (copyright 1992, Gaussian, Inc.),
 the Gaussian 90(TM) system (copyright 1990, Gaussian, Inc.),
 the Gaussian 88(TM) system (copyright 1988, Gaussian, Inc.),
 the Gaussian 86(TM) system (copyright 1986, Carnegie Mellon
 University), and the Gaussian 82(TM) system (copyright 1983,
 Carnegie Mellon University). Gaussian is a federally registered
 trademark of Gaussian, Inc.
  
 This software contains proprietary and confidential information,
 including trade secrets, belonging to Gaussian, Inc.
  
 This software is provided under written license and may be
 used, copied, transmitted, or stored only in accord with that
 written license.
  
 The following legend is applicable only to US Government
 contracts under FAR:
  
                    RESTRICTED RIGHTS LEGEND
  
 Use, reproduction and disclosure by the US Government is
 subject to restrictions as set forth in subparagraphs (a)
 and (c) of the Commercial Computer Software - Restricted
 Rights clause in FAR 52.227-19.
  
 Gaussian, Inc.
 340 Quinnipiac St., Bldg. 40, Wallingford CT 06492
  
  
 ---------------------------------------------------------------
 Warning -- This program may not be used in any manner that
 competes with the business of Gaussian, Inc. or will provide
 assistance to any competitor of Gaussian, Inc.  The licensee
 of this program is prohibited from giving any competitor of
 Gaussian, Inc. access to this program.  By using this program,
 the user acknowledges that Gaussian, Inc. is engaged in the
 business of creating and licensing software in the field of
 computational chemistry and represents and warrants to the
 licensee that it is not a competitor of Gaussian, Inc. and that
 it will not use this program in any manner prohibited above.
 ---------------------------------------------------------------
  

 Cite this work as:
 Gaussian 16, Revision A.03,
 M. J. Frisch, G. W. Trucks, H. B. Schlegel, G. E. Scuseria, 
 M. A. Robb, J. R. Cheeseman, G. Scalmani, V. Barone, 
 G. A. Petersson, H. Nakatsuji, X. Li, M. Caricato, A. V. Marenich, 
 J. Bloino, B. G. Janesko, R. Gomperts, B. Mennucci, H. P. Hratchian, 
 J. V. Ortiz, A. F. Izmaylov, J. L. Sonnenberg, D. Williams-Young, 
 F. Ding, F. Lipparini, F. Egidi, J. Goings, B. Peng, A. Petrone, 
 T. Henderson, D. Ranasinghe, V. G. Zakrzewski, J. Gao, N. Rega, 
 G. Zheng, W. Liang, M. Hada, M. Ehara, K. Toyota, R. Fukuda, 
 J. Hasegawa, M. Ishida, T. Nakajima, Y. Honda, O. Kitao, H. Nakai, 
 T. Vreven, K. Throssell, J. A. Montgomery, Jr., J. E. Peralta, 
 F. Ogliaro, M. J. Bearpark, J. J. Heyd, E. N. Brothers, K. N. Kudin, 
 V. N. Staroverov, T. A. Keith, R. Kobayashi, J. Normand, 
 K. Raghavachari, A. P. Rendell, J. C. Burant, S. S. Iyengar, 
 J. Tomasi, M. Cossi, J. M. Millam, M. Klene, C. Adamo, R. Cammi, 
 J. W. Ochterski, R. L. Martin, K. Morokuma, O. Farkas, 
 J. B. Foresman, and D. J. Fox, Gaussian, Inc., Wallingford CT, 2016.
 
 ******************************************
 Gaussian 16:  ES64L-G16RevA.03 25-Dec-2016
                12-Jun-2022 
 ******************************************
 %nprocshared=12
 Will use up to   12 processors via shared memory.
 %chk=checkpoint.chk
 %mem=12GB
 ----------------------------------------------------------------------
 # Opt=(Z-matrix, MaxStep=10) B3LYP/Def2TZVP geom=allcheckpoint guess=r
 ead Field=read NoSymm freq=noraman pop=none
 ----------------------------------------------------------------------
 1/8=10,10=7,18=40,26=3,29=7,38=1/1,3;
 2/12=2,15=1,29=3,40=1/2;
 3/5=44,7=101,11=2,14=-6,25=1,30=1,71=1,74=-5,116=-2/1,2,3;
 4/5=1/1;
 5/5=2,38=6/2;
 7/29=1,30=1/1,2,3,16;
 1/8=10,10=7,18=40,26=3/3(2);
 2/15=1,29=3/2;
 99//99;
 2/15=1,29=3/2;
 3/5=44,7=101,11=2,14=-2,25=1,30=1,71=1,74=-5/1,2,3;
 4/5=5,16=3,69=1/1;
 5/5=2,38=5/2;
 7/30=1/1,2,3,16;
 1/8=10,18=40,26=3/3(-5);
 2/15=1,29=3/2;
 99/9=1/99;
 Structure from the checkpoint file:  "checkpoint.chk"
 ------------------
 int_zmat_initalOpt
 ------------------
 Charge =  0 Multiplicity = 1
 Z-Matrix found in chk file.
 C
 C,1,R2
 C,1,R3,2,A3
 H,1,R4,2,A4,3,D4,0
 O,2,R5,1,A5,3,D5,0
 C,3,R6,1,A6,2,D6,0
 H,3,R7,1,A7,6,D7,0
 O,2,R8,1,A8,5,D8,0
 O,6,R9,3,A9,1,D9,0
 C,1,R10,2,A10,3,D10,0
 C,10,R11,1,A11,2,D11,0
 C,10,R12,1,A12,11,D12,0
 H,10,R13,1,A13,11,D13,0
 C,11,R14,10,A14,1,D14,0
 H,11,R15,10,A15,14,D15,0
 H,12,R16,10,A16,1,D16,0
 H,12,R17,10,A17,16,D17,0
 C,12,R18,10,A18,16,D18,0
 H,14,R19,11,A19,10,D19,0
 H,18,R20,12,A20,10,D20,0
      Variables:
 R2=1.48235227
 R3=1.33343574
 R4=1.07780346
 R5=1.19679476
 R6=1.48410068
 R7=1.07812401
 R8=1.37888881
 R9=1.18720235
 R10=3.59597491
 R11=1.34802308
 R12=1.499934
 R13=1.08014891
 R14=1.46010693
 R15=1.08102703
 R16=1.09656667
 R17=1.09785064
 R18=1.49981169
 R19=1.08068764
 R20=1.0798981
 A3=108.06168698
 A4=122.27602025
 A5=129.52047268
 A6=108.22138414
 A7=130.01983367
 A8=107.97056854
 A9=130.88481985
 A10=91.66819788
 A11=79.64698439
 A12=87.96601989
 A13=103.82905375
 A14=109.32434036
 A15=126.12382996
 A16=113.45941281
 A17=110.99772527
 A18=103.16028869
 A19=124.77177548
 A20=124.12697258
 D4=183.01126384
 D5=-178.91471614
 D6=3.78537738
 D7=177.32840627
 D8=176.78142809
 D9=171.82552041
 D10=-92.69938585
 D11=29.86246195
 D12=109.83142916
 D13=-125.46521022
 D14=82.82090419
 D15=178.35743021
 D16=47.00109747
 D17=118.4787901
 D18=-123.12255775
 D19=177.98794637
 D20=-178.12438996
 Recover connectivity data from disk.

 GradGradGradGradGradGradGradGradGradGradGradGradGradGradGradGradGradGrad
 Berny optimization.
 Initialization pass.
                       ----------------------------
                       !    Initial Parameters    !
                       ! (Angstroms and Degrees)  !
 ----------------------                            ----------------------
 !      Name          Value   Derivative information (Atomic Units)     !
 ------------------------------------------------------------------------
 !       R2          1.4824   estimate D2E/DX2                          !
 !       R3          1.3334   estimate D2E/DX2                          !
 !       R4          1.0778   estimate D2E/DX2                          !
 !       R5          1.1968   estimate D2E/DX2                          !
 !       R6          1.4841   estimate D2E/DX2                          !
 !       R7          1.0781   estimate D2E/DX2                          !
 !       R8          1.3789   estimate D2E/DX2                          !
 !       R9          1.1872   estimate D2E/DX2                          !
 !       R10         3.596    estimate D2E/DX2                          !
 !       R11         1.348    estimate D2E/DX2                          !
 !       R12         1.4999   estimate D2E/DX2                          !
 !       R13         1.0801   estimate D2E/DX2                          !
 !       R14         1.4601   estimate D2E/DX2                          !
 !       R15         1.081    estimate D2E/DX2                          !
 !       R16         1.0966   estimate D2E/DX2                          !
 !       R17         1.0979   estimate D2E/DX2                          !
 !       R18         1.4998   estimate D2E/DX2                          !
 !       R19         1.0807   estimate D2E/DX2                          !
 !       R20         1.0799   estimate D2E/DX2                          !
 !       A3        108.0617   estimate D2E/DX2                          !
 !       A4        122.276    estimate D2E/DX2                          !
 !       A5        129.5205   estimate D2E/DX2                          !
 !       A6        108.2214   estimate D2E/DX2                          !
 !       A7        130.0198   estimate D2E/DX2                          !
 !       A8        107.9706   estimate D2E/DX2                          !
 !       A9        130.8848   estimate D2E/DX2                          !
 !       A10        91.6682   estimate D2E/DX2                          !
 !       A11        79.647    estimate D2E/DX2                          !
 !       A12        87.966    estimate D2E/DX2                          !
 !       A13       103.8291   estimate D2E/DX2                          !
 !       A14       109.3243   estimate D2E/DX2                          !
 !       A15       126.1238   estimate D2E/DX2                          !
 !       A16       113.4594   estimate D2E/DX2                          !
 !       A17       110.9977   estimate D2E/DX2                          !
 !       A18       103.1603   estimate D2E/DX2                          !
 !       A19       124.7718   estimate D2E/DX2                          !
 !       A20       124.127    estimate D2E/DX2                          !
 !       D4        183.0113   estimate D2E/DX2                          !
 !       D5       -178.9147   estimate D2E/DX2                          !
 !       D6          3.7854   estimate D2E/DX2                          !
 !       D7        177.3284   estimate D2E/DX2                          !
 !       D8        176.7814   estimate D2E/DX2                          !
 !       D9        171.8255   estimate D2E/DX2                          !
 !       D10       -92.6994   estimate D2E/DX2                          !
 !       D11        29.8625   estimate D2E/DX2                          !
 !       D12       109.8314   estimate D2E/DX2                          !
 !       D13      -125.4652   estimate D2E/DX2                          !
 !       D14        82.8209   estimate D2E/DX2                          !
 !       D15       178.3574   estimate D2E/DX2                          !
 !       D16        47.0011   estimate D2E/DX2                          !
 !       D17       118.4788   estimate D2E/DX2                          !
 !       D18      -123.1226   estimate D2E/DX2                          !
 !       D19       177.9879   estimate D2E/DX2                          !
 !       D20      -178.1244   estimate D2E/DX2                          !
 ------------------------------------------------------------------------
 Trust Radius=1.00D-01 FncErr=1.00D-07 GrdErr=1.00D-06 EigMax=2.50D+02 EigMin=1.00D-04
 Number of steps in this run=     64 maximum allowed number of steps=    108.
 GradGradGradGradGradGradGradGradGradGradGradGradGradGradGradGradGradGrad

 ---------------------------------------------------------------------------------------------------
                            Z-MATRIX (ANGSTROMS AND DEGREES)
   CD    Cent   Atom    N1       Length/X        N2       Alpha/Y        N3        Beta/Z          J
 ---------------------------------------------------------------------------------------------------
      1      1  C 
      2      2  C        1   1.482352(     1)
      3      3  C        1   1.333436(     2)      2  108.062(    20)
      4      4  H        1   1.077803(     3)      2  122.276(    21)      3  183.011(    38)      0
      5      5  O        2   1.196795(     4)      1  129.520(    22)      3 -178.915(    39)      0
      6      6  C        3   1.484101(     5)      1  108.221(    23)      2    3.785(    40)      0
      7      7  H        3   1.078124(     6)      1  130.020(    24)      6  177.328(    41)      0
      8      8  O        2   1.378889(     7)      1  107.971(    25)      5  176.781(    42)      0
      9      9  O        6   1.187202(     8)      3  130.885(    26)      1  171.826(    43)      0
     10     10  C        1   3.595975(     9)      2   91.668(    27)      3  -92.699(    44)      0
     11     11  C       10   1.348023(    10)      1   79.647(    28)      2   29.862(    45)      0
     12     12  C       10   1.499934(    11)      1   87.966(    29)     11  109.831(    46)      0
     13     13  H       10   1.080149(    12)      1  103.829(    30)     11 -125.465(    47)      0
     14     14  C       11   1.460107(    13)     10  109.324(    31)      1   82.821(    48)      0
     15     15  H       11   1.081027(    14)     10  126.124(    32)     14  178.357(    49)      0
     16     16  H       12   1.096567(    15)     10  113.459(    33)      1   47.001(    50)      0
     17     17  H       12   1.097851(    16)     10  110.998(    34)     16  118.479(    51)      0
     18     18  C       12   1.499812(    17)     10  103.160(    35)     16 -123.123(    52)      0
     19     19  H       14   1.080688(    18)     11  124.772(    36)     10  177.988(    53)      0
     20     20  H       18   1.079898(    19)     12  124.127(    37)     10 -178.124(    54)      0
 ---------------------------------------------------------------------------------------------------
                         Z-Matrix orientation:                         
 ---------------------------------------------------------------------
 Center     Atomic      Atomic             Coordinates (Angstroms)
 Number     Number       Type             X           Y           Z
 ---------------------------------------------------------------------
      1          6           0        0.000000    0.000000    0.000000
      2          6           0        0.000000    0.000000    1.482352
      3          6           0        1.267728    0.000000   -0.413419
      4          1           0       -0.910009    0.047871   -0.575545
      5          8           0       -0.923039   -0.017486    2.243937
      6          6           0        2.145029   -0.093066    0.779995
      7          1           0        1.670919    0.016049   -1.413185
      8          8           0        1.310711   -0.048824    1.907779
      9          8           0        3.318129   -0.250798    0.871675
     10          6           0       -0.169283    3.590462   -0.104684
     11          6           0        0.500091    3.413115    1.051885
     12          6           0        0.803367    3.549733   -1.245778
     13          1           0       -1.223967    3.796113   -0.214555
     14          6           0        1.917784    3.214954    0.764151
     15          1           0        0.074234    3.439224    2.045154
     16          1           0        0.543194    2.812873   -2.015066
     17          1           0        0.839056    4.515345   -1.766927
     18          6           0        2.111978    3.268401   -0.569151
     19          1           0        2.685673    3.080591    1.512602
     20          1           0        3.057978    3.197762   -1.085169
 ---------------------------------------------------------------------
                    Distance matrix (angstroms):
                    1          2          3          4          5
     1  C    0.000000
     2  C    1.482352   0.000000
     3  C    1.333436   2.280589   0.000000
     4  H    1.077803   2.250633   2.184288   0.000000
     5  O    2.426430   1.196795   3.444025   2.820270   0.000000
     6  C    2.284338   2.259007   1.484101   3.345236   3.400276
     7  H    2.188451   3.343107   1.078124   2.713640   4.483780
     8  O    2.315160   1.378889   2.322109   3.332843   2.259120
     9  O    3.439869   3.383165   2.432799   4.478929   4.463747
    10  C    3.595975   3.929219   3.879657   3.649704   4.370522
    11  C    3.606370   3.476312   3.792853   3.995219   3.900680
    12  C    3.846813   4.548483   3.675467   3.955744   5.280496
    13  H    3.994321   4.334520   4.545169   3.778650   4.547338
    14  C    3.820700   3.811776   3.484992   4.452147   4.550682
    15  H    4.002053   3.485759   4.392866   4.397508   3.603181
    16  H    3.502543   4.520979   3.316998   3.439368   5.319763
    17  H    4.920812   5.625848   4.733295   4.943374   6.303853
    18  C    3.932789   4.399041   3.379269   4.416363   5.284113
    19  H    4.357849   4.087028   3.900022   5.146521   4.812041
    20  H    4.555711   5.115572   3.725845   5.091802   6.104855
                    6          7          8          9         10
     6  C    0.000000
     7  H    2.246492   0.000000
     8  O    1.403545   3.341071   0.000000
     9  O    1.187202   2.829328   2.268046   0.000000
    10  C    4.439266   4.227878   4.414158   5.279262   0.000000
    11  C    3.882402   4.357461   3.657141   4.625805   1.348023
    12  C    4.378790   3.642471   4.811645   5.025105   1.499934
    13  H    5.240704   4.909782   5.070743   6.179646   1.080149
    14  C    3.315854   3.877464   3.511220   3.739514   2.291666
    15  H    4.285545   5.121293   3.703273   5.051354   2.168865
    16  H    4.338516   3.075101   4.916005   5.041788   2.182162
    17  H    5.424927   4.589204   5.878568   5.985327   2.152953
    18  C    3.622258   3.388912   4.216775   3.989429   2.350235
    19  H    3.301683   4.356762   3.440920   3.450934   3.320596
    20  H    3.891255   3.486377   4.748789   3.973599   3.395700
                   11         12         13         14         15
    11  C    0.000000
    12  C    2.321615   0.000000
    13  H    2.173232   2.287838   0.000000
    14  C    1.460107   2.322459   3.341588   0.000000
    15  H    1.081027   3.372548   2.630396   2.256090   0.000000
    16  H    3.125434   1.096567   2.707667   3.126534   4.134928
    17  H    3.045572   1.097851   2.680152   3.043193   4.034222
    18  C    2.290606   1.499812   3.395990   1.348429   3.319062
    19  H    2.258230   3.372214   4.333628   1.080688   2.689209
    20  H    3.340084   2.287564   4.410333   2.172630   4.331276
                   16         17         18         19         20
    16  H    0.000000
    17  H    1.745715   0.000000
    18  C    2.181573   2.147060   0.000000
    19  H    4.135980   4.027880   2.167508   0.000000
    20  H    2.708687   2.669163   1.079898   2.626928   0.000000
 Symmetry turned off by external request.
 Stoichiometry    C9H8O3
 Framework group  C1[X(C9H8O3)]
 Deg. of freedom    54
 Full point group                 C1      NOp   1
 Rotational constants (GHZ):           1.3514281           0.7709233           0.6257230
 Standard basis: def2TZVP (5D, 7F)
 The following finite field(s) will be applied:
 An electric field of             -0.0055 -0.0081  0.0022
   420 basis functions,   676 primitive gaussians,   480 cartesian basis functions
    43 alpha electrons       43 beta electrons
       nuclear repulsion energy       663.3804596001 Hartrees.
 NAtoms=   20 NActive=   20 NUniq=   20 SFac= 1.00D+00 NAtFMM=   60 NAOKFM=F Big=F
 Integral buffers will be    131072 words long.
 Raffenetti 2 integral format.
 Two-electron integral symmetry is turned off.
 One-electron integrals computed using PRISM.
   1 Symmetry operations used in ECPInt.
 ECPInt:  NShTT=   13530 NPrTT=   41904 LenC2=   13015 LenP2D=   30813.
 LDataN:  DoStor=T MaxTD1= 6 Len=  172
 NBasis=   420 RedAO= T EigKep=  4.03D-05  NBF=   420
 NBsUse=   420 1.00D-06 EigRej= -1.00D+00 NBFU=   420
 The nuclear repulsion energy is now       660.8374796295 hartrees.
 Initial guess from the checkpoint file:  "checkpoint.chk"
 B after Tr=     0.000000    0.000000    0.000000
         Rot=    1.000000    0.000000   -0.000000   -0.000000 Ang=   0.00 deg.
 Requested convergence on RMS density matrix=1.00D-08 within 128 cycles.
 Requested convergence on MAX density matrix=1.00D-06.
 Requested convergence on             energy=1.00D-06.
 No special actions if energy rises.
 SCF Done:  E(RB3LYP) =  -573.639591667     A.U. after   11 cycles
            NFock= 11  Conv=0.76D-08     -V/T= 2.0048
   1 Symmetry operations used in ECPInt.
 ECPInt:  NShTT=   13530 NPrTT=   41904 LenC2=   13015 LenP2D=   30813.
 LDataN:  DoStor=T MaxTD1= 7 Len=  274
 Calling FoFJK, ICntrl=      2127 FMM=F ISym2X=0 I1Cent= 0 IOpClX= 0 NMat=1 NMatS=1 NMatT=0.
 -------------------------------------------------------------------
 Center     Atomic                   Forces (Hartrees/Bohr)
 Number     Number              X              Y              Z
 -------------------------------------------------------------------
      1        6           0.001851881    0.005995807    0.001185536
      2        6          -0.000392379   -0.003204801   -0.002402593
      3        6           0.001261243   -0.001670608   -0.000218188
      4        1           0.000050182    0.000312041   -0.000040620
      5        8          -0.002153298   -0.000984165    0.001905347
      6        6           0.001506836    0.000986382   -0.001399708
      7        1           0.000149892    0.000238591    0.000027164
      8        8          -0.001785423   -0.000360589    0.000753574
      9        8          -0.000608391   -0.000751913    0.000283174
     10        6          -0.000232950   -0.000585689   -0.000809156
     11        6           0.000915634   -0.000550057    0.000506766
     12        6          -0.000030850    0.000318416    0.000127288
     13        1           0.000005390    0.000304671    0.000003527
     14        6          -0.000667523   -0.000574493    0.001306413
     15        1           0.000083058    0.000312987    0.000076209
     16        1           0.000059333    0.000064438   -0.000153976
     17        1           0.000129982    0.000048577   -0.000045833
     18        6          -0.000294140   -0.000600583   -0.001049839
     19        1           0.000101027    0.000382397   -0.000046355
     20        1           0.000050498    0.000318591   -0.000008729
 -------------------------------------------------------------------
 Cartesian Forces:  Max     0.005995807 RMS     0.001211414
 -----------------------------------------------------------------------------------------------
                       Internal Coordinate Forces (Hartree/Bohr or radian)
  Cent   Atom   N1       Length/X         N2         Alpha/Y        N3         Beta/Z          J
 -----------------------------------------------------------------------------------------------
      1  C 
      2  C        1   0.000256(     1)
      3  C        1   0.002601(     2)      2   0.004168(    20)
      4  H        1  -0.000007(     3)      2   0.000107(    21)      3   0.000541(    38)     0
      5  O        2   0.002888(     4)      1   0.000199(    22)      3   0.000588(    39)     0
      6  C        3  -0.000381(     5)      1   0.003050(    23)      2   0.000505(    40)     0
      7  H        3   0.000034(     6)      1   0.000298(    24)      6   0.000374(    41)     0
      8  O        2  -0.001452(     7)      1   0.003291(    25)      5  -0.001058(    42)     0
      9  O        6  -0.000479(     8)      3   0.000680(    26)      1  -0.001413(    43)     0
     10  C        1  -0.000563(     9)      2   0.000126(    27)      3   0.002206(    44)     0
     11  C       10   0.001852(    10)      1   0.000895(    28)      2   0.000244(    45)     0
     12  C       10   0.000801(    11)      1   0.001584(    29)     11   0.004156(    46)     0
     13  H       10   0.000052(    12)      1   0.000612(    30)     11   0.000021(    47)     0
     14  C       11  -0.000772(    13)     10   0.002995(    31)      1  -0.000836(    48)     0
     15  H       11   0.000045(    14)     10   0.000099(    32)     14  -0.000538(    49)     0
     16  H       12   0.000051(    15)     10   0.000302(    33)      1   0.001253(    50)     0
     17  H       12   0.000069(    16)     10   0.000207(    34)     16   0.000158(    51)     0
     18  C       12  -0.000637(    17)     10   0.002403(    35)     16   0.000930(    52)     0
     19  H       14  -0.000008(    18)     11   0.000149(    36)     10  -0.000657(    53)     0
     20  H       18   0.000028(    19)     12  -0.000087(    37)     10   0.000538(    54)     0
 -----------------------------------------------------------------------------------------------
 Internal  Forces:  Max     0.004168321 RMS     0.001429279

 GradGradGradGradGradGradGradGradGradGradGradGradGradGradGradGradGradGrad
 Berny optimization.
 Search for a local minimum.
 Step number   1 out of a maximum of   64
 All quantities printed in internal units (Hartrees-Bohrs-Radians)
 Second derivative matrix not updated -- first step.
 ITU=  0
     Eigenvalues ---    0.00931   0.03148   0.05240   0.05602   0.07006
     Eigenvalues ---    0.09062   0.10438   0.11857   0.14269   0.16984
     Eigenvalues ---    0.19358   0.20366   0.20435   0.21615   0.25837
     Eigenvalues ---    0.28382   0.29362   0.29656   0.30418   0.32739
     Eigenvalues ---    0.32915   0.33921   0.34065   0.34727   0.34852
     Eigenvalues ---    0.35869   0.35907   0.35976   0.36005   0.36223
     Eigenvalues ---    0.36261   0.37088   0.38460   0.39220   0.39807
     Eigenvalues ---    0.42062   0.43581   0.46174   0.51002   0.54343
     Eigenvalues ---    0.55822   0.59839   0.60708   0.65367   0.66963
     Eigenvalues ---    0.74780   0.77887   1.06451   1.11527   1.80403
     Eigenvalues ---    1.96324   2.04310  15.38430  19.51345
 RFO step:  Lambda=-1.61442974D-04 EMin= 9.31057024D-03
 Linear search not attempted -- first point.
 Variable       Old X    -DE/DX   Delta X   Delta X   Delta X     New X
                                 (Linear)    (Quad)   (Total)
    R2        2.80124   0.00026   0.00000  -0.00171  -0.00171   2.79953
    R3        2.51983   0.00260   0.00000   0.00289   0.00289   2.52272
    R4        2.03675  -0.00001   0.00000  -0.00001  -0.00001   2.03674
    R5        2.26161   0.00289   0.00000   0.00276   0.00276   2.26437
    R6        2.80454  -0.00038   0.00000  -0.00030  -0.00030   2.80424
    R7        2.03736   0.00003   0.00000   0.00011   0.00011   2.03747
    R8        2.60572  -0.00145   0.00000  -0.00214  -0.00214   2.60358
    R9        2.24349  -0.00048   0.00000  -0.00037  -0.00037   2.24311
   R10        6.79541  -0.00056   0.00000  -0.05904  -0.05904   6.73637
   R11        2.54739   0.00185   0.00000   0.00169   0.00169   2.54908
   R12        2.83446   0.00080   0.00000  -0.00000  -0.00000   2.83446
   R13        2.04119   0.00005   0.00000   0.00015   0.00015   2.04134
   R14        2.75920  -0.00077   0.00000  -0.00156  -0.00156   2.75764
   R15        2.04285   0.00004   0.00000   0.00014   0.00014   2.04298
   R16        2.07221   0.00005   0.00000   0.00016   0.00016   2.07238
   R17        2.07464   0.00007   0.00000   0.00023   0.00023   2.07487
   R18        2.83423  -0.00064   0.00000  -0.00051  -0.00051   2.83373
   R19        2.04220  -0.00001   0.00000  -0.00002  -0.00002   2.04218
   R20        2.04071   0.00003   0.00000   0.00007   0.00007   2.04078
    A3        1.88603   0.00417   0.00000  -0.00094  -0.00094   1.88509
    A4        2.13412   0.00011   0.00000   0.00064   0.00064   2.13476
    A5        2.26056   0.00020   0.00000  -0.00098  -0.00098   2.25958
    A6        1.88882   0.00305   0.00000   0.00009   0.00009   1.88891
    A7        2.26927   0.00030   0.00000   0.00074   0.00074   2.27001
    A8        1.88444   0.00329   0.00000   0.00136   0.00136   1.88580
    A9        2.28437   0.00068   0.00000   0.00130   0.00130   2.28567
   A10        1.59991   0.00013   0.00000  -0.00050  -0.00050   1.59941
   A11        1.39010   0.00089   0.00000  -0.00090  -0.00090   1.38920
   A12        1.53530   0.00158   0.00000   0.00091   0.00091   1.53621
   A13        1.81216   0.00061   0.00000   0.00264   0.00264   1.81480
   A14        1.90807   0.00300   0.00000   0.00013   0.00013   1.90820
   A15        2.20128   0.00010   0.00000   0.00009   0.00009   2.20137
   A16        1.98024   0.00030   0.00000   0.00115   0.00115   1.98139
   A17        1.93728   0.00021   0.00000   0.00039   0.00039   1.93767
   A18        1.80049   0.00240   0.00000  -0.00048  -0.00048   1.80001
   A19        2.17768   0.00015   0.00000   0.00044   0.00044   2.17812
   A20        2.16642  -0.00009   0.00000  -0.00073  -0.00073   2.16570
    D4        3.19415   0.00054   0.00000   0.00580   0.00580   3.19995
    D5       -3.12265   0.00059   0.00000   0.01937   0.01937  -3.10328
    D6        0.06607   0.00051   0.00000   0.00575   0.00575   0.07182
    D7        3.09496   0.00037   0.00000  -0.00084  -0.00084   3.09412
    D8        3.08542  -0.00106   0.00000  -0.02522  -0.02522   3.06020
    D9        2.99892  -0.00141   0.00000  -0.02146  -0.02146   2.97746
   D10       -1.61791   0.00221   0.00000   0.00497   0.00497  -1.61294
   D11        0.52120   0.00024   0.00000   0.00082   0.00082   0.52202
   D12        1.91692   0.00416   0.00000   0.00001   0.00001   1.91693
   D13       -2.18978   0.00002   0.00000   0.00035   0.00035  -2.18943
   D14        1.44550  -0.00084   0.00000  -0.00235  -0.00235   1.44315
   D15        3.11292  -0.00054   0.00000  -0.00286  -0.00286   3.11007
   D16        0.82032   0.00125   0.00000   0.00378   0.00378   0.82410
   D17        2.06784   0.00016   0.00000   0.00010   0.00010   2.06794
   D18       -2.14889   0.00093   0.00000   0.00087   0.00087  -2.14802
   D19        3.10648  -0.00066   0.00000  -0.00656  -0.00656   3.09992
   D20       -3.10886   0.00054   0.00000   0.00477   0.00477  -3.10408
         Item               Value     Threshold  Converged?
 Maximum Force            0.004168     0.000450     NO 
 RMS     Force            0.001429     0.000300     NO 
 Maximum Displacement     0.059037     0.001800     NO 
 RMS     Displacement     0.009805     0.001200     NO 
 Predicted change in Energy=-8.114281D-05
 GradGradGradGradGradGradGradGradGradGradGradGradGradGradGradGradGradGrad

 ---------------------------------------------------------------------------------------------------
                            Z-MATRIX (ANGSTROMS AND DEGREES)
   CD    Cent   Atom    N1       Length/X        N2       Alpha/Y        N3        Beta/Z          J
 ---------------------------------------------------------------------------------------------------
      1      1  C 
      2      2  C        1   1.481445(     1)
      3      3  C        1   1.334964(     2)      2  108.008(    20)
      4      4  H        1   1.077798(     3)      2  122.313(    21)      3  183.344(    38)      0
      5      5  O        2   1.198253(     4)      1  129.465(    22)      3 -177.805(    39)      0
      6      6  C        3   1.483939(     5)      1  108.227(    23)      2    4.115(    40)      0
      7      7  H        3   1.078181(     6)      1  130.062(    24)      6  177.280(    41)      0
      8      8  O        2   1.377756(     7)      1  108.049(    25)      5  175.336(    42)      0
      9      9  O        6   1.187005(     8)      3  130.959(    26)      1  170.596(    43)      0
     10     10  C        1   3.564734(     9)      2   91.640(    27)      3  -92.415(    44)      0
     11     11  C       10   1.348918(    10)      1   79.595(    28)      2   29.910(    45)      0
     12     12  C       10   1.499932(    11)      1   88.018(    29)     11  109.832(    46)      0
     13     13  H       10   1.080229(    12)      1  103.980(    30)     11 -125.445(    47)      0
     14     14  C       11   1.459283(    13)     10  109.332(    31)      1   82.686(    48)      0
     15     15  H       11   1.081100(    14)     10  126.129(    32)     14  178.194(    49)      0
     16     16  H       12   1.096654(    15)     10  113.525(    33)      1   47.218(    50)      0
     17     17  H       12   1.097975(    16)     10  111.020(    34)     16  118.484(    51)      0
     18     18  C       12   1.499543(    17)     10  103.133(    35)     16 -123.073(    52)      0
     19     19  H       14   1.080678(    18)     11  124.797(    36)     10  177.612(    53)      0
     20     20  H       18   1.079936(    19)     12  124.085(    37)     10 -177.851(    54)      0
 ---------------------------------------------------------------------------------------------------
                         Z-Matrix orientation:                         
 ---------------------------------------------------------------------
 Center     Atomic      Atomic             Coordinates (Angstroms)
 Number     Number       Type             X           Y           Z
 ---------------------------------------------------------------------
      1          6           0        0.000000    0.000000    0.000000
      2          6           0        0.000000    0.000000    1.481445
      3          6           0        1.269570    0.000000   -0.412699
      4          1           0       -0.909342    0.053130   -0.576127
      5          8           0       -0.924393   -0.035436    2.243056
      6          6           0        2.145588   -0.101139    0.780799
      7          1           0        1.674484    0.020088   -1.411756
      8          8           0        1.308747   -0.056414    1.908306
      9          8           0        3.315224   -0.280417    0.874568
     10          6           0       -0.150118    3.560111   -0.102000
     11          6           0        0.519724    3.377559    1.054531
     12          6           0        0.821318    3.516415   -1.244016
     13          1           0       -1.203404    3.773894   -0.210542
     14          6           0        1.934796    3.168950    0.765464
     15          1           0        0.095768    3.409197    2.048532
     16          1           0        0.556186    2.784515   -2.016465
     17          1           0        0.864004    4.483594   -1.761984
     18          6           0        2.127596    3.221919   -0.569079
     19          1           0        2.703641    3.034521    1.512907
     20          1           0        3.073171    3.150159   -1.085800
 ---------------------------------------------------------------------
                    Distance matrix (angstroms):
                    1          2          3          4          5
     1  C    0.000000
     2  C    1.481445   0.000000
     3  C    1.334964   2.280261   0.000000
     4  H    1.077798   2.250184   2.185678   0.000000
     5  O    2.426326   1.198253   3.444963   2.820615   0.000000
     6  C    2.285482   2.259355   1.483939   3.346289   3.401073
     7  H    2.190287   3.342890   1.078181   2.715791   4.484964
     8  O    2.314656   1.377756   2.322021   3.332315   2.258188
     9  O    3.440089   3.381959   2.433186   4.479144   4.461741
    10  C    3.564734   3.899259   3.845313   3.619410   4.361966
    11  C    3.576318   3.443874   3.758050   3.969017   3.891863
    12  C    3.819334   4.524144   3.641043   3.928816   5.274735
    13  H    3.966709   4.307351   4.516497   3.750227   4.539712
    14  C    3.790991   3.781310   3.445698   4.426885   4.541622
    15  H    3.978477   3.457367   4.365558   4.377473   3.597786
    16  H    3.482671   4.505357   3.291581   3.418012   5.318624
    17  H    4.894253   5.600799   4.699752   4.917318   6.297646
    18  C    3.902727   4.371736   3.337878   4.389107   5.275709
    19  H    4.336690   4.064355   3.869475   5.128976   4.808366
    20  H    4.532863   5.094961   3.691821   5.070676   6.099985
                    6          7          8          9         10
     6  C    0.000000
     7  H    2.245871   0.000000
     8  O    1.404840   3.341022   0.000000
     9  O    1.187005   2.830126   2.268202   0.000000
    10  C    4.410709   4.192421   4.387353   5.264213   0.000000
    11  C    3.849637   4.323037   3.625418   4.607385   1.348918
    12  C    4.352042   3.602823   4.789554   5.012375   1.499932
    13  H    5.216741   4.880186   5.046947   6.167082   1.080229
    14  C    3.276912   3.837106   3.478649   3.716937   2.291804
    15  H    4.258095   5.094311   3.674431   5.035508   2.169798
    16  H    4.321792   3.042749   4.903167   5.036286   2.183023
    17  H    5.397035   4.549992   5.854955   5.971239   2.153326
    18  C    3.586811   3.341727   4.189919   3.970005   2.349578
    19  H    3.267992   4.324306   3.414081   3.430791   3.320859
    20  H    3.862065   3.443823   4.728633   3.958597   3.394924
                   11         12         13         14         15
    11  C    0.000000
    12  C    2.322404   0.000000
    13  H    2.174089   2.287764   0.000000
    14  C    1.459283   2.323483   3.341682   0.000000
    15  H    1.081100   3.373246   2.631400   2.255217   0.000000
    16  H    3.127946   1.096654   2.708576   3.128495   4.138407
    17  H    3.045423   1.097975   2.680452   3.043498   4.032933
    18  C    2.290324   1.499543   3.395406   1.349437   3.318928
    19  H    2.257714   3.372830   4.333814   1.080678   2.688545
    20  H    3.339583   2.286923   4.409559   2.173345   4.330827
                   16         17         18         19         20
    16  H    0.000000
    17  H    1.745389   0.000000
    18  C    2.180728   2.147443   0.000000
    19  H    4.138904   4.026038   2.168319   0.000000
    20  H    2.708329   2.667526   1.079936   2.627394   0.000000
 Symmetry turned off by external request.
 Stoichiometry    C9H8O3
 Framework group  C1[X(C9H8O3)]
 Deg. of freedom    54
 Full point group                 C1      NOp   1
 Rotational constants (GHZ):           1.3545512           0.7798936           0.6312971
 Standard basis: def2TZVP (5D, 7F)
 The following finite field(s) will be applied:
 An electric field of             -0.0055 -0.0081  0.0022
   420 basis functions,   676 primitive gaussians,   480 cartesian basis functions
    43 alpha electrons       43 beta electrons
       nuclear repulsion energy       664.8513525787 Hartrees.
 NAtoms=   20 NActive=   20 NUniq=   20 SFac= 1.00D+00 NAtFMM=   60 NAOKFM=F Big=F
 Integral buffers will be    131072 words long.
 Raffenetti 2 integral format.
 Two-electron integral symmetry is turned off.
 One-electron integrals computed using PRISM.
   1 Symmetry operations used in ECPInt.
 ECPInt:  NShTT=   13530 NPrTT=   41904 LenC2=   13019 LenP2D=   30847.
 LDataN:  DoStor=T MaxTD1= 6 Len=  172
 NBasis=   420 RedAO= T EigKep=  3.99D-05  NBF=   420
 NBsUse=   420 1.00D-06 EigRej= -1.00D+00 NBFU=   420
 The nuclear repulsion energy is now       662.3303438002 hartrees.
 Initial guess from the checkpoint file:  "checkpoint.chk"
 B after Tr=     0.000746   -0.031077    0.002312
         Rot=    0.999997    0.000211    0.000180    0.002509 Ang=   0.29 deg.
 ExpMin= 9.52D-02 ExpMax= 2.70D+04 ExpMxC= 9.22D+02 IAcc=2 IRadAn=         4 AccDes= 0.00D+00
 Harris functional with IExCor=  402 and IRadAn=       4 diagonalized for initial guess.
 HarFok:  IExCor=  402 AccDes= 0.00D+00 IRadAn=         4 IDoV= 1 UseB2=F ITyADJ=14
 ICtDFT=  3500011 ScaDFX=  1.000000  1.000000  1.000000  1.000000
 FoFCou: FMM=F IPFlag=           0 FMFlag=      100000 FMFlg1=           0
         NFxFlg=           0 DoJE=T BraDBF=F KetDBF=T FulRan=T
         wScrn=  0.000000 ICntrl=       500 IOpCl=  0 I1Cent=   200000004 NGrid=           0
         NMat0=    1 NMatS0=      1 NMatT0=    0 NMatD0=    1 NMtDS0=    0 NMtDT0=    0
 Symmetry not used in FoFCou.
 Requested convergence on RMS density matrix=1.00D-08 within 128 cycles.
 Requested convergence on MAX density matrix=1.00D-06.
 Requested convergence on             energy=1.00D-06.
 No special actions if energy rises.
 Integral accuracy reduced to 1.0D-05 until final iterations.
 Initial convergence to 1.0D-05 achieved.  Increase integral accuracy.
 SCF Done:  E(RB3LYP) =  -573.639688500     A.U. after   11 cycles
            NFock= 11  Conv=0.51D-08     -V/T= 2.0048
   1 Symmetry operations used in ECPInt.
 ECPInt:  NShTT=   13530 NPrTT=   41904 LenC2=   13019 LenP2D=   30847.
 LDataN:  DoStor=T MaxTD1= 7 Len=  274
 Calling FoFJK, ICntrl=      2127 FMM=F ISym2X=0 I1Cent= 0 IOpClX= 0 NMat=1 NMatS=1 NMatT=0.
 -------------------------------------------------------------------
 Center     Atomic                   Forces (Hartrees/Bohr)
 Number     Number              X              Y              Z
 -------------------------------------------------------------------
      1        6           0.003326849    0.007397749    0.000637934
      2        6          -0.002111027   -0.006442263   -0.001146979
      3        6           0.000388768   -0.001262777    0.000027116
      4        1           0.000082930    0.000136696   -0.000039474
      5        8          -0.001070827    0.000345546    0.000861619
      6        6           0.000336401   -0.000498286   -0.001217352
      7        1           0.000030005   -0.000074469    0.000044695
      8        8          -0.001073707    0.000718929    0.000599149
      9        8          -0.000040755   -0.000053983    0.000238539
     10        6           0.000013123   -0.000383283   -0.000338405
     11        6           0.000456422   -0.000326075    0.000109195
     12        6          -0.000147715   -0.000328263    0.000188044
     13        1           0.000072248    0.000278879    0.000051668
     14        6          -0.000495653   -0.000001011    0.000513704
     15        1           0.000034212    0.000166298   -0.000021227
     16        1          -0.000069206    0.000131285   -0.000107888
     17        1           0.000189417    0.000021677    0.000118548
     18        6          -0.000037617   -0.000084642   -0.000469030
     19        1           0.000059883    0.000123157   -0.000069911
     20        1           0.000056248    0.000134837    0.000020056
 -------------------------------------------------------------------
 Cartesian Forces:  Max     0.007397749 RMS     0.001431410
 -----------------------------------------------------------------------------------------------
                       Internal Coordinate Forces (Hartree/Bohr or radian)
  Cent   Atom   N1       Length/X         N2         Alpha/Y        N3         Beta/Z          J
 -----------------------------------------------------------------------------------------------
      1  C 
      2  C        1   0.000314(     1)
      3  C        1   0.000960(     2)      2   0.003281(    20)
      4  H        1  -0.000042(     3)      2   0.000149(    21)      3   0.000243(    38)     0
      5  O        2   0.001364(     4)      1  -0.000015(    22)      3   0.000988(    39)     0
      6  C        3  -0.000575(     5)      1   0.001711(    23)      2   0.001487(    40)     0
      7  H        3  -0.000032(     6)      1   0.000093(    24)      6  -0.000114(    41)     0
      8  O        2  -0.000864(     7)      1   0.002373(    25)      5   0.001664(    42)     0
      9  O        6  -0.000013(     8)      3   0.000535(    26)      1  -0.000113(    43)     0
     10  C        1  -0.000272(     9)      2   0.000037(    27)      3   0.001561(    44)     0
     11  C       10   0.000488(    10)      1   0.000709(    28)      2   0.000211(    45)     0
     12  C       10   0.000188(    11)      1   0.000332(    29)     11   0.001353(    46)     0
     13  H       10  -0.000020(    12)      1   0.000587(    30)     11   0.000101(    47)     0
     14  C       11  -0.000528(    13)     10   0.000771(    31)      1  -0.000007(    48)     0
     15  H       11  -0.000028(    14)     10  -0.000018(    32)     14  -0.000278(    49)     0
     16  H       12   0.000005(    15)     10   0.000071(    33)      1   0.000646(    50)     0
     17  H       12  -0.000029(    16)     10   0.000094(    34)     16   0.000422(    51)     0
     18  C       12  -0.000196(    17)     10   0.001113(    35)     16  -0.000118(    52)     0
     19  H       14  -0.000021(    18)     11   0.000165(    36)     10  -0.000217(    53)     0
     20  H       18   0.000031(    19)     12   0.000035(    37)     10   0.000242(    54)     0
 -----------------------------------------------------------------------------------------------
 Internal  Forces:  Max     0.003280700 RMS     0.000841703

 GradGradGradGradGradGradGradGradGradGradGradGradGradGradGradGradGradGrad
 Berny optimization.
 Search for a local minimum.
 Step number   2 out of a maximum of   64
 All quantities printed in internal units (Hartrees-Bohrs-Radians)
 Update second derivatives using D2CorN and points    1    2
 DE= -9.68D-05 DEPred=-8.11D-05 R= 1.19D+00
 TightC=F SS=  1.41D+00  RLast= 7.21D-02 DXNew= 1.6818D-01 2.1617D-01
 Trust test= 1.19D+00 RLast= 7.21D-02 DXMaxT set to 1.68D-01
 ITU=  1  0
     Eigenvalues ---    0.00510   0.03494   0.05091   0.05598   0.06990
     Eigenvalues ---    0.09065   0.10414   0.11855   0.14263   0.16981
     Eigenvalues ---    0.19341   0.20344   0.20435   0.21612   0.25837
     Eigenvalues ---    0.28367   0.29357   0.29656   0.30416   0.32737
     Eigenvalues ---    0.32908   0.33922   0.34065   0.34726   0.34835
     Eigenvalues ---    0.35869   0.35907   0.35976   0.36005   0.36223
     Eigenvalues ---    0.36261   0.37089   0.38454   0.39220   0.39804
     Eigenvalues ---    0.42063   0.43590   0.46159   0.50993   0.54285
     Eigenvalues ---    0.55787   0.59805   0.60709   0.65355   0.66965
     Eigenvalues ---    0.74779   0.77927   1.06389   1.11526   1.80403
     Eigenvalues ---    1.96325   2.04309  15.38400  19.51334
 RFO step:  Lambda=-8.57694181D-05 EMin= 5.09523293D-03
 Quartic linear search produced a step of  0.23493.
 Variable       Old X    -DE/DX   Delta X   Delta X   Delta X     New X
                                 (Linear)    (Quad)   (Total)
    R2        2.79953   0.00031  -0.00040  -0.00142  -0.00182   2.79771
    R3        2.52272   0.00096   0.00068   0.00044   0.00112   2.52383
    R4        2.03674  -0.00004  -0.00000  -0.00018  -0.00018   2.03656
    R5        2.26437   0.00136   0.00065   0.00142   0.00206   2.26643
    R6        2.80424  -0.00058  -0.00007  -0.00118  -0.00125   2.80299
    R7        2.03747  -0.00003   0.00003  -0.00016  -0.00013   2.03733
    R8        2.60358  -0.00086  -0.00050  -0.00189  -0.00239   2.60119
    R9        2.24311  -0.00001  -0.00009   0.00010   0.00002   2.24313
   R10        6.73637  -0.00027  -0.01387  -0.07898  -0.09285   6.64352
   R11        2.54908   0.00049   0.00040   0.00027   0.00067   2.54975
   R12        2.83446   0.00019  -0.00000  -0.00067  -0.00067   2.83379
   R13        2.04134  -0.00002   0.00004  -0.00012  -0.00008   2.04126
   R14        2.75764  -0.00053  -0.00037  -0.00133  -0.00169   2.75595
   R15        2.04298  -0.00003   0.00003  -0.00014  -0.00011   2.04287
   R16        2.07238   0.00001   0.00004  -0.00000   0.00004   2.07241
   R17        2.07487  -0.00003   0.00006  -0.00016  -0.00011   2.07477
   R18        2.83373  -0.00020  -0.00012  -0.00046  -0.00058   2.83315
   R19        2.04218  -0.00002  -0.00000  -0.00008  -0.00009   2.04210
   R20        2.04078   0.00003   0.00002   0.00012   0.00014   2.04092
    A3        1.88509   0.00328  -0.00022   0.00017  -0.00005   1.88504
    A4        2.13476   0.00015   0.00015   0.00044   0.00059   2.13535
    A5        2.25958  -0.00001  -0.00023   0.00009  -0.00014   2.25945
    A6        1.88891   0.00171   0.00002  -0.00081  -0.00079   1.88812
    A7        2.27001   0.00009   0.00017   0.00054   0.00071   2.27072
    A8        1.88580   0.00237   0.00032   0.00086   0.00118   1.88698
    A9        2.28567   0.00053   0.00031   0.00182   0.00213   2.28780
   A10        1.59941   0.00004  -0.00012  -0.00116  -0.00128   1.59814
   A11        1.38920   0.00071  -0.00021   0.00080   0.00058   1.38978
   A12        1.53621   0.00033   0.00021  -0.00080  -0.00058   1.53562
   A13        1.81480   0.00059   0.00062   0.00184   0.00246   1.81726
   A14        1.90820   0.00077   0.00003   0.00002   0.00005   1.90826
   A15        2.20137  -0.00002   0.00002  -0.00032  -0.00030   2.20107
   A16        1.98139   0.00007   0.00027   0.00168   0.00195   1.98334
   A17        1.93767   0.00009   0.00009  -0.00149  -0.00140   1.93627
   A18        1.80001   0.00111  -0.00011   0.00039   0.00028   1.80029
   A19        2.17812   0.00016   0.00010   0.00035   0.00045   2.17857
   A20        2.16570   0.00004  -0.00017   0.00047   0.00030   2.16600
    D4        3.19995   0.00024   0.00136   0.00649   0.00786   3.20781
    D5       -3.10328   0.00099   0.00455  -0.01966  -0.01511  -3.11839
    D6        0.07182   0.00149   0.00135   0.00715   0.00850   0.08032
    D7        3.09412  -0.00011  -0.00020  -0.00593  -0.00613   3.08799
    D8        3.06020   0.00166  -0.00592   0.02409   0.01816   3.07836
    D9        2.97746  -0.00011  -0.00504  -0.00615  -0.01119   2.96626
   D10       -1.61294   0.00156   0.00117   0.00617   0.00734  -1.60560
   D11        0.52202   0.00021   0.00019   0.00129   0.00148   0.52350
   D12        1.91693   0.00135   0.00000  -0.00002  -0.00002   1.91691
   D13       -2.18943   0.00010   0.00008   0.00025   0.00033  -2.18910
   D14        1.44315  -0.00001  -0.00055   0.00316   0.00261   1.44576
   D15        3.11007  -0.00028  -0.00067  -0.00535  -0.00602   3.10405
   D16        0.82410   0.00065   0.00089   0.00101   0.00190   0.82601
   D17        2.06794   0.00042   0.00002  -0.00025  -0.00023   2.06771
   D18       -2.14802  -0.00012   0.00020  -0.00468  -0.00447  -2.15250
   D19        3.09992  -0.00022  -0.00154  -0.00530  -0.00684   3.09308
   D20       -3.10408   0.00024   0.00112   0.00515   0.00627  -3.09781
         Item               Value     Threshold  Converged?
 Maximum Force            0.003281     0.000450     NO 
 RMS     Force            0.000842     0.000300     NO 
 Maximum Displacement     0.092851     0.001800     NO 
 RMS     Displacement     0.013422     0.001200     NO 
 Predicted change in Energy=-4.105328D-05
 GradGradGradGradGradGradGradGradGradGradGradGradGradGradGradGradGradGrad

 ---------------------------------------------------------------------------------------------------
                            Z-MATRIX (ANGSTROMS AND DEGREES)
   CD    Cent   Atom    N1       Length/X        N2       Alpha/Y        N3        Beta/Z          J
 ---------------------------------------------------------------------------------------------------
      1      1  C 
      2      2  C        1   1.480482(     1)
      3      3  C        1   1.335555(     2)      2  108.005(    20)
      4      4  H        1   1.077703(     3)      2  122.347(    21)      3  183.794(    38)      0
      5      5  O        2   1.199345(     4)      1  129.457(    22)      3 -178.671(    39)      0
      6      6  C        3   1.483280(     5)      1  108.181(    23)      2    4.602(    40)      0
      7      7  H        3   1.078110(     6)      1  130.103(    24)      6  176.929(    41)      0
      8      8  O        2   1.376490(     7)      1  108.116(    25)      5  176.377(    42)      0
      9      9  O        6   1.187013(     8)      3  131.081(    26)      1  169.954(    43)      0
     10     10  C        1   3.515599(     9)      2   91.567(    27)      3  -91.994(    44)      0
     11     11  C       10   1.349271(    10)      1   79.629(    28)      2   29.995(    45)      0
     12     12  C       10   1.499577(    11)      1   87.985(    29)     11  109.831(    46)      0
     13     13  H       10   1.080187(    12)      1  104.121(    30)     11 -125.426(    47)      0
     14     14  C       11   1.458387(    13)     10  109.335(    31)      1   82.836(    48)      0
     15     15  H       11   1.081041(    14)     10  126.112(    32)     14  177.849(    49)      0
     16     16  H       12   1.096674(    15)     10  113.637(    33)      1   47.327(    50)      0
     17     17  H       12   1.097919(    16)     10  110.940(    34)     16  118.471(    51)      0
     18     18  C       12   1.499237(    17)     10  103.149(    35)     16 -123.329(    52)      0
     19     19  H       14   1.080631(    18)     11  124.823(    36)     10  177.220(    53)      0
     20     20  H       18   1.080009(    19)     12  124.102(    37)     10 -177.491(    54)      0
 ---------------------------------------------------------------------------------------------------
                         Z-Matrix orientation:                         
 ---------------------------------------------------------------------
 Center     Atomic      Atomic             Coordinates (Angstroms)
 Number     Number       Type             X           Y           Z
 ---------------------------------------------------------------------
      1          6           0        0.000000    0.000000    0.000000
      2          6           0        0.000000    0.000000    1.480482
      3          6           0        1.270153    0.000000   -0.412819
      4          1           0       -0.908478    0.060245   -0.576613
      5          8           0       -0.925769   -0.021485    2.242661
      6          6           0        2.144496   -0.113062    0.780018
      7          1           0        1.675816    0.022026   -1.411455
      8          8           0        1.307207   -0.052355    1.908496
      9          8           0        3.311774   -0.306032    0.876068
     10          6           0       -0.122285    3.512157   -0.096109
     11          6           0        0.548173    3.323981    1.059577
     12          6           0        0.846864    3.461831   -1.239327
     13          1           0       -1.173568    3.736438   -0.202433
     14          6           0        1.961028    3.109213    0.768702
     15          1           0        0.126265    3.360891    2.054203
     16          1           0        0.575648    2.734483   -2.013989
     17          1           0        0.896511    4.430072   -1.754564
     18          6           0        2.152393    3.160429   -0.566672
     19          1           0        2.731273    2.975511    1.514763
     20          1           0        3.097663    3.088203   -1.084037
 ---------------------------------------------------------------------
                    Distance matrix (angstroms):
                    1          2          3          4          5
     1  C    0.000000
     2  C    1.480482   0.000000
     3  C    1.335555   2.279885   0.000000
     4  H    1.077703   2.249579   2.185610   0.000000
     5  O    2.426322   1.199345   3.445883   2.820512   0.000000
     6  C    2.284748   2.258826   1.483280   3.345315   3.402094
     7  H    2.191129   3.342476   1.078110   2.716062   4.485833
     8  O    2.313847   1.376490   2.322201   3.331322   2.258052
     9  O    3.439331   3.380358   2.433742   4.478278   4.461537
    10  C    3.515599   3.851732   3.791363   3.572769   4.313011
    11  C    3.531578   3.395071   3.706488   3.930766   3.842439
    12  C    3.773246   4.483170   3.584210   3.884739   5.234497
    13  H    3.921634   4.262679   4.469564   3.704683   4.490198
    14  C    3.755495   3.744258   3.397132   4.397743   4.506376
    15  H    3.940975   3.411845   4.323224   4.345820   3.547219
    16  H    3.444550   4.474383   3.243992   3.379383   5.288543
    17  H    4.848481   5.558309   4.643860   4.872468   6.254189
    18  C    3.865518   4.337275   3.284864   4.356624   5.243283
    19  H    4.313702   4.039145   3.834594   5.110814   4.783908
    20  H    4.506401   5.070431   3.650661   5.047294   6.076602
                    6          7          8          9         10
     6  C    0.000000
     7  H    2.245098   0.000000
     8  O    1.406486   3.341180   0.000000
     9  O    1.187013   2.831385   2.269042   0.000000
    10  C    4.364413   4.140569   4.332163   5.226514   0.000000
    11  C    3.799955   4.275568   3.563206   4.565978   1.349271
    12  C    4.305979   3.542462   4.740275   4.974682   1.499577
    13  H    5.176235   4.835036   4.996521   6.133761   1.080187
    14  C    3.227513   3.790139   3.423759   3.674227   2.291387
    15  H    4.214873   5.055681   3.614707   4.998179   2.169908
    16  H    4.286756   2.988451   4.866985   5.008348   2.184068
    17  H    5.349920   4.489533   5.803347   5.931644   2.151973
    18  C    3.539686   3.284868   4.142799   3.929633   2.349319
    19  H    3.228535   4.289500   3.369119   3.393145   3.320496
    20  H    3.825091   3.395628   4.692984   3.925390   3.394673
                   11         12         13         14         15
    11  C    0.000000
    12  C    2.322322   0.000000
    13  H    2.174209   2.287511   0.000000
    14  C    1.458387   2.323334   3.340989   0.000000
    15  H    1.081041   3.372951   2.631161   2.254376   0.000000
    16  H    3.129708   1.096674   2.710241   3.130986   4.140595
    17  H    3.043710   1.097919   2.678707   3.040516   4.030278
    18  C    2.290187   1.499237   3.395066   1.349988   3.318790
    19  H    2.257112   3.372316   4.333078   1.080631   2.688044
    20  H    3.339247   2.286877   4.409178   2.173712   4.330372
                   16         17         18         19         20
    16  H    0.000000
    17  H    1.745072   0.000000
    18  C    2.182266   2.144836   0.000000
    19  H    4.142090   4.021269   2.168334   0.000000
    20  H    2.711179   2.663699   1.080009   2.626919   0.000000
 Symmetry turned off by external request.
 Stoichiometry    C9H8O3
 Framework group  C1[X(C9H8O3)]
 Deg. of freedom    54
 Full point group                 C1      NOp   1
 Rotational constants (GHZ):           1.3561798           0.7976362           0.6426559
 Standard basis: def2TZVP (5D, 7F)
 The following finite field(s) will be applied:
 An electric field of             -0.0055 -0.0081  0.0022
   420 basis functions,   676 primitive gaussians,   480 cartesian basis functions
    43 alpha electrons       43 beta electrons
       nuclear repulsion energy       667.5282145749 Hartrees.
 NAtoms=   20 NActive=   20 NUniq=   20 SFac= 1.00D+00 NAtFMM=   60 NAOKFM=F Big=F
 Integral buffers will be    131072 words long.
 Raffenetti 2 integral format.
 Two-electron integral symmetry is turned off.
 One-electron integrals computed using PRISM.
   1 Symmetry operations used in ECPInt.
 ECPInt:  NShTT=   13530 NPrTT=   41904 LenC2=   13037 LenP2D=   30948.
 LDataN:  DoStor=T MaxTD1= 6 Len=  172
 NBasis=   420 RedAO= T EigKep=  3.88D-05  NBF=   420
 NBsUse=   420 1.00D-06 EigRej= -1.00D+00 NBFU=   420
 The nuclear repulsion energy is now       665.0304219453 hartrees.
 Initial guess from the checkpoint file:  "checkpoint.chk"
 B after Tr=    -0.000456   -0.033329    0.010038
         Rot=    0.999992    0.001216   -0.000091    0.003910 Ang=   0.47 deg.
 ExpMin= 9.52D-02 ExpMax= 2.70D+04 ExpMxC= 9.22D+02 IAcc=2 IRadAn=         4 AccDes= 0.00D+00
 Harris functional with IExCor=  402 and IRadAn=       4 diagonalized for initial guess.
 HarFok:  IExCor=  402 AccDes= 0.00D+00 IRadAn=         4 IDoV= 1 UseB2=F ITyADJ=14
 ICtDFT=  3500011 ScaDFX=  1.000000  1.000000  1.000000  1.000000
 FoFCou: FMM=F IPFlag=           0 FMFlag=      100000 FMFlg1=           0
         NFxFlg=           0 DoJE=T BraDBF=F KetDBF=T FulRan=T
         wScrn=  0.000000 ICntrl=       500 IOpCl=  0 I1Cent=   200000004 NGrid=           0
         NMat0=    1 NMatS0=      1 NMatT0=    0 NMatD0=    1 NMtDS0=    0 NMtDT0=    0
 Symmetry not used in FoFCou.
 Requested convergence on RMS density matrix=1.00D-08 within 128 cycles.
 Requested convergence on MAX density matrix=1.00D-06.
 Requested convergence on             energy=1.00D-06.
 No special actions if energy rises.
 Integral accuracy reduced to 1.0D-05 until final iterations.
 Initial convergence to 1.0D-05 achieved.  Increase integral accuracy.
 SCF Done:  E(RB3LYP) =  -573.639709338     A.U. after   10 cycles
            NFock= 10  Conv=0.85D-08     -V/T= 2.0048
   1 Symmetry operations used in ECPInt.
 ECPInt:  NShTT=   13530 NPrTT=   41904 LenC2=   13037 LenP2D=   30948.
 LDataN:  DoStor=T MaxTD1= 7 Len=  274
 Calling FoFJK, ICntrl=      2127 FMM=F ISym2X=0 I1Cent= 0 IOpClX= 0 NMat=1 NMatS=1 NMatT=0.
 -------------------------------------------------------------------
 Center     Atomic                   Forces (Hartrees/Bohr)
 Number     Number              X              Y              Z
 -------------------------------------------------------------------
      1        6           0.003578321    0.007368593    0.000178592
      2        6          -0.003589543   -0.004206792   -0.000033289
      3        6           0.000347356   -0.002296876    0.000096103
      4        1          -0.000001415   -0.000027993   -0.000016556
      5        8          -0.000141722   -0.000498639    0.000042355
      6        6           0.000299792    0.000632329   -0.000730192
      7        1          -0.000010765   -0.000176800    0.000037725
      8        8          -0.000516863   -0.000846538    0.000241496
      9        8          -0.000010090   -0.000308146    0.000171867
     10        6           0.000081081   -0.000583585   -0.000135510
     11        6           0.000316125    0.000427157    0.000092938
     12        6          -0.000101519    0.000031046   -0.000022087
     13        1           0.000025736    0.000092588    0.000027050
     14        6          -0.000278346    0.000271689    0.000322171
     15        1           0.000022701    0.000052479   -0.000025157
     16        1          -0.000054119    0.000172603    0.000004353
     17        1           0.000107642    0.000108396    0.000016359
     18        6          -0.000081067   -0.000152040   -0.000258307
     19        1           0.000010894   -0.000026674   -0.000028450
     20        1          -0.000004199   -0.000032796    0.000018539
 -------------------------------------------------------------------
 Cartesian Forces:  Max     0.007368593 RMS     0.001333592
 -----------------------------------------------------------------------------------------------
                       Internal Coordinate Forces (Hartree/Bohr or radian)
  Cent   Atom   N1       Length/X         N2         Alpha/Y        N3         Beta/Z          J
 -----------------------------------------------------------------------------------------------
      1  C 
      2  C        1   0.000251(     1)
      3  C        1   0.000727(     2)      2   0.001716(    20)
      4  H        1   0.000008(     3)      2   0.000029(    21)      3  -0.000048(    38)     0
      5  O        2   0.000145(     4)      1  -0.000147(    22)      3  -0.001276(    39)     0
      6  C        3  -0.000303(     5)      1   0.001169(    23)      2  -0.000835(    40)     0
      7  H        3  -0.000043(     6)      1   0.000015(    24)      6  -0.000274(    41)     0
      8  O        2  -0.000384(     7)      1   0.000987(    25)      5  -0.002142(    42)     0
      9  O        6   0.000054(     8)      3   0.000358(    26)      1  -0.000525(    43)     0
     10  C        1   0.000359(     9)      2   0.000548(    27)      3  -0.000140(    44)     0
     11  C       10   0.000244(    10)      1   0.002235(    28)      2   0.000357(    45)     0
     12  C       10   0.000093(    11)      1   0.000380(    29)     11   0.001141(    46)     0
     13  H       10  -0.000008(    12)      1   0.000196(    30)     11   0.000053(    47)     0
     14  C       11  -0.000354(    13)     10   0.000528(    31)      1   0.000457(    48)     0
     15  H       11  -0.000030(    14)     10   0.000001(    32)     14  -0.000090(    49)     0
     16  H       12  -0.000104(    15)     10  -0.000005(    33)      1   0.001147(    50)     0
     17  H       12   0.000093(    16)     10   0.000045(    34)     16   0.000234(    51)     0
     18  C       12  -0.000145(    17)     10   0.000445(    35)     16   0.000632(    52)     0
     19  H       14  -0.000009(    18)     11   0.000062(    36)     10   0.000042(    53)     0
     20  H       18  -0.000010(    19)     12   0.000042(    37)     10  -0.000051(    54)     0
 -----------------------------------------------------------------------------------------------
 Internal  Forces:  Max     0.002235242 RMS     0.000657304

 GradGradGradGradGradGradGradGradGradGradGradGradGradGradGradGradGradGrad
 Berny optimization.
 Search for a local minimum.
 Step number   3 out of a maximum of   64
 All quantities printed in internal units (Hartrees-Bohrs-Radians)
 Update second derivatives using D2CorN and points    1    2    3
 DE= -2.08D-05 DEPred=-4.11D-05 R= 5.08D-01
 TightC=F SS=  1.41D+00  RLast= 9.86D-02 DXNew= 2.8284D-01 2.9589D-01
 Trust test= 5.08D-01 RLast= 9.86D-02 DXMaxT set to 2.83D-01
 ITU=  1  1  0
     Eigenvalues ---    0.00789   0.03584   0.05019   0.05609   0.06989
     Eigenvalues ---    0.09080   0.10420   0.11852   0.14260   0.16981
     Eigenvalues ---    0.19332   0.20337   0.20436   0.21611   0.25837
     Eigenvalues ---    0.28399   0.29356   0.29656   0.30418   0.32737
     Eigenvalues ---    0.32903   0.33922   0.34065   0.34725   0.34828
     Eigenvalues ---    0.35869   0.35907   0.35976   0.36005   0.36223
     Eigenvalues ---    0.36261   0.37089   0.38451   0.39221   0.39803
     Eigenvalues ---    0.42063   0.43592   0.46153   0.50990   0.54254
     Eigenvalues ---    0.55774   0.59797   0.60710   0.65363   0.66965
     Eigenvalues ---    0.74797   0.78002   1.06377   1.11527   1.80403
     Eigenvalues ---    1.96327   2.04310  15.38386  19.51329
 RFO step:  Lambda=-1.93675620D-05 EMin= 7.88703505D-03
 Quartic linear search produced a step of -0.34240.
 Variable       Old X    -DE/DX   Delta X   Delta X   Delta X     New X
                                 (Linear)    (Quad)   (Total)
    R2        2.79771   0.00025   0.00062  -0.00076  -0.00014   2.79757
    R3        2.52383   0.00073  -0.00038   0.00078   0.00040   2.52423
    R4        2.03656   0.00001   0.00006  -0.00004   0.00003   2.03659
    R5        2.26643   0.00015  -0.00071   0.00071   0.00001   2.26644
    R6        2.80299  -0.00030   0.00043  -0.00071  -0.00029   2.80271
    R7        2.03733  -0.00004   0.00005  -0.00013  -0.00008   2.03725
    R8        2.60119  -0.00038   0.00082  -0.00104  -0.00022   2.60097
    R9        2.24313   0.00005  -0.00001   0.00006   0.00005   2.24318
   R10        6.64352   0.00036   0.03179  -0.01045   0.02134   6.66486
   R11        2.54975   0.00024  -0.00023   0.00025   0.00003   2.54978
   R12        2.83379   0.00009   0.00023  -0.00038  -0.00015   2.83364
   R13        2.04126  -0.00001   0.00003  -0.00004  -0.00001   2.04124
   R14        2.75595  -0.00035   0.00058  -0.00113  -0.00055   2.75540
   R15        2.04287  -0.00003   0.00004  -0.00009  -0.00005   2.04282
   R16        2.07241  -0.00010  -0.00001  -0.00021  -0.00022   2.07219
   R17        2.07477   0.00009   0.00004   0.00018   0.00021   2.07498
   R18        2.83315  -0.00014   0.00020  -0.00024  -0.00004   2.83310
   R19        2.04210  -0.00001   0.00003  -0.00004  -0.00001   2.04209
   R20        2.04092  -0.00001  -0.00005   0.00001  -0.00003   2.04089
    A3        1.88504   0.00172   0.00002  -0.00005  -0.00003   1.88501
    A4        2.13535   0.00003  -0.00020   0.00023   0.00003   2.13538
    A5        2.25945  -0.00015   0.00005  -0.00056  -0.00051   2.25894
    A6        1.88812   0.00117   0.00027  -0.00013   0.00014   1.88826
    A7        2.27072   0.00001  -0.00024   0.00014  -0.00010   2.27062
    A8        1.88698   0.00099  -0.00040   0.00028  -0.00013   1.88686
    A9        2.28780   0.00036  -0.00073   0.00104   0.00031   2.28811
   A10        1.59814   0.00055   0.00044  -0.00009   0.00034   1.59848
   A11        1.38978   0.00224  -0.00020   0.00238   0.00218   1.39196
   A12        1.53562   0.00038   0.00020   0.00053   0.00073   1.53635
   A13        1.81726   0.00020  -0.00084   0.00086   0.00002   1.81728
   A14        1.90826   0.00053  -0.00002  -0.00008  -0.00010   1.90816
   A15        2.20107   0.00000   0.00010  -0.00007   0.00004   2.20111
   A16        1.98334  -0.00001  -0.00067   0.00045  -0.00022   1.98312
   A17        1.93627   0.00005   0.00048  -0.00001   0.00047   1.93674
   A18        1.80029   0.00044  -0.00010  -0.00023  -0.00032   1.79996
   A19        2.17857   0.00006  -0.00016   0.00018   0.00003   2.17860
   A20        2.16600   0.00004  -0.00010   0.00020   0.00010   2.16609
    D4        3.20781  -0.00005  -0.00269   0.00234  -0.00035   3.20746
    D5       -3.11839  -0.00128   0.00517   0.00089   0.00606  -3.11233
    D6        0.08032  -0.00084  -0.00291   0.00544   0.00253   0.08284
    D7        3.08799  -0.00027   0.00210  -0.00546  -0.00336   3.08463
    D8        3.07836  -0.00214  -0.00622  -0.00775  -0.01397   3.06439
    D9        2.96626  -0.00052   0.00383  -0.00861  -0.00478   2.96149
   D10       -1.60560  -0.00014  -0.00251   0.00180  -0.00071  -1.60631
   D11        0.52350   0.00036  -0.00051   0.00139   0.00089   0.52439
   D12        1.91691   0.00114   0.00001  -0.00018  -0.00017   1.91673
   D13       -2.18910   0.00005  -0.00011  -0.00005  -0.00016  -2.18926
   D14        1.44576   0.00046  -0.00089  -0.00102  -0.00192   1.44384
   D15        3.10405  -0.00009   0.00206  -0.00086   0.00121   3.10525
   D16        0.82601   0.00115  -0.00065   0.00281   0.00216   0.82817
   D17        2.06771   0.00023   0.00008  -0.00006   0.00002   2.06773
   D18       -2.15250   0.00063   0.00153  -0.00161  -0.00008  -2.15258
   D19        3.09308   0.00004   0.00234  -0.00041   0.00194   3.09502
   D20       -3.09781  -0.00005  -0.00215  -0.00031  -0.00246  -3.10027
         Item               Value     Threshold  Converged?
 Maximum Force            0.002235     0.000450     NO 
 RMS     Force            0.000657     0.000300     NO 
 Maximum Displacement     0.021338     0.001800     NO 
 RMS     Displacement     0.003741     0.001200     NO 
 Predicted change in Energy=-2.143867D-05
 GradGradGradGradGradGradGradGradGradGradGradGradGradGradGradGradGradGrad

 ---------------------------------------------------------------------------------------------------
                            Z-MATRIX (ANGSTROMS AND DEGREES)
   CD    Cent   Atom    N1       Length/X        N2       Alpha/Y        N3        Beta/Z          J
 ---------------------------------------------------------------------------------------------------
      1      1  C 
      2      2  C        1   1.480409(     1)
      3      3  C        1   1.335767(     2)      2  108.003(    20)
      4      4  H        1   1.077717(     3)      2  122.348(    21)      3  183.774(    38)      0
      5      5  O        2   1.199349(     4)      1  129.428(    22)      3 -178.323(    39)      0
      6      6  C        3   1.483128(     5)      1  108.189(    23)      2    4.747(    40)      0
      7      7  H        3   1.078067(     6)      1  130.097(    24)      6  176.736(    41)      0
      8      8  O        2   1.376375(     7)      1  108.109(    25)      5  175.577(    42)      0
      9      9  O        6   1.187040(     8)      3  131.099(    26)      1  169.681(    43)      0
     10     10  C        1   3.526891(     9)      2   91.586(    27)      3  -92.035(    44)      0
     11     11  C       10   1.349285(    10)      1   79.754(    28)      2   30.045(    45)      0
     12     12  C       10   1.499498(    11)      1   88.026(    29)     11  109.821(    46)      0
     13     13  H       10   1.080179(    12)      1  104.122(    30)     11 -125.435(    47)      0
     14     14  C       11   1.458095(    13)     10  109.330(    31)      1   82.726(    48)      0
     15     15  H       11   1.081014(    14)     10  126.114(    32)     14  177.918(    49)      0
     16     16  H       12   1.096556(    15)     10  113.624(    33)      1   47.450(    50)      0
     17     17  H       12   1.098032(    16)     10  110.967(    34)     16  118.472(    51)      0
     18     18  C       12   1.499214(    17)     10  103.130(    35)     16 -123.334(    52)      0
     19     19  H       14   1.080626(    18)     11  124.824(    36)     10  177.331(    53)      0
     20     20  H       18   1.079990(    19)     12  124.108(    37)     10 -177.632(    54)      0
 ---------------------------------------------------------------------------------------------------
                         Z-Matrix orientation:                         
 ---------------------------------------------------------------------
 Center     Atomic      Atomic             Coordinates (Angstroms)
 Number     Number       Type             X           Y           Z
 ---------------------------------------------------------------------
      1          6           0        0.000000    0.000000    0.000000
      2          6           0        0.000000    0.000000    1.480409
      3          6           0        1.270368    0.000000   -0.412840
      4          1           0       -0.908496    0.059926   -0.576644
      5          8           0       -0.926014   -0.027107    2.242118
      6          6           0        2.144659   -0.116594    0.779506
      7          1           0        1.675945    0.021339   -1.411479
      8          8           0        1.306697   -0.062688    1.908218
      9          8           0        3.311079   -0.314896    0.875450
     10          6           0       -0.125192    3.523316   -0.097628
     11          6           0        0.546570    3.338950    1.057930
     12          6           0        0.843125    3.474331   -1.241505
     13          1           0       -1.176695    3.746847   -0.203284
     14          6           0        1.958825    3.123500    0.766110
     15          1           0        0.125595    3.377960    2.052842
     16          1           0        0.570875    2.748358   -2.016926
     17          1           0        0.893271    4.443276   -1.755610
     18          6           0        2.148729    3.171345   -0.569760
     19          1           0        2.729736    2.990600    1.511620
     20          1           0        3.093481    3.097278   -1.087774
 ---------------------------------------------------------------------
                    Distance matrix (angstroms):
                    1          2          3          4          5
     1  C    0.000000
     2  C    1.480409   0.000000
     3  C    1.335767   2.279963   0.000000
     4  H    1.077717   2.249539   2.185834   0.000000
     5  O    2.425970   1.199349   3.445814   2.820160   0.000000
     6  C    2.284904   2.259297   1.483128   3.345453   3.402393
     7  H    2.191237   3.342494   1.078067   2.716206   4.485679
     8  O    2.313587   1.376375   2.322189   3.331164   2.257821
     9  O    3.439305   3.380589   2.433794   4.478156   4.461341
    10  C    3.526891   3.862594   3.802723   3.583028   4.326804
    11  C    3.544932   3.409665   3.719628   3.942213   3.860200
    12  C    3.784596   4.493401   3.597248   3.894660   5.246480
    13  H    3.932531   4.272973   4.480056   3.715470   4.503951
    14  C    3.765657   3.755459   3.408834   4.405678   4.519649
    15  H    3.954813   3.428421   4.335978   4.358083   3.568780
    16  H    3.456496   4.484499   3.258198   3.389781   5.299372
    17  H    4.860329   5.568883   4.657031   4.883654   6.267053
    18  C    3.872866   4.344843   3.294476   4.362064   5.252695
    19  H    4.322053   4.049212   3.844085   5.117267   4.796320
    20  H    4.510655   5.075266   3.656830   5.050008   6.083281
                    6          7          8          9         10
     6  C    0.000000
     7  H    2.244801   0.000000
     8  O    1.406797   3.341227   0.000000
     9  O    1.187040   2.831388   2.268869   0.000000
    10  C    4.378417   4.151403   4.351224   5.242777   0.000000
    11  C    3.817354   4.287191   3.587746   4.585455   1.349285
    12  C    4.321252   3.556070   4.758798   4.993049   1.499498
    13  H    5.188781   4.845276   5.013805   6.148296   1.080179
    14  C    3.245447   3.800700   3.446952   3.696365   2.291075
    15  H    4.232011   5.066755   3.640601   5.017046   2.169917
    16  H    4.301719   3.004061   4.883664   5.025742   2.183753
    17  H    5.365184   4.503835   5.822222   5.950502   2.152324
    18  C    3.554023   3.294625   4.160332   3.948869   2.348939
    19  H    3.245452   4.297848   3.391886   3.415989   3.320253
    20  H    3.836140   3.402292   4.706798   3.942655   3.394371
                   11         12         13         14         15
    11  C    0.000000
    12  C    2.322428   0.000000
    13  H    2.174094   2.287322   0.000000
    14  C    1.458095   2.323442   3.340624   0.000000
    15  H    1.081014   3.372959   2.630996   2.254143   0.000000
    16  H    3.131155   1.096556   2.709295   3.132479   4.142183
    17  H    3.042326   1.098032   2.679456   3.039126   4.028465
    18  C    2.290061   1.499214   3.394695   1.350149   3.318705
    19  H    2.256855   3.372387   4.332783   1.080626   2.687846
    20  H    3.339042   2.286898   4.408930   2.173710   4.330196
                   16         17         18         19         20
    16  H    0.000000
    17  H    1.744985   0.000000
    18  C    2.182392   2.144813   0.000000
    19  H    4.143670   4.019660   2.168498   0.000000
    20  H    2.710832   2.664327   1.079990   2.626888   0.000000
 Symmetry turned off by external request.
 Stoichiometry    C9H8O3
 Framework group  C1[X(C9H8O3)]
 Deg. of freedom    54
 Full point group                 C1      NOp   1
 Rotational constants (GHZ):           1.3561512           0.7917125           0.6387463
 Standard basis: def2TZVP (5D, 7F)
 The following finite field(s) will be applied:
 An electric field of             -0.0055 -0.0081  0.0022
   420 basis functions,   676 primitive gaussians,   480 cartesian basis functions
    43 alpha electrons       43 beta electrons
       nuclear repulsion energy       666.6573718702 Hartrees.
 NAtoms=   20 NActive=   20 NUniq=   20 SFac= 1.00D+00 NAtFMM=   60 NAOKFM=F Big=F
 Integral buffers will be    131072 words long.
 Raffenetti 2 integral format.
 Two-electron integral symmetry is turned off.
 One-electron integrals computed using PRISM.
   1 Symmetry operations used in ECPInt.
 ECPInt:  NShTT=   13530 NPrTT=   41904 LenC2=   13030 LenP2D=   30918.
 LDataN:  DoStor=T MaxTD1= 6 Len=  172
 NBasis=   420 RedAO= T EigKep=  3.94D-05  NBF=   420
 NBsUse=   420 1.00D-06 EigRej= -1.00D+00 NBFU=   420
 The nuclear repulsion energy is now       664.1566640560 hartrees.
 Initial guess from the checkpoint file:  "checkpoint.chk"
 B after Tr=    -0.002670    0.006061   -0.003534
         Rot=    1.000000   -0.000448   -0.000210   -0.000043 Ang=  -0.06 deg.
 ExpMin= 9.52D-02 ExpMax= 2.70D+04 ExpMxC= 9.22D+02 IAcc=2 IRadAn=         4 AccDes= 0.00D+00
 Harris functional with IExCor=  402 and IRadAn=       4 diagonalized for initial guess.
 HarFok:  IExCor=  402 AccDes= 0.00D+00 IRadAn=         4 IDoV= 1 UseB2=F ITyADJ=14
 ICtDFT=  3500011 ScaDFX=  1.000000  1.000000  1.000000  1.000000
 FoFCou: FMM=F IPFlag=           0 FMFlag=      100000 FMFlg1=           0
         NFxFlg=           0 DoJE=T BraDBF=F KetDBF=T FulRan=T
         wScrn=  0.000000 ICntrl=       500 IOpCl=  0 I1Cent=   200000004 NGrid=           0
         NMat0=    1 NMatS0=      1 NMatT0=    0 NMatD0=    1 NMtDS0=    0 NMtDT0=    0
 Symmetry not used in FoFCou.
 Requested convergence on RMS density matrix=1.00D-08 within 128 cycles.
 Requested convergence on MAX density matrix=1.00D-06.
 Requested convergence on             energy=1.00D-06.
 No special actions if energy rises.
 Integral accuracy reduced to 1.0D-05 until final iterations.
 Initial convergence to 1.0D-05 achieved.  Increase integral accuracy.
 SCF Done:  E(RB3LYP) =  -573.639728255     A.U. after   10 cycles
            NFock= 10  Conv=0.67D-08     -V/T= 2.0048
   1 Symmetry operations used in ECPInt.
 ECPInt:  NShTT=   13530 NPrTT=   41904 LenC2=   13030 LenP2D=   30918.
 LDataN:  DoStor=T MaxTD1= 7 Len=  274
 Calling FoFJK, ICntrl=      2127 FMM=F ISym2X=0 I1Cent= 0 IOpClX= 0 NMat=1 NMatS=1 NMatT=0.
 -------------------------------------------------------------------
[...]
 90776,-0.00648555,0.32632232,-0.02021445,0.00391583,-0.03266273,-0.121
 62343,0.00084806,-0.06235412,-0.00173841,-0.00140137,0.00607692,0.0026
 1024,-0.00046928,-0.00403440,-0.10096143,0.00183425,0.02101373,-0.0498
 9639,0.00148329,-0.01656819,0.00134348,0.00037672,0.00033281,0.3769740
 4,0.00256663,0.01610970,0.00158937,0.00078828,-0.06049147,0.00584763,-
 0.00007680,0.01502317,0.00269072,-0.00000571,0.00245830,0.00016281,0.0
 0271034,0.01443966,-0.00161122,0.00184162,-0.05808976,0.00360988,0.000
 41017,0.00195369,0.00036950,-0.02031339,0.05676651,-0.03288914,0.00076
 408,-0.03177102,-0.05486791,0.00528989,-0.16275043,0.00820741,-0.00018
 796,-0.05774123,0.00180252,0.00027619,-0.00497357,0.04654951,-0.001558
 09,0.03010876,-0.02864415,0.00610125,-0.17245874,-0.00652819,0.0000387
 9,-0.00326659,0.02782316,-0.00534955,0.38375013,0.00605502,-0.00093966
 ,-0.01202015,0.02268897,-0.00007669,0.01871688,-0.05026470,0.01028755,
 -0.01579969,-0.00148434,-0.00058769,0.00007766,-0.00946972,-0.00015740
 ,-0.00157362,-0.75665867,0.12327133,-0.08759261,-0.00036532,0.00018566
 ,-0.00144505,-0.08754822,0.01193707,0.03848188,0.87688821,0.00039538,0
 .00098462,0.00325643,-0.00269314,0.00649703,-0.00338508,0.01099884,0.0
 1877545,0.00217717,0.00032948,-0.00234299,-0.00044987,0.00122439,-0.00
 128802,0.00056395,0.12096934,-0.08845747,0.01692294,-0.00003039,-0.001
 06102,0.00016030,0.01363721,0.01239970,-0.00613981,-0.14617267,0.05608
 688,-0.00175183,-0.00075236,-0.00551260,-0.01271369,0.00055761,-0.0146
 9027,-0.03639347,0.00617745,0.01073097,-0.00161406,-0.00028479,0.00180
 271,0.00839085,0.00013814,0.00072419,-0.07877390,0.01541411,-0.1068418
 8,0.00199157,-0.00031067,0.00164296,0.05985969,-0.00829591,0.01839180,
 0.06128790,-0.01384671,0.09339071,0.00032129,0.00109536,-0.00084027,-0
 .00095202,0.00135920,0.00083906,0.00034368,-0.00148869,0.00035964,0.00
 015712,-0.00011441,0.00010414,0.00056349,-0.00074422,-0.00033292,-0.00
 280731,-0.00106477,-0.00045416,-0.00020003,0.00011013,-0.00010413,0.00
 082118,-0.00027512,-0.00009311,0.00126257,0.00065662,0.00018163,0.7316
 5553,-0.00013152,0.00193121,-0.00107094,-0.00036017,0.00009440,0.00077
 647,0.00147539,-0.00123919,0.00046574,0.00004703,-0.00021093,0.0001350
 1,0.00047269,-0.00014523,-0.00019821,-0.00039605,-0.00021497,-0.001582
 29,-0.00001475,0.00004724,-0.00002859,-0.00052805,0.00023065,0.0004817
 0,0.00051839,-0.00010818,0.00041797,-0.14573286,0.17508805,-0.00242930
 ,0.00244332,0.00180399,-0.00014417,0.00259751,-0.00266358,0.00454507,-
 0.00096170,-0.00084294,-0.00011444,-0.00030167,0.00024793,-0.00135314,
 -0.00095790,0.00180255,-0.00335700,-0.00058037,-0.00260064,0.00009696,
 -0.00053202,0.00018163,0.00094167,-0.00050528,-0.00000028,0.00263763,0
 .00013604,0.00082967,0.11637842,-0.05265564,0.60272853,0.00439350,-0.0
 0404886,-0.00306216,0.00093367,-0.00201388,0.00316097,-0.00728016,-0.0
 0037906,0.00079659,0.00008630,0.00042149,-0.00019361,0.00165777,0.0009
 3096,-0.00216399,0.00390482,0.00102424,0.00378390,-0.00009277,0.000676
 41,-0.00017970,-0.00113428,0.00004192,-0.00021424,-0.00381837,0.000070
 86,-0.00118450,-0.18325488,0.03699095,-0.13841669,0.53295144,0.0001491
 4,0.00092948,0.00038523,-0.00070655,0.00190219,-0.00017007,0.00174844,
 -0.00163878,-0.00031487,-0.00003964,0.00002885,0.00015506,-0.00041887,
 -0.00120878,0.00039151,-0.00174933,-0.00074079,-0.00114506,-0.00000033
 ,-0.00018809,0.00003391,0.00081465,-0.00052938,-0.00026974,0.00152212,
 -0.00023347,0.00037669,0.03456142,-0.07041404,0.04064676,-0.09093910,0
 .15195463,0.00219327,-0.00132776,-0.00184317,-0.00078346,-0.00219353,0
 .00339707,-0.00362497,0.00011325,-0.00007114,0.00009871,0.00014302,-0.
 00020002,0.00195613,0.00087092,-0.00244052,0.00174726,-0.00007991,0.00
 246833,-0.00008737,0.00030364,-0.00018284,-0.00024547,0.00047207,-0.00
 023682,-0.00186937,0.00031725,-0.00066262,-0.15261928,0.04668126,-0.36
 369578,-0.00710102,-0.02077725,0.84404506,-0.00061800,-0.00056288,0.00
 119083,-0.00034609,-0.00012217,-0.00113829,0.00001207,0.00089037,-0.00
 089632,-0.00008862,0.00001670,0.00003658,-0.00026248,0.00001251,0.0004
 8773,0.00042831,0.00024679,0.00023202,0.00008627,-0.00026525,0.0001634
 0,0.00049039,0.00012319,-0.00012770,-0.00017234,-0.00010466,0.00000292
 ,-0.12976633,0.00724125,0.06646490,0.00687274,-0.00028221,0.00080404,0
 .42279052,0.00033234,-0.00009857,-0.00027565,0.00011772,0.00024246,0.0
 0062705,-0.00015715,-0.00071807,0.00057558,-0.00006793,-0.00003315,0.0
 0007316,0.00014050,-0.00008785,-0.00025773,0.00026434,0.00030989,0.000
 10455,0.00006700,-0.00010468,0.00007051,-0.00023999,-0.00016149,-0.000
 21161,-0.00013010,-0.00018828,0.00000786,0.00750349,-0.07302537,-0.011
 28863,0.00431911,0.00426713,0.00473262,0.01986658,0.50205864,-0.000976
 30,0.00025013,0.00052608,-0.00081472,-0.00011387,-0.00099834,0.0013035
 3,0.00021466,0.00029904,-0.00011699,-0.00006774,0.00015156,-0.00019728
 ,-0.00001814,0.00053284,0.00036598,-0.00017120,-0.00161366,0.00028287,
 -0.00015303,-0.00002675,-0.00001944,0.00076321,0.00021979,0.00038994,-
 0.00018110,0.00041804,0.04944615,-0.00664579,-0.13753439,-0.00691998,0
 .00610779,-0.05395438,0.03548010,0.00030459,0.56598857,0.00010963,-0.0
 0002398,-0.00008476,-0.00023796,0.00002527,0.00013427,-0.00014324,-0.0
 0005568,0.00003361,0.00002097,0.00005857,0.00001380,0.00015388,-0.0000
 2628,-0.00012501,-0.00010586,-0.00011634,0.00008988,-0.00000633,-0.000
 01581,-0.00000955,0.00017425,0.00003258,-0.00002172,0.00003304,0.00008
 546,-0.00001756,-0.32391135,0.07539549,-0.02164720,-0.00783852,0.00305
 612,0.00406731,-0.00767581,0.00219277,-0.00577024,0.34073004,-0.000023
 03,-0.00000356,0.00037139,0.00046427,0.00001687,-0.00021299,0.00020234
 ,0.00016455,-0.00014696,-0.00001791,-0.00013385,-0.00008594,-0.0003962
 8,0.00007384,0.00012787,0.00003781,0.00004842,0.00005774,0.00001344,0.
 00001935,0.00000432,-0.00018619,-0.00003770,-0.00011683,-0.00001237,0.
 00006310,-0.00004971,0.07888957,-0.05011446,0.00780232,0.00308849,0.00
 405652,-0.00111949,-0.00146651,-0.00089841,0.00052460,-0.08223267,0.04
 242122,0.00006532,-0.00001943,0.00001462,-0.00020067,-0.00003581,0.000
 13382,-0.00003875,0.00002233,-0.00004205,-0.00000298,-0.00002398,0.000
 01564,0.00011594,-0.00003224,-0.00009912,-0.00000736,0.00000210,0.0000
 4298,0.00001050,0.00002565,0.00000200,0.00006541,0.00001062,-0.0000219
 7,0.00000212,0.00000510,-0.00000358,-0.01837757,0.00747272,-0.05904509
 ,-0.02536404,0.00642203,0.00562027,0.01987853,-0.00616057,0.00862893,0
 .02370520,-0.00823114,0.05117805,-0.00495022,0.00063912,0.00288246,0.0
 0104669,-0.00102978,-0.00427848,0.00516577,0.00295673,-0.00018362,-0.0
 0007730,-0.00028490,0.00007636,-0.00225714,0.00021821,0.00266871,-0.00
 077816,0.00112126,-0.00209153,0.00005258,-0.00058695,0.00020266,-0.000
 66799,-0.00008514,0.00035763,0.00174325,-0.00050192,0.00047236,-0.0531
 6674,0.01510429,-0.03907209,-0.21562968,0.03275130,0.03754175,-0.00274
 058,-0.00064264,-0.01587030,-0.00027428,0.00159007,-0.00235233,0.59538
 865,-0.00008344,-0.00190555,-0.00000220,0.00070801,-0.00088869,-0.0008
 7429,-0.00169368,-0.00086550,0.00078606,0.00000449,0.00014632,0.000008
 41,-0.00049954,0.00017650,0.00047065,0.00070966,0.00145268,0.00023552,
 0.00012739,0.00011944,0.00006205,-0.00097978,-0.00077154,0.00001308,0.
 00004001,-0.00139485,-0.00014512,0.01403367,0.00644532,0.01009409,0.02
 968755,-0.06483017,-0.00863121,0.00360697,0.00477935,0.00722167,0.0021
 5381,0.00668582,0.00075591,-0.09201250,0.15169358,0.00636413,-0.000228
 49,-0.00455339,-0.00052757,0.00085657,0.00664680,-0.00743417,-0.003472
 53,-0.00043762,0.00011612,0.00013322,-0.00024551,0.00289653,-0.0001636
 8,-0.00370470,0.00338997,-0.00397068,0.00484376,-0.00027362,0.00088458
 ,-0.00031681,0.00059651,0.00053351,-0.00085309,-0.00489850,0.00225453,
 -0.00160098,-0.01285470,0.00453149,0.01856879,0.01160635,-0.00385115,-
 0.11300484,-0.02211430,0.01079377,-0.04599000,-0.00255912,0.00100771,-
 0.00438943,0.11146543,-0.04337144,0.78458061,0.00019518,0.00009965,-0.
 00019450,0.00037980,0.00007753,0.00044821,-0.00023255,-0.00013822,-0.0
 0005900,0.00000839,-0.00000981,-0.00002728,-0.00003848,0.00000164,-0.0
 0016617,-0.00014143,-0.00014875,0.00044763,-0.00002828,-0.00000342,-0.
 00002651,-0.00007174,-0.00013143,-0.00027378,-0.00005446,0.00009195,-0
 .00011930,0.01204724,-0.00137008,-0.01602854,-0.09719892,0.01109454,0.
 09725628,-0.00158392,0.00328242,-0.00257429,0.00009056,-0.00116001,0.0
 0092850,-0.00036440,0.00029170,0.02423866,0.09123373,-0.00032112,0.000
 04454,0.00021069,0.00045603,-0.00085251,-0.00101217,0.00030415,0.00014
 943,0.00005887,0.00000056,-0.00001565,0.00000955,-0.00025777,0.0005343
 8,0.00047564,0.00063955,0.00007465,-0.00065115,0.00001846,-0.00004826,
 0.00003136,-0.00040216,0.00025868,0.00046057,-0.00027016,-0.00003163,0
 .00010555,-0.00199145,0.00409499,0.00484845,0.01227977,-0.03953352,-0.
 01839951,0.00295629,0.01076399,0.00155674,-0.00132935,-0.00463149,-0.0
 0057542,-0.00029226,0.00076449,-0.00435555,-0.01290359,0.02743307,-0.0
 0022105,-0.00000257,0.00019419,0.00046229,-0.00024953,-0.00072104,0.00
 027450,0.00007974,0.00002941,0.00000721,0.00000029,-0.00000526,-0.0003
 8022,0.00024240,0.00042183,0.00023111,0.00009679,-0.00041593,-0.000004
 29,0.00001378,0.00001697,-0.00021793,0.00008054,0.00026466,-0.00004317
 ,-0.00006782,0.00008289,0.01346349,-0.00250365,-0.01501373,0.09663609,
 -0.01687925,-0.30286890,-0.00200818,0.00042190,-0.00237086,-0.00044965
 ,0.00004495,0.00074140,-0.00263346,0.00047062,0.00183088,-0.10552036,0
 .01821522,0.31959702,0.00037403,-0.00000411,0.00021768,-0.00024193,0.0
 0023576,0.00000412,-0.00012440,-0.00012527,-0.00043043,-0.00001575,-0.
 00009500,0.00001003,0.00006517,-0.00010719,-0.00002936,-0.00024920,-0.
 00035624,0.00003493,-0.00004780,0.00028464,0.00000723,0.00026030,0.000
 01854,0.00012015,-0.00003088,0.00017682,0.00004318,0.00926268,0.015172
 30,0.01414253,-0.00371709,-0.00200832,0.00326594,-0.06575961,-0.048500
 07,-0.05100482,-0.00017226,-0.00067482,-0.00087653,-0.00393358,0.00339
 995,-0.00240416,0.00012837,-0.00165280,0.00035714,0.06849985,0.0001014
 6,0.00001648,-0.00010671,-0.00004280,-0.00012091,0.00029676,-0.0000925
 9,-0.00023718,0.00022638,-0.00001307,-0.00001673,-0.00000647,0.0001316
 0,0.00004197,-0.00015341,0.00018953,-0.00012218,0.00012284,0.00003869,
 -0.00014599,0.00003739,-0.00003388,-0.00003112,0.00006051,-0.00014756,
 0.00004980,-0.00005616,-0.00038338,-0.00189520,0.00113846,-0.00030932,
 0.00063439,-0.00034815,-0.04782211,-0.14375956,-0.11856456,0.00037906,
 0.00021093,-0.00048458,0.00197467,-0.00083761,0.00018768,-0.00005523,-
 0.00009582,0.00019074,0.05405639,0.16274523,0.00048611,-0.00025213,-0.
 00009370,0.00016129,-0.00016533,-0.00045339,-0.00050304,-0.00018899,0.
 00015441,0.00015545,0.00019756,-0.00003291,-0.00001727,0.00009105,0.00
 016185,-0.00040858,-0.00004638,-0.00022304,-0.00017237,0.00025126,0.00
 013473,0.00012323,0.00003335,0.00046175,0.00011294,0.00003853,0.000089
 57,-0.00840574,-0.01326845,-0.01611412,0.00167122,-0.00053047,-0.00252
 361,-0.05164639,-0.12158354,-0.16014799,0.00066369,0.00072984,0.000280
 16,-0.00096609,-0.00123617,-0.00083577,0.00001817,0.00177345,-0.000719
 04,0.05782172,0.12960638,0.17977480,0.00002369,-0.00001241,0.00023910,
 -0.00023078,0.00022163,-0.00015346,-0.00004574,0.00003980,-0.00024508,
 0.00002256,0.00002415,0.00000288,0.00000788,-0.00011751,0.00004951,-0.
 00017380,-0.00031673,0.00008170,-0.00000717,-0.00001946,0.00001791,0.0
 0027782,0.00001158,0.00000391,0.00002420,0.00014133,0.00000284,-0.0011
 2718,-0.01916776,0.01119621,-0.00301569,0.00229835,0.00272938,-0.03950
 444,-0.01514228,0.01015910,0.00009997,0.00090390,-0.00030585,-0.004009
 31,-0.00059214,-0.00267170,0.00074171,0.00139780,0.00022293,-0.0001721
 7,-0.00921872,0.00377684,0.04492282,0.00008857,-0.00001848,-0.00000673
 ,0.00003408,-0.00011971,-0.00013118,-0.00003226,-0.00004688,0.00010347
 ,0.00003640,0.00003523,-0.00000901,-0.00002343,0.00003988,0.00005682,-
 0.00007169,-0.00002676,-0.00013405,-0.00005882,0.00007793,0.00003445,-
 0.00000426,0.00005637,0.00013626,0.00004830,-0.00001842,0.00003384,-0.
 00070670,0.00311905,-0.00014870,-0.00136593,-0.00002385,-0.00197237,-0
 .01644478,-0.23481173,0.10599803,-0.00014246,0.00030028,0.00062907,0.0
 0214355,-0.00010040,-0.00160871,-0.00028647,-0.00060054,-0.00013524,-0
 .00250530,-0.02107863,0.00865819,0.01794112,0.25927534,-0.00001388,-0.
 00003277,0.00009340,0.00009074,-0.00004714,-0.00024103,0.00010613,-0.0
 0008076,0.00010715,0.00003995,0.00004591,-0.00000110,-0.00010762,0.000
 00127,0.00014310,-0.00016936,0.00009369,-0.00020073,-0.00005747,0.0000
 6295,0.00005822,-0.00002018,-0.00003135,0.00016583,0.00016730,-0.00008
 384,0.00005739,0.00117975,0.01939186,-0.01381221,0.00122163,0.00003498
 ,-0.00194946,0.01139209,0.11136219,-0.09098438,0.00003403,-0.00089767,
 0.00034512,0.00012439,0.00092976,-0.00050614,-0.00076822,-0.00185685,-
 0.00065160,-0.00217356,-0.02010903,0.00935696,-0.01006235,-0.11690858,
 0.10587103,-0.00161245,0.00028435,0.00071069,-0.00100783,0.00041791,-0
 .00071112,0.00157811,0.00088924,0.00017225,-0.00005910,-0.00010798,0.0
 0012860,-0.00009091,-0.00033572,0.00043073,-0.00112347,-0.00019281,-0.
 00096462,0.00025424,-0.00019949,-0.00003213,0.00045056,0.00011232,0.00
 004283,0.00088436,0.00034140,0.00022189,-0.05392629,0.01293610,0.00815
 555,-0.02019106,0.00587677,0.03314710,-0.17240104,0.02509453,-0.028573
 25,-0.00049639,0.00033759,0.00287115,-0.10806412,0.00567280,0.03827531
 ,-0.00578598,0.00150832,-0.00072692,-0.00492878,0.00192027,-0.00268970
 ,0.00224537,0.00087313,-0.00055232,0.62897785,-0.00249130,-0.00106536,
 0.00242709,-0.00034570,-0.00041438,-0.00350811,0.00144967,0.00247239,-
 0.00167203,0.00002975,0.00001625,0.00001309,-0.00083040,0.00012681,0.0
 0149763,0.00105040,-0.00065389,-0.00049933,0.00006309,-0.00081697,0.00
 040090,0.00080673,0.00038318,0.00038049,-0.00036330,-0.00035650,0.0004
 8745,0.01263749,0.00512878,-0.00237217,0.00561618,0.00840461,-0.003157
 34,0.02538239,-0.07830311,0.00674573,-0.00029029,-0.00056093,0.0000728
 6,0.00391648,-0.06118520,0.01167924,0.00158454,0.00186778,0.00013156,-
 0.02025843,0.00543506,-0.00557090,0.02494209,-0.00688628,0.00961672,-0
 .08537382,0.15910822,-0.00560079,-0.00101798,0.00366521,0.00163521,-0.
 00116953,-0.00639830,0.00563816,0.00348668,-0.00002111,-0.00006012,-0.
 00013554,0.00014122,-0.00271768,0.00062160,0.00333372,-0.00176779,0.00
 352072,-0.00337280,0.00021233,-0.00094995,0.00037302,-0.00080493,-0.00
 042518,0.00069154,0.00311149,-0.00180180,0.00109555,0.01264846,-0.0029
 0044,-0.01130169,0.05769435,-0.00959319,-0.01675904,-0.04701661,0.0099
 0274,-0.09054229,0.00209176,0.00008528,-0.00523051,0.02373600,0.009142
 51,-0.44585680,0.00186096,-0.00080664,-0.00047255,-0.01911621,0.008186
 18,-0.00889404,-0.01495321,0.00507627,-0.00760502,-0.14920823,-0.00850
 233,0.72797583,-0.00013011,0.00011716,0.00021281,-0.00081294,0.0001298
 6,-0.00036833,0.00028303,-0.00007139,0.00001512,0.00000938,0.00000003,
 0.00003665,0.00020099,-0.00006460,0.00005434,-0.00021208,-0.00051630,-
 0.00087728,0.00002202,-0.00001157,0.00001870,0.00036908,0.00032234,0.0
 0042659,0.00018660,0.00031222,0.00022367,-0.00478535,0.00141458,0.0005
 4437,-0.00832022,0.00154238,-0.01844544,0.00006893,0.00158739,0.002252
 14,-0.00030628,0.00030038,-0.00113212,-0.21016782,0.03501984,-0.140415
 19,0.00041754,-0.00017883,0.00058594,0.00065832,-0.00015527,0.00007789
 ,-0.00009342,-0.00001488,-0.00026762,0.00881909,-0.00114720,0.00543394
 ,0.21373713,-0.00017548,0.00006569,0.00017446,-0.00090442,0.00012712,-
 0.00017434,0.00034634,0.00015196,-0.00006488,0.00001326,-0.00005294,0.
 00002784,0.00035521,-0.00004222,-0.00012983,-0.00123016,-0.00103457,-0
 .00057072,0.00000273,-0.00002142,0.00001909,0.00073714,0.00013561,0.00
 009353,0.00048701,0.00055922,0.00027166,0.00129536,0.00186481,-0.00062
 636,0.00267003,0.00028465,0.00411215,0.00251098,0.01088954,0.00065098,
 0.00019053,0.00042423,0.00026417,0.03302683,-0.04473278,0.02759449,-0.
 00022816,-0.00063696,-0.00010727,0.00188237,-0.00081339,0.00093983,-0.
 00232796,0.00019705,-0.00104726,-0.00012145,0.00400091,0.00007432,-0.0
 3772240,0.03330862,-0.00006606,-0.00000750,0.00007496,-0.00024550,0.00
 000989,-0.00004370,0.00009318,0.00002299,-0.00002556,0.00001729,0.0000
 0871,-0.00000691,0.00009186,-0.00001499,-0.00005164,-0.00090559,-0.000
 07128,-0.00001552,-0.00001854,0.00000391,-0.00000576,0.00029131,0.0000
 1356,-0.00003897,0.00058101,0.00015791,0.00008624,0.00318045,-0.000674
 57,-0.00106950,0.00794684,-0.00149662,0.01036415,0.00104476,0.00001900
 ,-0.00421159,0.00026738,-0.00019172,0.00076346,-0.13881650,0.02783634,
 -0.18840002,-0.00084480,0.00018368,-0.00007395,-0.00070288,0.00039865,
 -0.00050012,-0.00068671,0.00004943,-0.00047121,-0.02412824,0.00509275,
 -0.01123668,0.15235726,-0.03113333,0.19394127,-0.00004585,0.00007565,-
 0.00012043,-0.00008345,0.00004569,0.00018248,-0.00000574,0.00002419,0.
 00018378,0.00000591,0.00001329,0.00000178,0.00008121,-0.00001940,-0.00
 011711,-0.00018115,-0.00010233,0.00022676,-0.00007507,-0.00017140,-0.0
 0007423,0.00008501,-0.00002899,-0.00015564,0.00010080,0.00007147,-0.00
 011019,-0.00253731,0.00093280,-0.00254077,0.00069139,0.00072911,-0.000
 03079,-0.00982996,0.00011197,0.01315779,-0.00024408,0.00034193,0.00101
 553,0.00368437,0.00040524,-0.00279598,0.00025765,0.00003856,-0.0000354
 9,0.00014471,-0.00051774,-0.00025939,0.00001366,0.00049181,-0.00016344
 ,-0.27352218,0.03362164,0.12718290,0.00005611,-0.00080774,0.00054349,0
 .28140397,-0.00004857,0.00006203,-0.00011132,0.00000553,-0.00001751,0.
 00018607,-0.00002225,-0.00002699,0.00040669,0.00000669,0.00001010,-0.0
 0000465,0.00002314,0.00004517,-0.00009959,-0.00085375,0.00027369,0.000
 34126,-0.00015848,-0.00009762,-0.00010023,0.00010447,-0.00010275,-0.00
 026274,0.00056015,0.00006504,-0.00024691,0.00035930,-0.00067690,0.0012
 2351,0.00123818,0.00687843,0.00026034,0.00421655,-0.00112074,-0.004422
 73,0.00066320,0.00189526,-0.00011940,-0.00000640,0.00524881,0.00056544
 ,-0.00008879,0.00046035,-0.00004322,0.00106078,0.00002046,0.00052294,-
 0.00100678,0.00063054,-0.00044410,0.03006654,-0.03670138,-0.01279375,-
 0.00086376,-0.00467513,-0.00020678,-0.03525574,0.02782914,0.00006689,-
 0.00000483,-0.00007765,0.00014704,-0.00002297,0.00004791,-0.00012352,-
 0.00004625,0.00004733,-0.00000559,0.00001386,0.00000177,-0.00005802,0.
 00001599,0.00002107,0.00051724,-0.00003402,-0.00005261,-0.00001511,0.0
 0000947,0.00006029,-0.00019705,0.00004172,0.00005845,-0.00032459,-0.00
 003413,-0.00003075,-0.00369930,0.00117434,-0.00246915,0.00028199,0.000
 47370,-0.00550174,-0.01223009,0.00078220,0.01160980,-0.00041612,0.0002
 9644,0.00106532,0.02673663,-0.00376626,-0.00577571,0.00140434,-0.00027
 249,0.00013362,0.00071327,-0.00062288,0.00012349,0.00059604,0.00027876
 ,0.00022468,0.12343043,-0.01326331,-0.12958528,-0.00073344,-0.00036853
 ,0.00092104,-0.13609106,0.01534918,0.12917813\\-0.00392557,-0.00831385
 ,0.00000219,0.00390319,0.00563603,-0.00001075,0.00000140,0.00267630,-0
 .00000342,-0.00000104,-0.00000493,0.00000068,0.00000804,-0.00000426,-0
 .00000155,-0.00003275,-0.00002065,0.00003014,0.00000007,0.00000311,0.0
 0000015,0.00002997,0.00000677,-0.00001297,0.00002003,0.00000451,-0.000
 00623,-0.00000359,0.00001945,0.00000339,-0.00000219,-0.00000874,0.0000
 0085,-0.00000924,0.00000415,-0.00000151,0.00000033,0.00000153,-0.00000
 466,0.00000090,0.00000699,-0.00000199,-0.00000143,0.00000611,-0.000001
 72,0.00000659,-0.00000011,0.00000607,0.00000369,0.00000331,-0.00000126
 ,0.00000103,-0.00001781,-0.00000639,-0.00000162,0.00000628,0.00000398,
 0.00000219,-0.00000419,0.00000501\\\@


 LOGIC IS A SYSTEMATIC METHOD OF COMING TO THE
 WRONG CONCLUSION WITH CONFIDENCE.
 Job cpu time:       0 days  3 hours 34 minutes 24.8 seconds.
 Elapsed time:       0 days  0 hours 17 minutes 52.8 seconds.
 File lengths (MBytes):  RWF=    289 Int=      0 D2E=      0 Chk=     32 Scr=      1
 Normal termination of Gaussian 16 at Sun Jun 12 05:16:22 2022.
