 Entering Gaussian System, Link 0=g16
 Input=ts_zmat_field_N50.gjf
 Output=ts_zmat_field_N50.out
 Initial command:
 /software/gaussian/g16-a03/l1.exe "/local_scratch/11177295/Gau-23473.inp" -scrdir="/local_scratch/11177295/"
 Entering Link 1 = /software/gaussian/g16-a03/l1.exe PID=     23474.
  
 Copyright (c) 1988,1990,1992,1993,1995,1998,2003,2009,2016,
            Gaussian, Inc.  All Rights Reserved.
  
 This is part of the Gaussian(R) 16 program.  It is based on
 the Gaussian(R) 09 system (copyright 2009, Gaussian, Inc.),
 the Gaussian(R) 03 system (copyright 2003, Gaussian, Inc.),
 the Gaussian(R) 98 system (copyright 1998, Gaussian, Inc.),
 the Gaussian(R) 94 system (copyright 1995, Gaussian, Inc.),
 the Gaussian 92(TM) system (copyright 1992, Gaussian, Inc.),
 the Gaussian 90(TM) system (copyright 1990, Gaussian, Inc.),
 the Gaussian 88(TM) system (copyright 1988, Gaussian, Inc.),
 the Gaussian 86(TM) system (copyright 1986, Carnegie Mellon
 University), and the Gaussian 82(TM) system (copyright 1983,
 Carnegie Mellon University). Gaussian is a federally registered
 trademark of Gaussian, Inc.
  
 This software contains proprietary and confidential information,
 including trade secrets, belonging to Gaussian, Inc.
  
 This software is provided under written license and may be
 used, copied, transmitted, or stored only in accord with that
 written license.
  
 The following legend is applicable only to US Government
 contracts under FAR:
  
                    RESTRICTED RIGHTS LEGEND
  
 Use, reproduction and disclosure by the US Government is
 subject to restrictions as set forth in subparagraphs (a)
 and (c) of the Commercial Computer Software - Restricted
 Rights clause in FAR 52.227-19.
  
 Gaussian, Inc.
 340 Quinnipiac St., Bldg. 40, Wallingford CT 06492
  
  
 ---------------------------------------------------------------
 Warning -- This program may not be used in any manner that
 competes with the business of Gaussian, Inc. or will provide
 assistance to any competitor of Gaussian, Inc.  The licensee
 of this program is prohibited from giving any competitor of
 Gaussian, Inc. access to this program.  By using this program,
 the user acknowledges that Gaussian, Inc. is engaged in the
 business of creating and licensing software in the field of
 computational chemistry and represents and warrants to the
 licensee that it is not a competitor of Gaussian, Inc. and that
 it will not use this program in any manner prohibited above.
 ---------------------------------------------------------------
  

 Cite this work as:
 Gaussian 16, Revision A.03,
 M. J. Frisch, G. W. Trucks, H. B. Schlegel, G. E. Scuseria, 
 M. A. Robb, J. R. Cheeseman, G. Scalmani, V. Barone, 
 G. A. Petersson, H. Nakatsuji, X. Li, M. Caricato, A. V. Marenich, 
 J. Bloino, B. G. Janesko, R. Gomperts, B. Mennucci, H. P. Hratchian, 
 J. V. Ortiz, A. F. Izmaylov, J. L. Sonnenberg, D. Williams-Young, 
 F. Ding, F. Lipparini, F. Egidi, J. Goings, B. Peng, A. Petrone, 
 T. Henderson, D. Ranasinghe, V. G. Zakrzewski, J. Gao, N. Rega, 
 G. Zheng, W. Liang, M. Hada, M. Ehara, K. Toyota, R. Fukuda, 
 J. Hasegawa, M. Ishida, T. Nakajima, Y. Honda, O. Kitao, H. Nakai, 
 T. Vreven, K. Throssell, J. A. Montgomery, Jr., J. E. Peralta, 
 F. Ogliaro, M. J. Bearpark, J. J. Heyd, E. N. Brothers, K. N. Kudin, 
 V. N. Staroverov, T. A. Keith, R. Kobayashi, J. Normand, 
 K. Raghavachari, A. P. Rendell, J. C. Burant, S. S. Iyengar, 
 J. Tomasi, M. Cossi, J. M. Millam, M. Klene, C. Adamo, R. Cammi, 
 J. W. Ochterski, R. L. Martin, K. Morokuma, O. Farkas, 
 J. B. Foresman, and D. J. Fox, Gaussian, Inc., Wallingford CT, 2016.
 
 ******************************************
 Gaussian 16:  ES64L-G16RevA.03 25-Dec-2016
                12-Jun-2022 
 ******************************************
 %nprocshared=12
 Will use up to   12 processors via shared memory.
 %chk=checkpoint.chk
 %mem=12GB
 ----------------------------------------------------------------------
 # Opt=(TS, CalcFC, noeigentest, Z-matrix, MaxStep=10) geom=allcheckpoi
 nt guess=read Field=read NoSymm B3LYP/Def2TZVP freq=noraman pop=none
 ----------------------------------------------------------------------
 1/5=1,8=10,10=4,11=1,18=40,26=3,29=7,38=1/1,3;
 2/12=2,15=1,29=3,40=1/2;
 3/5=44,7=101,11=2,14=-6,25=1,30=1,71=2,74=-5,116=-2,140=1/1,2,3;
 4/5=1/1;
 5/5=2,38=6/2;
 8/6=4,10=90,11=11/1;
 11/6=1,8=1,9=11,15=111,16=1,31=1/1,2,10;
 10/6=1,13=1,31=1/2;
 7/10=1,18=20,25=1,30=1/1,2,3,16;
 1/5=1,8=10,10=4,11=1,18=40,26=3/3(2);
 2/15=1,29=3/2;
 99//99;
 2/15=1,29=3/2;
 3/5=44,7=101,11=2,14=-2,25=1,30=1,71=1,74=-5/1,2,3;
 4/5=5,16=3,69=1/1;
 5/5=2,38=5/2;
 7/30=1/1,2,3,16;
 1/5=1,8=10,11=1,18=40,26=3/3(-5);
 2/15=1,29=3/2;
 99/9=1/99;
 Structure from the checkpoint file:  "checkpoint.chk"
 -----------------
 ts_zmat_initalOpt
 -----------------
 Charge =  0 Multiplicity = 1
 Z-Matrix found in chk file.
 C
 H,1,R2
 H,1,R3,2,A3
 C,1,R4,2,A4,3,D4,0
 C,1,R4,2,A4,3,-D4,0
 C,5,R6,1,A6,2,D6,0
 C,4,R6,1,A6,2,-D6,0
 H,5,R8,1,A8,6,D8,0
 H,4,R8,1,A8,7,-D8,0
 H,6,R10,5,A10,1,D10,0
 H,7,R10,4,A10,1,-D10,0
 C,1,R12,2,A12,3,D12,0
 C,12,R13,1,A13,2,D13,0
 C,12,R14,1,A14,13,D14,0
 H,12,R15,1,A15,13,D15,0
 O,13,R16,12,A16,1,D16,0
 O,13,R17,12,A17,16,D17,0
 C,14,R13,12,A18,1,D18,0
 H,14,R15,12,A19,18,D19,0
 O,18,R17,14,A17,12,D20,0
      Variables:
 R2=1.08708784
 R3=1.09815499
 R4=1.50662726
 R6=1.40254328
 R8=1.08059521
 R10=1.08016163
 R12=2.6361085
 R13=1.47405299
 R14=1.40066948
 R15=1.0780796
 R16=1.40100505
 R17=1.19402518
 A3=108.11458082
 A4=115.96378107
 A6=106.6578735
 A8=123.62201779
 A10=125.1440157
 A12=78.07746725
 A13=132.00156948
 A14=73.99333474
 A15=92.34421548
 A16=107.57816178
 A17=131.04781185
 A18=107.52216249
 A19=126.15245991
 D4=121.83483203
 D6=-153.66149688
 D8=-153.99689272
 D10=-168.00426203
 D12=164.42509027
 D13=-175.70551399
 D14=-98.94740082
 D15=133.82231521
 D16=-78.45436072
 D17=180.27438595
 D18=130.18108228
 D19=149.70154859
 D20=174.05636966
 Recover connectivity data from disk.

 GradGradGradGradGradGradGradGradGradGradGradGradGradGradGradGradGradGrad
 Berny optimization.
 Initialization pass.
                       ----------------------------
                       !    Initial Parameters    !
                       ! (Angstroms and Degrees)  !
 ----------------------                            ----------------------
 !      Name          Value   Derivative information (Atomic Units)     !
 ------------------------------------------------------------------------
 !       R2          1.0871   calculate D2E/DX2 analytically            !
 !       R3          1.0982   calculate D2E/DX2 analytically            !
 !       R4          1.5066   calculate D2E/DX2 analytically            !
 !       R6          1.4025   calculate D2E/DX2 analytically            !
 !       R8          1.0806   calculate D2E/DX2 analytically            !
 !       R10         1.0802   calculate D2E/DX2 analytically            !
 !       R12         2.6361   calculate D2E/DX2 analytically            !
 !       R13         1.4741   calculate D2E/DX2 analytically            !
 !       R14         1.4007   calculate D2E/DX2 analytically            !
 !       R15         1.0781   calculate D2E/DX2 analytically            !
 !       R16         1.401    calculate D2E/DX2 analytically            !
 !       R17         1.194    calculate D2E/DX2 analytically            !
 !       A3        108.1146   calculate D2E/DX2 analytically            !
 !       A4        115.9638   calculate D2E/DX2 analytically            !
 !       A6        106.6579   calculate D2E/DX2 analytically            !
 !       A8        123.622    calculate D2E/DX2 analytically            !
 !       A10       125.144    calculate D2E/DX2 analytically            !
 !       A12        78.0775   calculate D2E/DX2 analytically            !
 !       A13       132.0016   calculate D2E/DX2 analytically            !
 !       A14        73.9933   calculate D2E/DX2 analytically            !
 !       A15        92.3442   calculate D2E/DX2 analytically            !
 !       A16       107.5782   calculate D2E/DX2 analytically            !
 !       A17       131.0478   calculate D2E/DX2 analytically            !
 !       A18       107.5222   calculate D2E/DX2 analytically            !
 !       A19       126.1525   calculate D2E/DX2 analytically            !
 !       D4        121.8348   calculate D2E/DX2 analytically            !
 !       D6       -153.6615   calculate D2E/DX2 analytically            !
 !       D8       -153.9969   calculate D2E/DX2 analytically            !
 !       D10      -168.0043   calculate D2E/DX2 analytically            !
 !       D12       164.4251   calculate D2E/DX2 analytically            !
 !       D13      -175.7055   calculate D2E/DX2 analytically            !
 !       D14       -98.9474   calculate D2E/DX2 analytically            !
 !       D15       133.8223   calculate D2E/DX2 analytically            !
 !       D16       -78.4544   calculate D2E/DX2 analytically            !
 !       D17       180.2744   calculate D2E/DX2 analytically            !
 !       D18       130.1811   calculate D2E/DX2 analytically            !
 !       D19       149.7015   calculate D2E/DX2 analytically            !
 !       D20       174.0564   calculate D2E/DX2 analytically            !
 ------------------------------------------------------------------------
 Trust Radius=1.00D-01 FncErr=1.00D-07 GrdErr=1.00D-06 EigMax=2.50D+02 EigMin=1.00D-04
 Number of steps in this run=     48 maximum allowed number of steps=    100.
 Search for a saddle point of order  1.
 GradGradGradGradGradGradGradGradGradGradGradGradGradGradGradGradGradGrad

 ---------------------------------------------------------------------------------------------------
                            Z-MATRIX (ANGSTROMS AND DEGREES)
   CD    Cent   Atom    N1       Length/X        N2       Alpha/Y        N3        Beta/Z          J
 ---------------------------------------------------------------------------------------------------
      1      1  C 
      2      2  H        1   1.087088(     1)
      3      3  H        1   1.098155(     2)      2  108.115(    20)
      4      4  C        1   1.506627(     3)      2  115.964(    21)      3  121.835(    38)      0
      5      5  C        1   1.506627(     4)      2  115.964(    22)      3 -121.835(    39)      0
      6      6  C        5   1.402543(     5)      1  106.658(    23)      2 -153.661(    40)      0
      7      7  C        4   1.402543(     6)      1  106.658(    24)      2  153.661(    41)      0
      8      8  H        5   1.080595(     7)      1  123.622(    25)      6 -153.997(    42)      0
      9      9  H        4   1.080595(     8)      1  123.622(    26)      7  153.997(    43)      0
     10     10  H        6   1.080162(     9)      5  125.144(    27)      1 -168.004(    44)      0
     11     11  H        7   1.080162(    10)      4  125.144(    28)      1  168.004(    45)      0
     12     12  C        1   2.636108(    11)      2   78.077(    29)      3  164.425(    46)      0
     13     13  C       12   1.474053(    12)      1  132.002(    30)      2 -175.706(    47)      0
     14     14  C       12   1.400669(    13)      1   73.993(    31)     13  -98.947(    48)      0
     15     15  H       12   1.078080(    14)      1   92.344(    32)     13  133.822(    49)      0
     16     16  O       13   1.401005(    15)     12  107.578(    33)      1  -78.454(    50)      0
     17     17  O       13   1.194025(    16)     12  131.048(    34)     16  180.274(    51)      0
     18     18  C       14   1.474053(    17)     12  107.522(    35)      1  130.181(    52)      0
     19     19  H       14   1.078080(    18)     12  126.152(    36)     18  149.702(    53)      0
     20     20  O       18   1.194025(    19)     14  131.048(    37)     12  174.056(    54)      0
 ---------------------------------------------------------------------------------------------------
                         Z-Matrix orientation:                         
 ---------------------------------------------------------------------
 Center     Atomic      Atomic             Coordinates (Angstroms)
 Number     Number       Type             X           Y           Z
 ---------------------------------------------------------------------
      1          6           0        0.000000    0.000000    0.000000
      2          1           0        0.000000    0.000000    1.087088
      3          1           0        1.043727    0.000000   -0.341436
      4          6           0       -0.714496   -1.150801   -0.659606
      5          6           0       -0.714496    1.150801   -0.659606
      6          6           0       -1.133556    0.695545   -1.918279
      7          6           0       -1.133556   -0.695545   -1.918279
      8          1           0       -0.520001    2.188052   -0.427298
      9          1           0       -0.520001   -2.188052   -0.427298
     10          1           0       -1.511189    1.322945   -2.712327
     11          1           0       -1.511189   -1.322945   -2.712327
     12          6           0       -2.484533   -0.692521    0.544591
     13          6           0       -3.609534   -1.091250   -0.320405
     14          6           0       -2.459078    0.707655    0.571660
     15          1           0       -2.173413   -1.352354    1.338367
     16          8           0       -4.146988    0.075225   -0.880132
     17          8           0       -4.066021   -2.166613   -0.567207
     18          6           0       -3.571954    1.188059   -0.267120
     19          1           0       -2.113030    1.321817    1.387326
     20          8           0       -3.989612    2.289925   -0.459861
 ---------------------------------------------------------------------
                    Distance matrix (angstroms):
                    1          2          3          4          5
     1  C    0.000000
     2  H    1.087088   0.000000
     3  H    1.098155   1.769194   0.000000
     4  C    1.506627   2.210381   2.125305   0.000000
     5  C    1.506627   2.210381   2.125305   2.301601   0.000000
     6  C    2.334208   3.286482   2.776828   2.273513   1.402543
     7  C    2.334208   3.286482   2.776828   1.402543   2.273513
     8  H    2.289226   2.711335   2.690760   3.352571   1.080595
     9  H    2.289226   2.711335   2.690760   1.080595   3.352571
    10  H    3.374995   4.297607   3.728122   3.311767   2.208623
    11  H    3.374995   4.297607   3.728122   2.208623   3.311767
    12  C    2.636108   2.635677   3.703140   2.189324   2.825059
    13  C    3.784472   4.024997   4.779551   2.915451   3.677377
    14  C    2.621953   2.610270   3.688382   2.830802   2.180817
    15  H    2.888565   2.572105   3.873059   2.482128   3.519392
    16  O    4.240024   4.590547   5.219135   3.651544   3.603818
    17  O    4.642032   4.895246   5.554701   3.503303   4.716619
    18  C    3.773817   4.000527   4.766709   3.713405   2.884528
    19  H    2.852502   2.510426   3.834179   3.501381   2.484970
    20  O    4.623011   4.853227   5.531029   4.754459   3.473311
                    6          7          8          9         10
     6  C    0.000000
     7  C    1.391090   0.000000
     8  H    2.197056   3.303726   0.000000
     9  H    3.303726   2.197056   4.376104   0.000000
    10  H    1.080162   2.201686   2.636706   4.304754   0.000000
    11  H    2.201686   1.080162   4.304754   2.636706   2.645890
    12  C    3.133304   2.809070   3.619621   2.653406   3.951837
    13  C    3.446202   2.973256   4.506714   3.280186   3.994081
    14  C    2.820807   3.150520   2.636193   3.625336   3.472988
    15  H    3.985089   3.481156   4.287869   2.559245   4.899376
    16  O    3.247048   3.279117   4.221864   4.299130   3.444007
    17  O    4.314707   3.548068   5.617557   3.548844   4.827600
    18  C    2.985746   3.495722   3.215597   4.553921   3.200622
    19  H    3.504085   3.994514   2.565339   4.260256   4.143593
    20  O    3.581353   4.381446   3.471259   5.664940   3.485862
                   11         12         13         14         15
    11  H    0.000000
    12  C    3.457216   0.000000
    13  C    3.190302   1.474053   0.000000
    14  C    3.975726   1.400669   2.314172   0.000000
    15  H    4.104574   1.078080   2.209558   2.216548   0.000000
    16  O    3.501322   2.320135   1.401005   2.314456   3.294650
    17  O    3.441000   2.431079   1.194025   3.484351   2.806456
    18  C    4.065824   2.319039   2.280242   1.474053   3.314695
    19  H    4.915702   2.214899   3.313422   1.078080   2.675301
    20  O    4.926359   3.488434   3.405327   2.431079   4.449539
                   16         17         18         19         20
    16  O    0.000000
    17  O    2.265020   0.000000
    18  C    1.394578   3.404112   0.000000
    19  H    3.291253   4.450115   2.209874   0.000000
    20  O    2.259710   4.458486   1.194025   2.805511   0.000000
 Symmetry turned off by external request.
 Stoichiometry    C9H8O3
 Framework group  C1[X(C9H8O3)]
 Deg. of freedom    54
 Full point group                 C1      NOp   1
 Rotational constants (GHZ):           1.4035331           1.0717453           0.7950463
 Standard basis: def2TZVP (5D, 7F)
 The following finite field(s) will be applied:
 An electric field of             -0.0037  0.0033  0.0007
   420 basis functions,   676 primitive gaussians,   480 cartesian basis functions
    43 alpha electrons       43 beta electrons
       nuclear repulsion energy       708.0048062345 Hartrees.
 NAtoms=   20 NActive=   20 NUniq=   20 SFac= 1.00D+00 NAtFMM=   60 NAOKFM=F Big=F
 Integral buffers will be    131072 words long.
 Raffenetti 2 integral format.
 Two-electron integral symmetry is turned off.
 One-electron integrals computed using PRISM.
   1 Symmetry operations used in ECPInt.
 ECPInt:  NShTT=   13530 NPrTT=   41904 LenC2=   13161 LenP2D=   31862.
 LDataN:  DoStor=T MaxTD1= 6 Len=  172
 NBasis=   420 RedAO= T EigKep=  2.10D-05  NBF=   420
 NBsUse=   420 1.00D-06 EigRej= -1.00D+00 NBFU=   420
 The nuclear repulsion energy is now       709.3552241577 hartrees.
 Initial guess from the checkpoint file:  "checkpoint.chk"
 B after Tr=     0.000000   -0.000000    0.000000
         Rot=    1.000000    0.000000    0.000000    0.000000 Ang=   0.00 deg.
 Requested convergence on RMS density matrix=1.00D-08 within 128 cycles.
 Requested convergence on MAX density matrix=1.00D-06.
 Requested convergence on             energy=1.00D-06.
 No special actions if energy rises.
 SCF Done:  E(RB3LYP) =  -573.610389385     A.U. after   11 cycles
            NFock= 11  Conv=0.54D-08     -V/T= 2.0048
 DoSCS=F DFT=T ScalE2(SS,OS)=  1.000000  1.000000
 Range of M.O.s used for correlation:     1   420
 NBasis=   420 NAE=    43 NBE=    43 NFC=     0 NFV=     0
 NROrb=    420 NOA=    43 NOB=    43 NVA=   377 NVB=   377

 **** Warning!!: The largest alpha MO coefficient is  0.36606334D+02

   1 Symmetry operations used in ECPInt.
 ECPInt:  NShTT=   13530 NPrTT=   41904 LenC2=   13161 LenP2D=   31862.
 LDataN:  DoStor=T MaxTD1= 7 Len=  274
 Symmetrizing basis deriv contribution to polar:
 IMax=3 JMax=2 DiffMx= 0.00D+00
 G2DrvN: will do    21 centers at a time, making    1 passes.
 Calling FoFCou, ICntrl=  3107 FMM=F I1Cent=   0 AccDes= 0.00D+00.
 End of G2Drv F.D. properties file   721 does not exist.
 End of G2Drv F.D. properties file   722 does not exist.
 End of G2Drv F.D. properties file   788 does not exist.
          IDoAtm=11111111111111111111
          Differentiating once with respect to nuclear coordinates.
 CalDSu exits because no D1Ps are significant.
          There are    63 degrees of freedom in the 1st order CPHF.  IDoFFX=6 NUNeed=     0.
     57 vectors produced by pass  0 Test12= 2.57D-14 1.59D-09 XBig12= 2.29D-01 1.03D-01.
 AX will form    57 AO Fock derivatives at one time.
     57 vectors produced by pass  1 Test12= 2.57D-14 1.59D-09 XBig12= 4.53D-02 6.18D-02.
     57 vectors produced by pass  2 Test12= 2.57D-14 1.59D-09 XBig12= 3.12D-04 2.39D-03.
     57 vectors produced by pass  3 Test12= 2.57D-14 1.59D-09 XBig12= 1.51D-06 1.45D-04.
     57 vectors produced by pass  4 Test12= 2.57D-14 1.59D-09 XBig12= 3.70D-09 6.72D-06.
     57 vectors produced by pass  5 Test12= 2.57D-14 1.59D-09 XBig12= 6.26D-12 2.79D-07.
     23 vectors produced by pass  6 Test12= 2.57D-14 1.59D-09 XBig12= 1.02D-14 1.14D-08.
 InvSVY:  IOpt=1 It=  1 EMax= 8.88D-16
 Solved reduced A of dimension   365 with    63 vectors.
 End of Minotr F.D. properties file   721 does not exist.
 End of Minotr F.D. properties file   722 does not exist.
 End of Minotr F.D. properties file   788 does not exist.
   1 Symmetry operations used in ECPInt.
 ECPInt:  NShTT=   13530 NPrTT=   41904 LenC2=   13161 LenP2D=   31862.
 LDataN:  DoStor=T MaxTD1= 8 Len=  415
 Calling FoFJK, ICntrl=    100147 FMM=F ISym2X=0 I1Cent= 0 IOpClX= 0 NMat=1 NMatS=1 NMatT=0.
 -------------------------------------------------------------------
 Center     Atomic                   Forces (Hartrees/Bohr)
 Number     Number              X              Y              Z
 -------------------------------------------------------------------
      1        6          -0.001109235    0.000149902    0.000003096
      2        1           0.001109281   -0.000294453   -0.000053658
      3        1          -0.000081152   -0.000469488    0.000049039
      4        6           0.000433326    0.000063345    0.000238198
      5        6           0.000470842   -0.000090583   -0.000000450
      6        6           0.000251884   -0.000064151    0.000120639
      7        6          -0.001230252    0.000672031   -0.000191317
      8        1           0.000266541    0.000065495   -0.000096309
      9        1          -0.000121958    0.000042755    0.000043188
     10        1           0.000134224   -0.000169091   -0.000213539
     11        1           0.000397735   -0.000242015   -0.000009826
     12        6          -0.000018443   -0.000177660   -0.000231410
     13        6           0.000701928   -0.005199242    0.000614573
     14        6          -0.001538898    0.001380433   -0.000636130
     15        1           0.000114239   -0.000114142   -0.000164550
     16        8          -0.000921538    0.002471960   -0.000556634
     17        8           0.000037840    0.003586551    0.000271217
     18        6           0.003557289   -0.007351090    0.001611777
     19        1           0.000103486   -0.000017595   -0.000031698
     20        8          -0.002557140    0.005757037   -0.000766206
 -------------------------------------------------------------------
 Cartesian Forces:  Max     0.007351090 RMS     0.001674697
 -----------------------------------------------------------------------------------------------
                       Internal Coordinate Forces (Hartree/Bohr or radian)
  Cent   Atom   N1       Length/X         N2         Alpha/Y        N3         Beta/Z          J
 -----------------------------------------------------------------------------------------------
      1  C 
      2  H        1  -0.000054(     1)
      3  H        1  -0.000092(     2)      2  -0.000044(    20)
      4  C        1  -0.000197(     3)      2  -0.000250(    21)      3   0.001061(    38)     0
      5  C        1  -0.000647(     4)      2   0.003146(    22)      3   0.002114(    39)     0
      6  C        5   0.000044(     5)      1  -0.001453(    23)      2  -0.000334(    40)     0
      7  C        4   0.000569(     6)      1   0.000351(    24)      2  -0.001413(    41)     0
      8  H        5   0.000090(     7)      1  -0.000206(    25)      6   0.000438(    42)     0
      9  H        4  -0.000054(     8)      1   0.000088(    26)      7   0.000200(    43)     0
     10  H        6   0.000012(     9)      5   0.000498(    27)      1   0.000301(    44)     0
     11  H        7   0.000009(    10)      4  -0.000483(    28)      1  -0.000669(    45)     0
     12  C        1   0.000426(    11)      2  -0.001708(    29)      3   0.003411(    46)     0
     13  C       12  -0.000287(    12)      1   0.000916(    30)      2  -0.003980(    47)     0
     14  C       12  -0.000236(    13)      1   0.003941(    31)     13   0.001439(    48)     0
     15  H       12  -0.000018(    14)      1  -0.000226(    32)     13  -0.000410(    49)     0
     16  O       13   0.002634(    15)     12  -0.001206(    33)      1  -0.000033(    50)     0
     17  O       13  -0.003301(    16)     12   0.003020(    34)     16   0.000856(    51)     0
     18  C       14  -0.001756(    17)     12  -0.003329(    35)      1   0.000736(    52)     0
     19  H       14  -0.000001(    18)     12  -0.000040(    36)     18   0.000177(    53)     0
     20  O       18   0.006331(    19)     14   0.000256(    37)     12  -0.000716(    54)     0
 -----------------------------------------------------------------------------------------------
 Internal  Forces:  Max     0.006330832 RMS     0.001699218

 GradGradGradGradGradGradGradGradGradGradGradGradGradGradGradGradGradGrad
 Berny optimization.
 Search for a saddle point.
 Step number   1 out of a maximum of   48
 All quantities printed in internal units (Hartrees-Bohrs-Radians)
 Swapping is turned off.
 Second derivative matrix not updated -- analytic derivatives used.
 ITU=  0
     Eigenvalues ---   -0.17341   0.03111   0.03176   0.05179   0.06911
     Eigenvalues ---    0.07682   0.08424   0.10730   0.11265   0.14594
     Eigenvalues ---    0.16471   0.19089   0.21417   0.23377   0.26899
     Eigenvalues ---    0.31700   0.33333   0.34134   0.34695   0.37316
     Eigenvalues ---    0.41405   0.47504   0.55006   0.59672   0.64822
     Eigenvalues ---    0.71999   0.73105   0.73250   0.74581   0.79983
     Eigenvalues ---    0.91221   1.23304   1.39280   1.72092   1.76188
     Eigenvalues ---    2.27163   9.47638  38.24636
 Eigenvectors required to have negative eigenvalues:
                          R12       D8        D4        D19       R14
   1                    0.49594  -0.37869  -0.29181   0.28681  -0.24957
                          R6        A12       D6        D15       A15
   1                   -0.24550  -0.22009   0.21413  -0.20251  -0.20185
 RFO step:  Lambda0=1.218720037D-05 Lambda=-2.24828691D-04.
 Linear search not attempted -- option 19 set.
 Variable       Old X    -DE/DX   Delta X   Delta X   Delta X     New X
                                 (Linear)    (Quad)   (Total)
    R2        2.05430  -0.00005   0.00000  -0.00029  -0.00029   2.05400
    R3        2.07521  -0.00009   0.00000  -0.00067  -0.00067   2.07454
    R4        2.84711  -0.00084   0.00000  -0.00001  -0.00001   2.84710
    R6        2.65042   0.00061   0.00000   0.00114   0.00114   2.65156
    R8        2.04203   0.00004   0.00000   0.00010   0.00010   2.04213
   R10        2.04121   0.00002   0.00000   0.00001   0.00001   2.04122
   R12        4.98152   0.00043   0.00000   0.00531   0.00531   4.98683
   R13        2.78556  -0.00204   0.00000  -0.00331  -0.00331   2.78224
   R14        2.64688  -0.00024   0.00000   0.00367   0.00367   2.65055
   R15        2.03728  -0.00002   0.00000   0.00000   0.00000   2.03728
   R16        2.64752   0.00263   0.00000   0.00775   0.00775   2.65527
   R17        2.25638   0.00303   0.00000   0.00194   0.00194   2.25832
    A3        1.88696  -0.00004   0.00000   0.00373   0.00373   1.89069
    A4        2.02395   0.00290   0.00000  -0.00420  -0.00420   2.01975
    A6        1.86153  -0.00110   0.00000   0.00091   0.00091   1.86245
    A8        2.15761  -0.00012   0.00000  -0.00099  -0.00099   2.15662
   A10        2.18418   0.00001   0.00000  -0.00004  -0.00004   2.18413
   A12        1.36271  -0.00171   0.00000  -0.00426  -0.00426   1.35845
   A13        2.30386   0.00092   0.00000   0.00920   0.00920   2.31307
   A14        1.29143   0.00394   0.00000  -0.00953  -0.00953   1.28190
   A15        1.61171  -0.00023   0.00000   0.00648   0.00648   1.61819
   A16        1.87759  -0.00121   0.00000   0.00105   0.00105   1.87864
   A17        2.28722   0.00328   0.00000   0.00327   0.00327   2.29049
   A18        1.87662  -0.00333   0.00000   0.00239   0.00239   1.87901
   A19        2.20178  -0.00004   0.00000  -0.00278  -0.00278   2.19900
    D4        2.12642  -0.00105   0.00000   0.00365   0.00365   2.13007
    D6       -2.68190   0.00108   0.00000   0.00974   0.00974  -2.67216
    D8       -2.68775   0.00024   0.00000   0.00176   0.00176  -2.68599
   D10       -2.93223   0.00097   0.00000   0.00733   0.00733  -2.92489
   D12        2.86976   0.00341   0.00000   0.00281   0.00281   2.87256
   D13       -3.06664  -0.00398   0.00000  -0.03661  -0.03661  -3.10325
   D14       -1.72696   0.00144   0.00000   0.01382   0.01382  -1.71314
   D15        2.33564  -0.00041   0.00000   0.01431   0.01431   2.34995
   D16       -1.36929  -0.00003   0.00000   0.01201   0.01201  -1.35728
   D17        3.14638   0.00086   0.00000   0.00949   0.00949   3.15588
   D18        2.27209   0.00074   0.00000   0.01507   0.01507   2.28716
   D19        2.61278   0.00018   0.00000  -0.00270  -0.00270   2.61009
   D20        3.03786  -0.00072   0.00000  -0.01465  -0.01465   3.02321
         Item               Value     Threshold  Converged?
 Maximum Force            0.003980     0.000450     NO 
 RMS     Force            0.001691     0.000300     NO 
 Maximum Displacement     0.036610     0.001800     NO 
 RMS     Displacement     0.008893     0.001200     NO 
 Predicted change in Energy=-1.066512D-04
 GradGradGradGradGradGradGradGradGradGradGradGradGradGradGradGradGradGrad

 ---------------------------------------------------------------------------------------------------
                            Z-MATRIX (ANGSTROMS AND DEGREES)
   CD    Cent   Atom    N1       Length/X        N2       Alpha/Y        N3        Beta/Z          J
 ---------------------------------------------------------------------------------------------------
      1      1  C 
      2      2  H        1   1.086932(     1)
      3      3  H        1   1.097800(     2)      2  108.328(    20)
      4      4  C        1   1.506622(     3)      2  115.723(    21)      3  122.044(    38)      0
      5      5  C        1   1.506622(     4)      2  115.723(    22)      3 -122.044(    39)      0
      6      6  C        5   1.403148(     5)      1  106.710(    23)      2 -153.103(    40)      0
      7      7  C        4   1.403148(     6)      1  106.710(    24)      2  153.103(    41)      0
      8      8  H        5   1.080646(     7)      1  123.565(    25)      6 -153.896(    42)      0
      9      9  H        4   1.080646(     8)      1  123.565(    26)      7  153.896(    43)      0
     10     10  H        6   1.080168(     9)      5  125.141(    27)      1 -167.584(    44)      0
     11     11  H        7   1.080168(    10)      4  125.141(    28)      1  167.584(    45)      0
     12     12  C        1   2.638918(    11)      2   77.833(    29)      3  164.586(    46)      0
     13     13  C       12   1.472300(    12)      1  132.529(    30)      2 -177.803(    47)      0
     14     14  C       12   1.402613(    13)      1   73.447(    31)     13  -98.156(    48)      0
     15     15  H       12   1.078082(    14)      1   92.716(    32)     13  134.642(    49)      0
     16     16  O       13   1.405108(    15)     12  107.638(    33)      1  -77.766(    50)      0
     17     17  O       13   1.195052(    16)     12  131.235(    34)     16  180.818(    51)      0
     18     18  C       14   1.472300(    17)     12  107.659(    35)      1  131.044(    52)      0
     19     19  H       14   1.078082(    18)     12  125.993(    36)     18  149.547(    53)      0
     20     20  O       18   1.195052(    19)     14  131.235(    37)     12  173.217(    54)      0
 ---------------------------------------------------------------------------------------------------
                         Z-Matrix orientation:                         
 ---------------------------------------------------------------------
 Center     Atomic      Atomic             Coordinates (Angstroms)
 Number     Number       Type             X           Y           Z
 ---------------------------------------------------------------------
      1          6           0        0.000000    0.000000    0.000000
      2          1           0        0.000000    0.000000    1.086932
      3          1           0        1.042109    0.000000   -0.345217
      4          6           0       -0.720155   -1.150518   -0.653907
      5          6           0       -0.720155    1.150518   -0.653907
      6          6           0       -1.152336    0.695118   -1.908759
      7          6           0       -1.152336   -0.695118   -1.908759
      8          1           0       -0.520960    2.187694   -0.425030
      9          1           0       -0.520960   -2.187694   -0.425030
     10          1           0       -1.531236    1.323420   -2.701498
     11          1           0       -1.531236   -1.323420   -2.701498
     12          6           0       -2.486854   -0.685655    0.556168
     13          6           0       -3.633951   -1.045067   -0.293927
     14          6           0       -2.437346    0.715110    0.608390
     15          1           0       -2.179601   -1.365059    1.334798
     16          8           0       -4.163369    0.145340   -0.820213
     17          8           0       -4.122828   -2.104955   -0.550415
     18          6           0       -3.560597    1.231833   -0.190968
     19          1           0       -2.062125    1.305684    1.428568
     20          8           0       -3.973618    2.342853   -0.343276
 ---------------------------------------------------------------------
                    Distance matrix (angstroms):
                    1          2          3          4          5
     1  C    0.000000
     2  H    1.086932   0.000000
     3  H    1.097800   1.771170   0.000000
     4  C    1.506622   2.207450   2.127101   0.000000
     5  C    1.506622   2.207450   2.127101   2.301037   0.000000
     6  C    2.335472   3.284088   2.782704   2.273282   1.403148
     7  C    2.335472   3.284088   2.782704   1.403148   2.273282
     8  H    2.288680   2.709877   2.689899   3.351973   1.080646
     9  H    2.288680   2.709877   2.689899   1.080646   3.351973
    10  H    3.375532   4.295151   3.731703   3.312228   2.209157
    11  H    3.375532   4.295151   3.731703   2.209157   3.312228
    12  C    2.638918   2.633681   3.706237   2.191255   2.820822
    13  C    3.792645   4.025485   4.791694   2.937841   3.666113
    14  C    2.611930   2.584771   3.677955   2.832439   2.175251
    15  H    2.897539   2.583696   3.881398   2.476077   3.523217
    16  O    4.245882   4.581699   5.229124   3.682747   3.590788
    17  O    4.661706   4.910137   5.581175   3.535511   4.710307
    18  C    3.772497   3.978478   4.767191   3.736043   2.879068
    19  H    2.828069   2.464525   3.806231   3.488626   2.482269
    20  O    4.625628   4.829502   5.535926   4.783843   3.478961
                    6          7          8          9         10
     6  C    0.000000
     7  C    1.390237   0.000000
     8  H    2.197241   3.303134   0.000000
     9  H    3.303134   2.197241   4.375388   0.000000
    10  H    1.080168   2.201476   2.636273   4.304752   0.000000
    11  H    2.201476   1.080168   4.304752   2.636273   2.646840
    12  C    3.124634   2.803015   3.617129   2.661505   3.944867
    13  C    3.434289   2.981369   4.489838   3.318659   3.978384
    14  C    2.826250   3.158487   2.628497   3.628604   3.485174
    15  H    3.977470   3.467673   4.297690   2.554371   4.892850
    16  O    3.248616   3.310230   4.194582   4.343542   3.443142
    17  O    4.302247   3.557606   5.604998   3.604999   4.805961
    18  C    3.006425   3.530392   3.194973   4.581195   3.229467
    19  H    3.512586   3.996083   2.566897   4.244373   4.164085
    20  O    3.622899   4.431663   3.457109   5.696787   3.544810
                   11         12         13         14         15
    11  H    0.000000
    12  C    3.454321   0.000000
    13  C    3.208627   1.472300   0.000000
    14  C    3.991491   1.402613   2.311766   0.000000
    15  H    4.088251   1.078082   2.206870   2.218379   0.000000
    16  O    3.553113   2.322860   1.405108   2.311860   3.295560
    17  O    3.457499   2.432149   1.195052   3.483740   2.806707
    18  C    4.117084   2.321184   2.280406   1.472300   3.313451
    19  H    4.924579   2.215154   3.311141   1.078082   2.674970
    20  O    4.996798   3.491608   3.405262   2.432149   4.447813
                   16         17         18         19         20
    16  O    0.000000
    17  O    2.266774   0.000000
    18  C    1.392748   3.402860   0.000000
    19  H    3.289170   4.449194   2.207662   0.000000
    20  O    2.256665   4.455128   1.195052   2.805166   0.000000
 Symmetry turned off by external request.
 Stoichiometry    C9H8O3
 Framework group  C1[X(C9H8O3)]
 Deg. of freedom    54
 Full point group                 C1      NOp   1
 Rotational constants (GHZ):           1.4059322           1.0647769           0.7912104
 Standard basis: def2TZVP (5D, 7F)
 The following finite field(s) will be applied:
 An electric field of             -0.0037  0.0033  0.0007
   420 basis functions,   676 primitive gaussians,   480 cartesian basis functions
    43 alpha electrons       43 beta electrons
       nuclear repulsion energy       707.3696885255 Hartrees.
 NAtoms=   20 NActive=   20 NUniq=   20 SFac= 1.00D+00 NAtFMM=   60 NAOKFM=F Big=F
 Integral buffers will be    131072 words long.
 Raffenetti 2 integral format.
 Two-electron integral symmetry is turned off.
 One-electron integrals computed using PRISM.
   1 Symmetry operations used in ECPInt.
 ECPInt:  NShTT=   13530 NPrTT=   41904 LenC2=   13162 LenP2D=   31843.
 LDataN:  DoStor=T MaxTD1= 6 Len=  172
 NBasis=   420 RedAO= T EigKep=  2.16D-05  NBF=   420
 NBsUse=   420 1.00D-06 EigRej= -1.00D+00 NBFU=   420
 The nuclear repulsion energy is now       708.7414552913 hartrees.
 Initial guess from the checkpoint file:  "checkpoint.chk"
 B after Tr=    -0.002670   -0.033776   -0.006561
         Rot=    0.999924   -0.006391   -0.007348    0.007606 Ang=  -1.42 deg.
 ExpMin= 9.52D-02 ExpMax= 2.70D+04 ExpMxC= 9.22D+02 IAcc=2 IRadAn=         4 AccDes= 0.00D+00
 Harris functional with IExCor=  402 and IRadAn=       4 diagonalized for initial guess.
 HarFok:  IExCor=  402 AccDes= 0.00D+00 IRadAn=         4 IDoV= 1 UseB2=F ITyADJ=14
 ICtDFT=  3500011 ScaDFX=  1.000000  1.000000  1.000000  1.000000
 FoFCou: FMM=F IPFlag=           0 FMFlag=      100000 FMFlg1=           0
         NFxFlg=           0 DoJE=T BraDBF=F KetDBF=T FulRan=T
         wScrn=  0.000000 ICntrl=       500 IOpCl=  0 I1Cent=   200000004 NGrid=           0
         NMat0=    1 NMatS0=      1 NMatT0=    0 NMatD0=    1 NMtDS0=    0 NMtDT0=    0
 Symmetry not used in FoFCou.
 Requested convergence on RMS density matrix=1.00D-08 within 128 cycles.
 Requested convergence on MAX density matrix=1.00D-06.
 Requested convergence on             energy=1.00D-06.
 No special actions if energy rises.
 Integral accuracy reduced to 1.0D-05 until final iterations.
 Initial convergence to 1.0D-05 achieved.  Increase integral accuracy.
 SCF Done:  E(RB3LYP) =  -573.610495982     A.U. after   11 cycles
            NFock= 11  Conv=0.67D-08     -V/T= 2.0048
   1 Symmetry operations used in ECPInt.
 ECPInt:  NShTT=   13530 NPrTT=   41904 LenC2=   13162 LenP2D=   31843.
 LDataN:  DoStor=T MaxTD1= 7 Len=  274
 Calling FoFJK, ICntrl=      2127 FMM=F ISym2X=0 I1Cent= 0 IOpClX= 0 NMat=1 NMatS=1 NMatT=0.
 -------------------------------------------------------------------
 Center     Atomic                   Forces (Hartrees/Bohr)
 Number     Number              X              Y              Z
 -------------------------------------------------------------------
      1        6          -0.001780433   -0.000092722    0.000012014
      2        1           0.001780049   -0.000384219   -0.000008109
      3        1           0.000000004   -0.000601322   -0.000002843
      4        6          -0.000113528    0.000232562   -0.000233780
      5        6           0.000169334    0.000268033    0.000229843
      6        6           0.000763915    0.000571335    0.000181572
      7        6          -0.000767489    0.000378875   -0.000181146
      8        1           0.000323669    0.000045710   -0.000149765
      9        1          -0.000325097    0.000043473    0.000153799
     10        1          -0.000124560   -0.000221484   -0.000103956
     11        1           0.000129816   -0.000227628    0.000105627
     12        6           0.000669620    0.000858554    0.000434436
     13        6          -0.002255319   -0.005912158   -0.001037330
     14        6          -0.000622150    0.000958880   -0.000369722
     15        1           0.000006260    0.000012988    0.000005032
     16        8           0.000051213    0.000148246    0.000040441
     17        8           0.001571931    0.005045393    0.000640757
     18        6           0.001737575   -0.006272504    0.000448318
     19        1          -0.000001429    0.000007835   -0.000002020
     20        8          -0.001213382    0.005140152   -0.000163166
 -------------------------------------------------------------------
 Cartesian Forces:  Max     0.006272504 RMS     0.001591843
 -----------------------------------------------------------------------------------------------
                       Internal Coordinate Forces (Hartree/Bohr or radian)
  Cent   Atom   N1       Length/X         N2         Alpha/Y        N3         Beta/Z          J
 -----------------------------------------------------------------------------------------------
      1  C 
      2  H        1  -0.000008(     1)
      3  H        1   0.000001(     2)      2   0.000006(    20)
      4  C        1   0.000256(     3)      2  -0.000878(    21)      3   0.002800(    38)     0
      5  C        1  -0.000103(     4)      2   0.000255(    22)      3   0.003411(    39)     0
      6  C        5  -0.000380(     5)      1  -0.000379(    23)      2  -0.000851(    40)     0
      7  C        4   0.000313(     6)      1   0.000860(    24)      2  -0.000682(    41)     0
      8  H        5   0.000072(     7)      1  -0.000232(    25)      6   0.000568(    42)     0
      9  H        4  -0.000069(     8)      1   0.000229(    26)      7   0.000574(    43)     0
     10  H        6  -0.000009(     9)      5   0.000520(    27)      1  -0.000170(    44)     0
     11  H        7   0.000009(    10)      4  -0.000533(    28)      1  -0.000179(    45)     0
     12  C        1   0.000055(    11)      2  -0.000039(    29)      3  -0.000037(    46)     0
     13  C       12   0.000874(    12)      1  -0.000048(    30)      2   0.000040(    47)     0
     14  C       12  -0.000172(    13)      1   0.000542(    31)     13   0.000628(    48)     0
     15  H       12  -0.000003(    14)      1  -0.000016(    32)     13   0.000026(    49)     0
     16  O       13   0.000091(    15)     12  -0.000354(    33)      1  -0.000022(    50)     0
     17  O       13  -0.005255(    16)     12   0.001915(    34)     16   0.000010(    51)     0
     18  C       14  -0.000952(    17)     12  -0.000519(    35)      1   0.000040(    52)     0
     19  H       14   0.000002(    18)     12   0.000016(    36)     18  -0.000001(    53)     0
     20  O       18   0.005219(    19)     14  -0.001867(    37)     12   0.000006(    54)     0
 -----------------------------------------------------------------------------------------------
 Internal  Forces:  Max     0.005255318 RMS     0.001283074

 GradGradGradGradGradGradGradGradGradGradGradGradGradGradGradGradGradGrad
 Berny optimization.
 Search for a saddle point.
 Step number   2 out of a maximum of   48
 All quantities printed in internal units (Hartrees-Bohrs-Radians)
 Swapping is turned off.
 Update second derivatives using D2CorN and points    1    2
 ITU=  0  0
     Eigenvalues ---   -0.17309   0.03120   0.03165   0.05192   0.06916
     Eigenvalues ---    0.07678   0.08424   0.10711   0.11266   0.14592
     Eigenvalues ---    0.16470   0.19099   0.21418   0.23374   0.26893
     Eigenvalues ---    0.31700   0.33333   0.34134   0.34695   0.37316
     Eigenvalues ---    0.41405   0.47511   0.55002   0.59677   0.64821
     Eigenvalues ---    0.71999   0.73105   0.73250   0.74584   0.79987
     Eigenvalues ---    0.91220   1.23294   1.39277   1.72088   1.76187
     Eigenvalues ---    2.27163   9.47621  38.24638
 Eigenvectors required to have negative eigenvalues:
                          R12       D8        D4        D19       R14
   1                    0.49694  -0.37891  -0.29131   0.28685  -0.24940
                          R6        A12       D6        D15       A15
   1                   -0.24553  -0.22056   0.21524  -0.20134  -0.20119
 RFO step:  Lambda0=7.511355307D-08 Lambda=-3.15484895D-07.
 Linear search not attempted -- option 19 set.
 Variable       Old X    -DE/DX   Delta X   Delta X   Delta X     New X
                                 (Linear)    (Quad)   (Total)
    R2        2.05400  -0.00001   0.00000  -0.00002  -0.00002   2.05399
    R3        2.07454   0.00000   0.00000   0.00001   0.00001   2.07456
    R4        2.84710   0.00015   0.00000   0.00000   0.00000   2.84711
    R6        2.65156  -0.00007   0.00000   0.00006   0.00006   2.65162
    R8        2.04213   0.00000   0.00000   0.00000   0.00000   2.04213
   R10        2.04122   0.00000   0.00000  -0.00000  -0.00000   2.04122
   R12        4.98683   0.00006   0.00000  -0.00002  -0.00002   4.98681
   R13        2.78224  -0.00008   0.00000   0.00005   0.00005   2.78230
   R14        2.65055  -0.00017   0.00000   0.00009   0.00009   2.65065
   R15        2.03728  -0.00000   0.00000   0.00000   0.00000   2.03728
   R16        2.65527   0.00009   0.00000   0.00012   0.00012   2.65539
   R17        2.25832  -0.00004   0.00000   0.00000   0.00000   2.25832
    A3        1.89069   0.00001   0.00000  -0.00011  -0.00011   1.89057
    A4        2.01975  -0.00062   0.00000   0.00014   0.00014   2.01989
    A6        1.86245   0.00048   0.00000  -0.00005  -0.00005   1.86240
    A8        2.15662  -0.00000   0.00000  -0.00002  -0.00002   2.15661
   A10        2.18413  -0.00001   0.00000  -0.00000  -0.00000   2.18413
   A12        1.35845  -0.00004   0.00000   0.00033   0.00033   1.35878
   A13        2.31307  -0.00005   0.00000   0.00046   0.00046   2.31353
   A14        1.28190   0.00054   0.00000  -0.00005  -0.00005   1.28185
   A15        1.61819  -0.00002   0.00000  -0.00015  -0.00015   1.61804
   A16        1.87864  -0.00035   0.00000   0.00003   0.00003   1.87868
   A17        2.29049   0.00005   0.00000  -0.00004  -0.00004   2.29045
   A18        1.87901  -0.00052   0.00000  -0.00001  -0.00001   1.87900
   A19        2.19900   0.00002   0.00000  -0.00010  -0.00010   2.19889
    D4        2.13007  -0.00061   0.00000  -0.00015  -0.00015   2.12993
    D6       -2.67216  -0.00017   0.00000  -0.00045  -0.00045  -2.67260
    D8       -2.68599  -0.00001   0.00000   0.00015   0.00015  -2.68584
   D10       -2.92489   0.00001   0.00000   0.00014   0.00014  -2.92476
   D12        2.87256  -0.00004   0.00000   0.00008   0.00008   2.87264
   D13       -3.10325   0.00004   0.00000   0.00015   0.00015  -3.10310
   D14       -1.71314   0.00063   0.00000   0.00038   0.00038  -1.71276
   D15        2.34995   0.00003   0.00000   0.00043   0.00043   2.35038
   D16       -1.35728  -0.00002   0.00000   0.00028   0.00028  -1.35701
   D17        3.15588   0.00001   0.00000   0.00010   0.00010   3.15597
   D18        2.28716   0.00004   0.00000   0.00055   0.00055   2.28771
   D19        2.61009  -0.00000   0.00000  -0.00074  -0.00074   2.60935
   D20        3.02321   0.00001   0.00000  -0.00014  -0.00014   3.02307
         Item               Value     Threshold  Converged?
 Maximum Force            0.000628     0.000450     NO 
 RMS     Force            0.000240     0.000300     YES
 Maximum Displacement     0.000737     0.001800     YES
 RMS     Displacement     0.000229     0.001200     YES
 Predicted change in Energy=-1.201857D-07
 GradGradGradGradGradGradGradGradGradGradGradGradGradGradGradGradGradGrad

 ---------------------------------------------------------------------------------------------------
                            Z-MATRIX (ANGSTROMS AND DEGREES)
   CD    Cent   Atom    N1       Length/X        N2       Alpha/Y        N3        Beta/Z          J
 ---------------------------------------------------------------------------------------------------
      1      1  C 
      2      2  H        1   1.086924(     1)
      3      3  H        1   1.097808(     2)      2  108.322(    20)
      4      4  C        1   1.506625(     3)      2  115.731(    21)      3  122.036(    38)      0
      5      5  C        1   1.506625(     4)      2  115.731(    22)      3 -122.036(    39)      0
      6      6  C        5   1.403177(     5)      1  106.708(    23)      2 -153.129(    40)      0
      7      7  C        4   1.403177(     6)      1  106.708(    24)      2  153.129(    41)      0
      8      8  H        5   1.080648(     7)      1  123.564(    25)      6 -153.887(    42)      0
      9      9  H        4   1.080648(     8)      1  123.564(    26)      7  153.887(    43)      0
     10     10  H        6   1.080167(     9)      5  125.141(    27)      1 -167.576(    44)      0
     11     11  H        7   1.080167(    10)      4  125.141(    28)      1  167.576(    45)      0
     12     12  C        1   2.638907(    11)      2   77.852(    29)      3  164.590(    46)      0
     13     13  C       12   1.472328(    12)      1  132.555(    30)      2 -177.795(    47)      0
     14     14  C       12   1.402661(    13)      1   73.445(    31)     13  -98.134(    48)      0
     15     15  H       12   1.078084(    14)      1   92.707(    32)     13  134.667(    49)      0
     16     16  O       13   1.405172(    15)     12  107.640(    33)      1  -77.751(    50)      0
     17     17  O       13   1.195053(    16)     12  131.233(    34)     16  180.824(    51)      0
     18     18  C       14   1.472328(    17)     12  107.658(    35)      1  131.076(    52)      0
     19     19  H       14   1.078084(    18)     12  125.987(    36)     18  149.505(    53)      0
     20     20  O       18   1.195053(    19)     14  131.233(    37)     12  173.209(    54)      0
 ---------------------------------------------------------------------------------------------------
                         Z-Matrix orientation:                         
 ---------------------------------------------------------------------
 Center     Atomic      Atomic             Coordinates (Angstroms)
 Number     Number       Type             X           Y           Z
 ---------------------------------------------------------------------
      1          6           0        0.000000    0.000000    0.000000
      2          1           0        0.000000    0.000000    1.086924
      3          1           0        1.042155    0.000000   -0.345102
      4          6           0       -0.719939   -1.150545   -0.654103
      5          6           0       -0.719939    1.150545   -0.654103
      6          6           0       -1.151555    0.695170   -1.909192
      7          6           0       -1.151555   -0.695170   -1.909192
      8          1           0       -0.520785    2.187709   -0.425130
      9          1           0       -0.520785   -2.187709   -0.425130
     10          1           0       -1.530044    1.323500   -2.702104
     11          1           0       -1.530044   -1.323500   -2.702104
     12          6           0       -2.487074   -0.685505    0.555315
     13          6           0       -3.634288   -1.045000   -0.294632
     14          6           0       -2.437569    0.715330    0.606976
     15          1           0       -2.179997   -1.364501    1.334374
     16          8           0       -4.163508    0.145347   -0.821424
     17          8           0       -4.123430   -2.104892   -0.550601
     18          6           0       -3.560928    1.231715   -0.192499
     19          1           0       -2.062837    1.306154    1.427201
     20          8           0       -3.974030    2.342666   -0.345096
 ---------------------------------------------------------------------
                    Distance matrix (angstroms):
                    1          2          3          4          5
     1  C    0.000000
     2  H    1.086924   0.000000
     3  H    1.097808   1.771097   0.000000
     4  C    1.506625   2.207542   2.127019   0.000000
     5  C    1.506625   2.207542   2.127019   2.301090   0.000000
     6  C    2.335456   3.284212   2.782445   2.273369   1.403177
     7  C    2.335456   3.284212   2.782445   1.403177   2.273369
     8  H    2.288673   2.709906   2.689843   3.352019   1.080648
     9  H    2.288673   2.709906   2.689843   1.080648   3.352019
    10  H    3.375508   4.295278   3.731396   3.312322   2.209183
    11  H    3.375508   4.295278   3.731396   2.209183   3.312322
    12  C    2.638907   2.634020   3.706228   2.191283   2.820734
    13  C    3.793005   4.026012   4.792045   2.938331   3.666479
    14  C    2.611869   2.585303   3.677857   2.832325   2.174853
    15  H    2.897379   2.583695   3.881335   2.476204   3.522963
    16  O    4.246252   4.582326   5.229429   3.683137   3.591181
    17  O    4.662233   4.910676   5.581762   3.536275   4.710874
    18  C    3.772849   3.979228   4.767471   3.736236   2.879390
    19  H    2.828115   2.465182   3.806319   3.488634   2.481817
    20  O    4.626023   4.830287   5.536261   4.784048   3.479331
                    6          7          8          9         10
     6  C    0.000000
     7  C    1.390341   0.000000
     8  H    2.197268   3.303227   0.000000
     9  H    3.303227   2.197268   4.375418   0.000000
    10  H    1.080167   2.201589   2.636299   4.304858   0.000000
    11  H    2.201589   1.080167   4.304858   2.636299   2.647000
    12  C    3.124687   2.803123   3.617033   2.661613   3.944970
    13  C    3.434962   2.982139   4.490139   3.319144   3.979141
    14  C    2.825835   3.158235   2.628157   3.628628   3.484751
    15  H    3.977520   3.467913   4.297329   2.554703   4.892949
    16  O    3.249216   3.310826   4.194964   4.343919   3.443855
    17  O    4.303274   3.558810   5.605464   3.605781   4.807130
    18  C    3.006659   3.530581   3.195390   4.581381   3.229712
    19  H    3.512158   3.995904   2.566358   4.244541   4.163571
    20  O    3.623121   4.431841   3.457647   5.696982   3.545033
                   11         12         13         14         15
    11  H    0.000000
    12  C    3.454522   0.000000
    13  C    3.209568   1.472328   0.000000
    14  C    3.991296   1.402661   2.311665   0.000000
    15  H    4.088676   1.078084   2.206968   2.218367   0.000000
    16  O    3.553815   2.322963   1.405172   2.311725   3.295667
    17  O    3.459074   2.432154   1.195053   3.483643   2.806821
    18  C    4.117248   2.321233   2.280185   1.472328   3.313404
    19  H    4.924439   2.215145   3.310905   1.078084   2.674835
    20  O    4.996932   3.491647   3.405033   2.432154   4.447725
                   16         17         18         19         20
    16  O    0.000000
    17  O    2.266832   0.000000
    18  C    1.392424   3.402586   0.000000
    19  H    3.288861   4.448930   2.207543   0.000000
    20  O    2.256325   4.454809   1.195053   2.805004   0.000000
 Symmetry turned off by external request.
 Stoichiometry    C9H8O3
 Framework group  C1[X(C9H8O3)]
 Deg. of freedom    54
 Full point group                 C1      NOp   1
 Rotational constants (GHZ):           1.4061005           1.0645257           0.7910761
 Standard basis: def2TZVP (5D, 7F)
 The following finite field(s) will be applied:
 An electric field of             -0.0037  0.0033  0.0007
   420 basis functions,   676 primitive gaussians,   480 cartesian basis functions
    43 alpha electrons       43 beta electrons
       nuclear repulsion energy       707.3535094716 Hartrees.
 NAtoms=   20 NActive=   20 NUniq=   20 SFac= 1.00D+00 NAtFMM=   60 NAOKFM=F Big=F
 Integral buffers will be    131072 words long.
 Raffenetti 2 integral format.
 Two-electron integral symmetry is turned off.
 One-electron integrals computed using PRISM.
   1 Symmetry operations used in ECPInt.
 ECPInt:  NShTT=   13530 NPrTT=   41904 LenC2=   13162 LenP2D=   31843.
 LDataN:  DoStor=T MaxTD1= 6 Len=  172
 NBasis=   420 RedAO= T EigKep=  2.16D-05  NBF=   420
 NBsUse=   420 1.00D-06 EigRej= -1.00D+00 NBFU=   420
 The nuclear repulsion energy is now       708.7252235411 hartrees.
 Initial guess from the checkpoint file:  "checkpoint.chk"
 B after Tr=    -0.000325    0.000277   -0.000092
         Rot=    1.000000    0.000107    0.000145   -0.000003 Ang=   0.02 deg.
 Requested convergence on RMS density matrix=1.00D-08 within 128 cycles.
 Requested convergence on MAX density matrix=1.00D-06.
 Requested convergence on             energy=1.00D-06.
 No special actions if energy rises.
 SCF Done:  E(RB3LYP) =  -573.610496109     A.U. after    8 cycles
            NFock=  8  Conv=0.26D-08     -V/T= 2.0048
   1 Symmetry operations used in ECPInt.
 ECPInt:  NShTT=   13530 NPrTT=   41904 LenC2=   13162 LenP2D=   31843.
 LDataN:  DoStor=T MaxTD1= 7 Len=  274
 Calling FoFJK, ICntrl=      2127 FMM=F ISym2X=0 I1Cent= 0 IOpClX= 0 NMat=1 NMatS=1 NMatT=0.
 -------------------------------------------------------------------
 Center     Atomic                   Forces (Hartrees/Bohr)
 Number     Number              X              Y              Z
 -------------------------------------------------------------------
      1        6          -0.001753407   -0.000094242    0.000000918
      2        1           0.001756596   -0.000382752    0.000000349
      3        1           0.000000063   -0.000601416    0.000000137
      4        6          -0.000131805    0.000252687   -0.000241347
      5        6           0.000127871    0.000249523    0.000242648
      6        6           0.000769076    0.000462446    0.000173257
      7        6          -0.000767884    0.000476128   -0.000173105
      8        1           0.000327575    0.000044350   -0.000154365
      9        1          -0.000327746    0.000044337    0.000154323
     10        1          -0.000126796   -0.000224519   -0.000104946
     11        1           0.000126631   -0.000224053    0.000104695
     12        6           0.000654717    0.000900180    0.000404101
     13        6          -0.002229747   -0.005972859   -0.001026881
     14        6          -0.000587584    0.000983652   -0.000319671
     15        1          -0.000001322    0.000004400   -0.000004608
     16        8           0.000003294    0.000006338    0.000001287
     17        8           0.001574303    0.005066538    0.000629850
     18        6           0.001792555   -0.006193558    0.000456699
     19        1           0.000002694    0.000003586    0.000005044
     20        8          -0.001209082    0.005199233   -0.000148386
 -------------------------------------------------------------------
 Cartesian Forces:  Max     0.006193558 RMS     0.001593834
 -----------------------------------------------------------------------------------------------
                       Internal Coordinate Forces (Hartree/Bohr or radian)
  Cent   Atom   N1       Length/X         N2         Alpha/Y        N3         Beta/Z          J
 -----------------------------------------------------------------------------------------------
      1  C 
      2  H        1   0.000000(     1)
      3  H        1   0.000000(     2)      2  -0.000000(    20)
      4  C        1   0.000174(     3)      2  -0.000564(    21)      3   0.003109(    38)     0
      5  C        1  -0.000186(     4)      2   0.000607(    22)      3   0.003066(    39)     0
      6  C        5  -0.000336(     5)      1  -0.000649(    23)      2  -0.000767(    40)     0
      7  C        4   0.000340(     6)      1   0.000614(    24)      2  -0.000776(    41)     0
      8  H        5   0.000070(     7)      1  -0.000232(    25)      6   0.000578(    42)     0
      9  H        4  -0.000070(     8)      1   0.000232(    26)      7   0.000578(    43)     0
     10  H        6  -0.000009(     9)      5   0.000527(    27)      1  -0.000174(    44)     0
     11  H        7   0.000009(    10)      4  -0.000526(    28)      1  -0.000174(    45)     0
     12  C        1   0.000000(    11)      2  -0.000004(    29)      3  -0.000000(    46)     0
     13  C       12   0.000956(    12)      1   0.000003(    30)      2   0.000001(    47)     0
     14  C       12  -0.000007(    13)      1   0.000016(    31)     13   0.000031(    48)     0
     15  H       12  -0.000006(    14)      1  -0.000001(    32)     13   0.000001(    49)     0
     16  O       13   0.000004(    15)     12  -0.000017(    33)      1   0.000002(    50)     0
     17  O       13  -0.005273(    16)     12   0.001946(    34)     16   0.000000(    51)     0
     18  C       14  -0.000961(    17)     12  -0.000025(    35)      1   0.000007(    52)     0
     19  H       14   0.000007(    18)     12  -0.000000(    36)     18   0.000001(    53)     0
     20  O       18   0.005270(    19)     14  -0.001943(    37)     12   0.000001(    54)     0
 -----------------------------------------------------------------------------------------------
 Internal  Forces:  Max     0.005272791 RMS     0.001279602

 GradGradGradGradGradGradGradGradGradGradGradGradGradGradGradGradGradGrad
 Berny optimization.
 Search for a saddle point.
 Step number   3 out of a maximum of   48
 All quantities printed in internal units (Hartrees-Bohrs-Radians)
 Swapping is turned off.
 Update second derivatives using D2CorN and points    1    2    3
 ITU=  0  0  0
     Eigenvalues ---   -0.17540   0.03048   0.03139   0.05270   0.06877
     Eigenvalues ---    0.07596   0.08426   0.10608   0.11248   0.14605
     Eigenvalues ---    0.16468   0.19096   0.21420   0.23356   0.26895
     Eigenvalues ---    0.31697   0.33334   0.34145   0.34694   0.37316
     Eigenvalues ---    0.41405   0.47532   0.55008   0.59679   0.64825
     Eigenvalues ---    0.71999   0.73105   0.73249   0.74578   0.79983
     Eigenvalues ---    0.91219   1.23331   1.39277   1.72083   1.76186
     Eigenvalues ---    2.27164   9.47370  38.24737
 Eigenvectors required to have negative eigenvalues:
                          R12       D8        D19       D4        R14
   1                    0.49299  -0.37740   0.29143  -0.29136  -0.24887
                          R6        A12       D6        D15       A15
   1                   -0.24508  -0.22051   0.21632  -0.20262  -0.19656
 RFO step:  Lambda0=3.149014938D-10 Lambda= 0.00000000D+00.
 Linear search not attempted -- option 19 set.
 Variable       Old X    -DE/DX   Delta X   Delta X   Delta X     New X
                                 (Linear)    (Quad)   (Total)
    R2        2.05399   0.00000   0.00000   0.00000   0.00000   2.05399
    R3        2.07456   0.00000   0.00000  -0.00000  -0.00000   2.07455
    R4        2.84711  -0.00001   0.00000   0.00000   0.00000   2.84711
    R6        2.65162   0.00000   0.00000  -0.00001  -0.00001   2.65161
    R8        2.04213  -0.00000   0.00000  -0.00000  -0.00000   2.04213
   R10        2.04122  -0.00000   0.00000   0.00000   0.00000   2.04122
   R12        4.98681   0.00000   0.00000   0.00008   0.00008   4.98689
   R13        2.78230  -0.00000   0.00000  -0.00000  -0.00000   2.78229
   R14        2.65065  -0.00001   0.00000  -0.00001  -0.00001   2.65064
   R15        2.03728   0.00000   0.00000  -0.00000  -0.00000   2.03728
   R16        2.65539   0.00000   0.00000   0.00001   0.00001   2.65540
   R17        2.25832  -0.00000   0.00000   0.00000   0.00000   2.25832
    A3        1.89057  -0.00000   0.00000   0.00001   0.00001   1.89059
    A4        2.01989   0.00004   0.00000  -0.00002  -0.00002   2.01988
    A6        1.86240  -0.00004   0.00000   0.00001   0.00001   1.86241
    A8        2.15661   0.00000   0.00000   0.00000   0.00000   2.15661
   A10        2.18413   0.00000   0.00000   0.00000   0.00000   2.18413
   A12        1.35878  -0.00000   0.00000  -0.00006  -0.00006   1.35872
   A13        2.31353   0.00000   0.00000   0.00005   0.00005   2.31358
   A14        1.28185   0.00002   0.00000  -0.00003  -0.00003   1.28182
   A15        1.61804  -0.00000   0.00000  -0.00004  -0.00004   1.61800
   A16        1.87868  -0.00002   0.00000   0.00000   0.00000   1.87868
   A17        2.29045   0.00000   0.00000  -0.00000  -0.00000   2.29045
   A18        1.87900  -0.00002   0.00000   0.00000   0.00000   1.87900
   A19        2.19889  -0.00000   0.00000  -0.00001  -0.00001   2.19889
    D4        2.12993   0.00004   0.00000   0.00002   0.00002   2.12994
    D6       -2.67260   0.00001   0.00000   0.00006   0.00006  -2.67254
    D8       -2.68584  -0.00000   0.00000  -0.00003  -0.00003  -2.68587
   D10       -2.92476  -0.00000   0.00000  -0.00001  -0.00001  -2.92477
   D12        2.87264  -0.00000   0.00000   0.00002   0.00002   2.87266
   D13       -3.10310   0.00000   0.00000  -0.00005  -0.00005  -3.10315
   D14       -1.71276   0.00003   0.00000   0.00005   0.00005  -1.71271
   D15        2.35038   0.00000   0.00000   0.00002   0.00002   2.35041
   D16       -1.35701   0.00000   0.00000   0.00006   0.00006  -1.35695
   D17        3.15597   0.00000   0.00000   0.00001   0.00001   3.15598
   D18        2.28771   0.00001   0.00000   0.00006   0.00006   2.28777
   D19        2.60935   0.00000   0.00000  -0.00003  -0.00003   2.60932
   D20        3.02307   0.00000   0.00000  -0.00001  -0.00001   3.02306
         Item               Value     Threshold  Converged?
 Maximum Force            0.000044     0.000450     YES
 RMS     Force            0.000014     0.000300     YES
 Maximum Displacement     0.000075     0.001800     YES
 RMS     Displacement     0.000030     0.001200     YES
 Predicted change in Energy=-1.028600D-09
 Optimization completed.
    -- Stationary point found.
                       ----------------------------
                       !   Optimized Parameters   !
                       ! (Angstroms and Degrees)  !
 ----------------------                            ----------------------
 !      Name          Value   Derivative information (Atomic Units)     !
 ------------------------------------------------------------------------
 !       R2          1.0869   -DE/DX =    0.0                           !
 !       R3          1.0978   -DE/DX =    0.0                           !
 !       R4          1.5066   -DE/DX =    0.0                           !
 !       R6          1.4032   -DE/DX =    0.0                           !
 !       R8          1.0806   -DE/DX =    0.0                           !
 !       R10         1.0802   -DE/DX =    0.0                           !
 !       R12         2.6389   -DE/DX =    0.0                           !
 !       R13         1.4723   -DE/DX =    0.0                           !
 !       R14         1.4027   -DE/DX =    0.0                           !
 !       R15         1.0781   -DE/DX =    0.0                           !
 !       R16         1.4052   -DE/DX =    0.0                           !
 !       R17         1.1951   -DE/DX =    0.0                           !
 !       A3        108.3219   -DE/DX =    0.0                           !
 !       A4        115.7313   -DE/DX =    0.0                           !
 !       A6        106.7076   -DE/DX =    0.0                           !
 !       A8        123.5644   -DE/DX =    0.0                           !
 !       A10       125.1414   -DE/DX =    0.0                           !
 !       A12        77.8522   -DE/DX =    0.0                           !
 !       A13       132.5552   -DE/DX =    0.0                           !
 !       A14        73.4446   -DE/DX =    0.0                           !
 !       A15        92.7068   -DE/DX =    0.0                           !
 !       A16       107.6402   -DE/DX =    0.0                           !
 !       A17       131.2332   -DE/DX =    0.0                           !
 !       A18       107.6585   -DE/DX =    0.0                           !
 !       A19       125.9874   -DE/DX =    0.0                           !
 !       D4        122.0358   -DE/DX =    0.0                           !
 !       D6       -153.1289   -DE/DX =    0.0                           !
 !       D8       -153.8875   -DE/DX =    0.0                           !
 !       D10      -167.5763   -DE/DX =    0.0                           !
 !       D12       164.5903   -DE/DX =    0.0                           !
 !       D13      -177.7946   -DE/DX =    0.0                           !
 !       D14       -98.1341   -DE/DX =    0.0                           !
 !       D15       134.6671   -DE/DX =    0.0                           !
 !       D16       -77.7507   -DE/DX =    0.0                           !
 !       D17       180.8239   -DE/DX =    0.0                           !
 !       D18       131.076    -DE/DX =    0.0                           !
 !       D19       149.5048   -DE/DX =    0.0                           !
 !       D20       173.209    -DE/DX =    0.0                           !
 ------------------------------------------------------------------------
 GradGradGradGradGradGradGradGradGradGradGradGradGradGradGradGradGradGrad

 ---------------------------------------------------------------------------------------------------
                            Z-MATRIX (ANGSTROMS AND DEGREES)
   CD    Cent   Atom    N1       Length/X        N2       Alpha/Y        N3        Beta/Z          J
 ---------------------------------------------------------------------------------------------------
      1      1  C 
      2      2  H        1   1.086924(     1)
      3      3  H        1   1.097808(     2)      2  108.322(    20)
      4      4  C        1   1.506625(     3)      2  115.731(    21)      3  122.036(    38)      0
      5      5  C        1   1.506625(     4)      2  115.731(    22)      3 -122.036(    39)      0
      6      6  C        5   1.403177(     5)      1  106.708(    23)      2 -153.129(    40)      0
      7      7  C        4   1.403177(     6)      1  106.708(    24)      2  153.129(    41)      0
      8      8  H        5   1.080648(     7)      1  123.564(    25)      6 -153.887(    42)      0
      9      9  H        4   1.080648(     8)      1  123.564(    26)      7  153.887(    43)      0
     10     10  H        6   1.080167(     9)      5  125.141(    27)      1 -167.576(    44)      0
     11     11  H        7   1.080167(    10)      4  125.141(    28)      1  167.576(    45)      0
     12     12  C        1   2.638907(    11)      2   77.852(    29)      3  164.590(    46)      0
     13     13  C       12   1.472328(    12)      1  132.555(    30)      2 -177.795(    47)      0
     14     14  C       12   1.402661(    13)      1   73.445(    31)     13  -98.134(    48)      0
     15     15  H       12   1.078084(    14)      1   92.707(    32)     13  134.667(    49)      0
     16     16  O       13   1.405172(    15)     12  107.640(    33)      1  -77.751(    50)      0
     17     17  O       13   1.195053(    16)     12  131.233(    34)     16  180.824(    51)      0
     18     18  C       14   1.472328(    17)     12  107.658(    35)      1  131.076(    52)      0
     19     19  H       14   1.078084(    18)     12  125.987(    36)     18  149.505(    53)      0
     20     20  O       18   1.195053(    19)     14  131.233(    37)     12  173.209(    54)      0
 ---------------------------------------------------------------------------------------------------
                         Z-Matrix orientation:                         
 ---------------------------------------------------------------------
 Center     Atomic      Atomic             Coordinates (Angstroms)
 Number     Number       Type             X           Y           Z
 ---------------------------------------------------------------------
      1          6           0        0.000000    0.000000    0.000000
      2          1           0        0.000000    0.000000    1.086924
      3          1           0        1.042155    0.000000   -0.345102
      4          6           0       -0.719939   -1.150545   -0.654103
      5          6           0       -0.719939    1.150545   -0.654103
      6          6           0       -1.151555    0.695170   -1.909192
      7          6           0       -1.151555   -0.695170   -1.909192
      8          1           0       -0.520785    2.187709   -0.425130
      9          1           0       -0.520785   -2.187709   -0.425130
     10          1           0       -1.530044    1.323500   -2.702104
     11          1           0       -1.530044   -1.323500   -2.702104
     12          6           0       -2.487074   -0.685505    0.555315
     13          6           0       -3.634288   -1.045000   -0.294632
     14          6           0       -2.437569    0.715330    0.606976
     15          1           0       -2.179997   -1.364501    1.334374
     16          8           0       -4.163508    0.145347   -0.821424
     17          8           0       -4.123430   -2.104892   -0.550601
     18          6           0       -3.560928    1.231715   -0.192499
     19          1           0       -2.062837    1.306154    1.427201
     20          8           0       -3.974030    2.342666   -0.345096
 ---------------------------------------------------------------------
                    Distance matrix (angstroms):
                    1          2          3          4          5
     1  C    0.000000
     2  H    1.086924   0.000000
     3  H    1.097808   1.771097   0.000000
     4  C    1.506625   2.207542   2.127019   0.000000
     5  C    1.506625   2.207542   2.127019   2.301090   0.000000
     6  C    2.335456   3.284212   2.782445   2.273369   1.403177
     7  C    2.335456   3.284212   2.782445   1.403177   2.273369
     8  H    2.288673   2.709906   2.689843   3.352019   1.080648
     9  H    2.288673   2.709906   2.689843   1.080648   3.352019
    10  H    3.375508   4.295278   3.731396   3.312322   2.209183
    11  H    3.375508   4.295278   3.731396   2.209183   3.312322
    12  C    2.638907   2.634020   3.706228   2.191283   2.820734
    13  C    3.793005   4.026012   4.792045   2.938331   3.666479
    14  C    2.611869   2.585303   3.677857   2.832325   2.174853
    15  H    2.897379   2.583695   3.881335   2.476204   3.522963
    16  O    4.246252   4.582326   5.229429   3.683137   3.591181
    17  O    4.662233   4.910676   5.581762   3.536275   4.710874
    18  C    3.772849   3.979228   4.767471   3.736236   2.879390
    19  H    2.828115   2.465182   3.806319   3.488634   2.481817
    20  O    4.626023   4.830287   5.536261   4.784048   3.479331
                    6          7          8          9         10
     6  C    0.000000
     7  C    1.390341   0.000000
     8  H    2.197268   3.303227   0.000000
     9  H    3.303227   2.197268   4.375418   0.000000
    10  H    1.080167   2.201589   2.636299   4.304858   0.000000
    11  H    2.201589   1.080167   4.304858   2.636299   2.647000
    12  C    3.124687   2.803123   3.617033   2.661613   3.944970
    13  C    3.434962   2.982139   4.490139   3.319144   3.979141
    14  C    2.825835   3.158235   2.628157   3.628628   3.484751
    15  H    3.977520   3.467913   4.297329   2.554703   4.892949
    16  O    3.249216   3.310826   4.194964   4.343919   3.443855
    17  O    4.303274   3.558810   5.605464   3.605781   4.807130
    18  C    3.006659   3.530581   3.195390   4.581381   3.229712
    19  H    3.512158   3.995904   2.566358   4.244541   4.163571
    20  O    3.623121   4.431841   3.457647   5.696982   3.545033
                   11         12         13         14         15
    11  H    0.000000
    12  C    3.454522   0.000000
    13  C    3.209568   1.472328   0.000000
    14  C    3.991296   1.402661   2.311665   0.000000
    15  H    4.088676   1.078084   2.206968   2.218367   0.000000
    16  O    3.553815   2.322963   1.405172   2.311725   3.295667
    17  O    3.459074   2.432154   1.195053   3.483643   2.806821
    18  C    4.117248   2.321233   2.280185   1.472328   3.313404
    19  H    4.924439   2.215145   3.310905   1.078084   2.674835
    20  O    4.996932   3.491647   3.405033   2.432154   4.447725
                   16         17         18         19         20
    16  O    0.000000
    17  O    2.266832   0.000000
    18  C    1.392424   3.402586   0.000000
    19  H    3.288861   4.448930   2.207543   0.000000
    20  O    2.256325   4.454809   1.195053   2.805004   0.000000
 Symmetry turned off by external request.
 Stoichiometry    C9H8O3
 Framework group  C1[X(C9H8O3)]
 Deg. of freedom    54
 Full point group                 C1      NOp   1
 Rotational constants (GHZ):           1.4061005           1.0645257           0.7910761
 1\1\GINC-BHC0172\PTS\RB3LYP\def2TZVP\C9H8O3\DHANAWAY\12-Jun-2022\1\\# 
 Opt=(TS, CalcFC, noeigentest, Z-matrix, MaxStep=10) geom=allcheckpoint
  guess=read Field=read NoSymm B3LYP/Def2TZVP freq=noraman pop=none\\ts
 _zmat_initalOpt\\0,1\C\H,1,R2\H,1,R3,2,A3\C,1,R4,2,A4,3,D4,0\C,1,R4,2,
 A4,3,-D4,0\C,5,R6,1,A6,2,D6,0\C,4,R6,1,A6,2,-D6,0\H,5,R8,1,A8,6,D8,0\H
 ,4,R8,1,A8,7,-D8,0\H,6,R10,5,A10,1,D10,0\H,7,R10,4,A10,1,-D10,0\C,1,R1
 2,2,A12,3,D12,0\C,12,R13,1,A13,2,D13,0\C,12,R14,1,A14,13,D14,0\H,12,R1
 5,1,A15,13,D15,0\O,13,R16,12,A16,1,D16,0\O,13,R17,12,A17,16,D17,0\C,14
 ,R13,12,A18,1,D18,0\H,14,R15,12,A19,18,D19,0\O,18,R17,14,A17,12,D20,0\
 \R2=1.08692366\R3=1.09780787\R4=1.50662477\R6=1.40317719\R8=1.08064821
 \R10=1.08016716\R12=2.63890672\R13=1.47232753\R14=1.40266149\R15=1.078
 08393\R16=1.40517228\R17=1.19505282\A3=108.32194011\A4=115.73131244\A6
 =106.70757305\A8=123.56443263\A10=125.14137187\A12=77.85222946\A13=132
 .55523196\A14=73.44458501\A15=92.70683165\A16=107.64022973\A17=131.233
 17417\A18=107.65848628\A19=125.98736651\D4=122.0357631\D6=-153.1289182
 5\D8=-153.88747141\D10=-167.57631632\D12=164.5903432\D13=-177.79463572
 \D14=-98.13410186\D15=134.66707488\D16=-77.75069362\D17=180.82391384\D
 18=131.075971\D19=149.5048369\D20=173.20902324\\Version=ES64L-G16RevA.
 03\HF=-573.6104961\RMSD=2.569e-09\RMSF=1.594e-03\Dipole=2.8366249,-0.5
 37945,0.4589056\PG=C01 [X(C9H8O3)]\\@


 SILVERMAN'S PARADOX - IF MURPHY'S LAW CAN GO WRONG, IT WILL.
 Job cpu time:       0 days  5 hours  7 minutes 49.9 seconds.
 Elapsed time:       0 days  0 hours 25 minutes 42.2 seconds.
 File lengths (MBytes):  RWF=    287 Int=      0 D2E=      0 Chk=     32 Scr=      1
 Normal termination of Gaussian 16 at Sun Jun 12 02:59:47 2022.
 Link1:  Proceeding to internal job step number  2.
 --------------------------------------------------------------------
 #N Geom=AllCheck Guess=TCheck SCRF=Check GenChk RB3LYP/def2TZVP Freq
 --------------------------------------------------------------------
 1/5=1,8=10,10=4,11=1,29=7,30=1,38=1,40=1/1,3;
 2/12=2,15=1,40=1/2;
 3/5=44,7=101,11=2,14=-4,25=1,30=1,70=2,71=2,74=-5,116=1,140=1/1,2,3;
 4/5=101/1;
 5/5=2,38=6,98=1/2;
 8/6=4,10=90,11=11/1;
 11/6=1,8=1,9=11,15=111,16=1,31=1/1,2,10;
 10/6=1,31=1/2;
 7/8=1,10=1,25=1,30=1/1,2,3,16;
 1/5=1,8=10,10=4,11=1,30=1/3;
 99//99;
 Structure from the checkpoint file:  "checkpoint.chk"
 -----------------
 ts_zmat_initalOpt
 -----------------
 Charge =  0 Multiplicity = 1
 Z-Matrix found in chk file.
 C
 H,1,R2
 H,1,R3,2,A3
 C,1,R4,2,A4,3,D4,0
 C,1,R4,2,A4,3,-D4,0
 C,5,R6,1,A6,2,D6,0
 C,4,R6,1,A6,2,-D6,0
 H,5,R8,1,A8,6,D8,0
 H,4,R8,1,A8,7,-D8,0
 H,6,R10,5,A10,1,D10,0
 H,7,R10,4,A10,1,-D10,0
 C,1,R12,2,A12,3,D12,0
[...]
 07656,-0.00025492,0.00035262,-0.00096769,0.00041242,-0.00354927,0.0002
 8794,-0.00386707,-0.04774417,-0.05339426,-0.02802246,0.00145678,-0.004
 58219,0.00285627,0.00412818,-0.00303943,-0.00153562,0.04431600,-0.0071
 5396,-0.00877679,-0.00584570,0.00000278,0.00015604,0.00039102,0.000352
 49,-0.00013542,-0.00007530,0.00180945,-0.00263361,0.00173375,-0.048312
 44,-0.32376601,-0.06252481,0.00027825,-0.00202337,0.00226115,-0.001054
 71,0.00009167,-0.00077672,0.05369885,0.33707136,0.00678537,0.01000129,
 0.00389715,0.00059418,-0.00071630,0.00013586,-0.00032407,-0.00008229,0
 .00041972,-0.00133096,0.00436377,-0.00159453,-0.02294243,-0.05578545,-
 0.06028230,-0.00392917,-0.02847476,0.00131180,-0.00363069,-0.00109821,
 -0.00528780,0.02074937,0.06618466,0.06027772,0.00559200,-0.01531320,0.
 00654304,-0.00007244,0.00006068,-0.00027462,0.00037781,0.00097783,0.00
 042192,-0.04907201,0.05391289,-0.02703464,-0.00350966,-0.00030814,-0.0
 0375774,0.00414804,0.00282028,-0.00163053,0.00168433,0.00479313,0.0023
 4715,0.00201980,-0.00040636,-0.00044242,0.04495521,0.00651210,-0.00858
 338,0.00552270,0.00000648,0.00017042,-0.00035601,-0.00034032,-0.000162
 34,0.00005464,0.04885523,-0.32652216,0.06298434,-0.00169189,-0.0022153
 9,-0.00158297,0.00097417,0.00020853,0.00056585,-0.00030456,-0.00140626
 ,-0.00193274,0.00038631,-0.00042814,0.00064916,-0.05349418,0.33826773,
 0.00643603,-0.01028518,0.00407432,0.00061624,0.00073393,0.00015338,-0.
 00035248,0.00002324,0.00040492,-0.02251868,0.05621006,-0.06120923,-0.0
 0127354,-0.00433238,-0.00158207,-0.00360315,0.00113989,-0.00510493,-0.
 00390473,0.02826972,0.00114320,-0.00045481,-0.00073991,0.00137504,0.02
 076360,-0.06648271,0.06083722,0.00423571,0.00029771,-0.00411924,-0.000
 32773,0.00100471,-0.00061971,0.00035328,-0.00089094,0.00080777,0.00476
 450,-0.00086853,-0.00239209,0.00047231,0.00556796,-0.00441006,-0.07567
 849,0.06170484,-0.08236044,0.00335436,-0.00225577,0.00129989,-0.002156
 08,-0.00002145,0.00163473,0.00034206,-0.00015110,0.00039465,0.06678172
 ,-0.00053003,-0.00096411,-0.00310355,-0.00029591,0.00073442,-0.0002598
 1,0.00004781,-0.00004784,0.00002790,0.00037917,-0.00606390,0.00029298,
 -0.00585270,0.01137405,-0.00873439,0.06015803,-0.15678803,0.12103595,0
 .01010074,-0.00682494,0.02269703,0.00013886,0.00017825,0.00095425,0.00
 035677,-0.00002650,0.00139432,-0.06491236,0.15747835,-0.00163283,-0.00
 190527,-0.00270670,-0.00069488,0.00066937,-0.00004342,-0.00029795,0.00
 038198,-0.00037195,-0.00270937,-0.00147653,0.00120556,-0.00910041,0.01
 750838,-0.00991320,-0.07873617,0.12135224,-0.21125864,0.00124754,-0.00
 304306,0.00608729,0.00129691,-0.00054577,0.00008936,0.00018826,-0.0000
 4417,0.00017593,0.08934605,-0.13329564,0.21676833,0.00426166,-0.000337
 80,-0.00397837,-0.00033544,-0.00098210,-0.00060597,0.00035397,0.000881
 51,0.00079829,0.00080083,-0.00548279,-0.00445674,0.00478438,0.00089471
 ,-0.00257755,0.00373047,0.00252378,0.00144644,-0.07717792,-0.06191600,
 -0.08232790,0.00037764,0.00019300,0.00043828,-0.00211167,-0.00005267,0
 .00162358,-0.00249587,-0.00038901,0.00115029,0.06748462,0.00060763,-0.
 00091302,0.00318992,0.00030531,0.00074717,0.00028064,-0.00004659,-0.00
 002869,-0.00001780,0.00585504,0.01167804,0.00880452,-0.00036103,-0.005
 84932,-0.00024593,-0.00990626,-0.00705117,-0.02226180,-0.06058655,-0.1
 5754729,-0.12184431,-0.00036923,-0.00008912,-0.00136004,-0.00010369,0.
 00016863,-0.00088569,0.00038219,0.00082189,0.00053823,0.06495089,0.157
 93310,-0.00164468,0.00188348,-0.00269394,-0.00067745,-0.00066115,-0.00
 004027,-0.00029147,-0.00037086,-0.00035918,-0.00927533,-0.01720743,-0.
 00987468,-0.00268037,0.00159366,0.00127819,0.00125198,0.00316980,0.006
 49839,-0.07867849,-0.12198727,-0.21249725,0.00018255,0.00005312,0.0002
 2431,0.00128203,0.00048044,0.00010519,0.00115643,-0.00053951,-0.000448
 54,0.08931871,0.13342004,0.21732898,-0.02959792,-0.00777476,0.00969613
 ,-0.00066374,-0.00075700,0.00147186,-0.00166046,-0.00353323,-0.0000345
 6,0.03872822,-0.00542791,-0.05708468,0.00047624,-0.00230407,-0.0124922
 1,0.00084024,0.01880647,0.01314759,-0.00032791,-0.02688681,0.02466576,
 -0.00094781,0.00051093,0.00028106,-0.00585757,-0.00064096,0.00271084,0
 .00077377,0.00030400,-0.00022252,-0.00055362,-0.00018016,0.00065468,0.
 30020339,0.01003654,-0.00076217,-0.00168414,-0.00076222,0.00004245,-0.
 00048102,0.00161621,-0.00123232,0.00077773,-0.02738051,-0.01170685,0.0
 4274282,-0.03200363,-0.00738791,0.04688523,-0.00735445,-0.03255517,-0.
 02187121,-0.00304703,0.02850133,-0.02773034,0.00137734,-0.00058570,-0.
 00015820,0.00658040,0.00039255,-0.00431398,0.00058553,-0.00044498,-0.0
 0045052,0.00022171,0.00052187,-0.00005569,0.01898602,0.65171152,0.0068
 9757,0.00055770,-0.00111294,-0.00112691,-0.00124703,0.00011870,-0.0000
 7075,-0.00067871,0.00052748,-0.02497093,0.00526835,0.02043922,-0.00787
 095,0.00332122,0.01071654,0.00131626,-0.01305426,-0.01289071,0.0045594
 3,0.02254646,-0.02539811,0.00117449,-0.00024710,-0.00041381,0.00040879
 ,0.00066826,-0.00001895,-0.00054380,-0.00055188,0.00042861,-0.00004773
 ,0.00007793,0.00002158,0.23764950,-0.16710005,0.42124300,-0.00011168,0
 .00120238,-0.00075557,-0.00032485,0.00008970,0.00018994,0.00003629,0.0
 0084389,0.00007776,-0.02066008,-0.00156704,0.00926043,0.00353542,-0.00
 021602,-0.00544907,0.00203339,0.00132570,-0.00178573,-0.00144292,0.001
 42270,0.00247071,-0.00005762,0.00012293,0.00023310,0.00225307,0.000469
 45,-0.00099619,-0.00021305,0.00032876,-0.00001120,0.00010618,-0.000127
 96,-0.00033659,-0.14071392,-0.03014106,-0.07309972,0.48057939,0.003701
 90,-0.00028095,-0.00050915,-0.00030890,-0.00021107,-0.00038504,0.00036
 412,-0.00041830,0.00002406,-0.00406723,-0.00047370,0.00327946,-0.00489
 776,-0.00269729,0.00347431,-0.00036613,-0.00115536,-0.00034284,0.00064
 552,0.00285654,-0.00093765,0.00023807,-0.00017691,-0.00009324,0.002322
 75,-0.00004601,-0.00032144,-0.00053937,-0.00038878,0.00057052,0.000241
 88,0.00028798,-0.00102980,-0.00649678,-0.08513847,-0.00043543,0.270301
 65,0.83488743,0.00191294,0.00196207,-0.00152475,0.00005518,0.00039344,
 -0.00043965,0.00067733,0.00154069,-0.00071797,-0.00355394,0.00007706,0
 .00890766,0.00765907,-0.00021403,-0.00978838,0.00384856,0.00461578,0.0
 0014374,0.00196209,0.00113446,0.00116944,-0.00016928,0.00021747,0.0001
 1869,0.00155731,0.00014983,-0.00068097,-0.00036089,0.00029377,0.000066
 49,0.00070976,-0.00058725,-0.00100819,-0.05702138,-0.00179801,-0.12373
 934,0.18424108,0.14309294,0.34183245,-0.03113789,0.00824560,0.01030866
 ,-0.00111473,0.00091343,0.00161715,-0.00188713,0.00361774,0.00004062,0
 .00257827,0.00243617,-0.01408986,0.03766738,0.00486512,-0.06045400,0.0
 0084587,0.02837945,0.02594872,0.00070167,-0.02088583,0.01409317,-0.006
 41435,0.00038539,0.00293080,-0.00104868,-0.00054730,0.00029117,-0.0005
 5348,0.00019258,0.00061635,0.00061327,-0.00032542,-0.00018488,-0.07250
 927,0.02258378,-0.01784856,-0.01228800,-0.01846646,-0.01779766,0.31305
 449,-0.00898689,-0.00131506,0.00143978,0.00095846,-0.00006205,0.000174
 42,-0.00150020,-0.00133462,-0.00093315,0.03234199,-0.00657209,-0.04539
 936,0.02482707,-0.01198998,-0.04233640,0.00403501,0.02695027,0.0272874
 7,0.00690253,-0.03194681,0.02098683,-0.00677488,0.00044419,0.00447661,
 -0.00134088,-0.00047538,0.00020141,-0.00020330,0.00059179,-0.00009651,
 -0.00074767,-0.00033561,0.00057516,-0.04007472,-0.30968192,0.01135639,
 -0.01750380,-0.02241713,-0.02696712,-0.00831439,0.62876565,0.00765722,
 -0.00082184,-0.00118824,-0.00123047,0.00134120,0.00003105,-0.00010906,
 0.00037402,0.00046125,-0.00677895,-0.00272914,0.00854540,-0.02563794,-
 0.00576432,0.02121798,0.00490457,-0.02185530,-0.02512173,0.00099714,0.
 01315034,-0.01186694,0.00074866,-0.00071588,-0.00013341,0.00090409,0.0
 0013674,-0.00026375,0.00000674,-0.00015001,-0.00002054,-0.00066325,0.0
 0048763,0.00043548,-0.02095151,-0.02732211,-0.09624724,-0.00287594,-0.
 02077584,-0.00074357,0.25491144,0.16590194,0.43574322,0.00214661,0.000
 56913,0.00003553,-0.00037815,-0.00026285,-0.00025460,0.00029886,0.0002
 8726,-0.00008452,-0.00701436,-0.00299210,0.01440796,-0.00227355,-0.001
 60512,0.00608569,-0.00132043,-0.00511140,-0.00242605,-0.00154298,0.004
 23868,-0.00352903,-0.00004511,-0.00000727,0.00000190,0.00077301,0.0002
 3900,-0.00007468,0.00014056,-0.00003096,-0.00015265,0.00012397,0.00011
 022,-0.00011505,-0.05377870,0.03952870,-0.07542431,-0.00363179,0.01552
 748,-0.01467049,0.00446529,0.00465463,0.00090139,0.06603107,-0.0002817
 8,-0.00009416,0.00066932,-0.00033537,-0.00014361,-0.00008944,-0.000086
 63,-0.00002882,-0.00011647,0.00155122,0.00088568,-0.00295561,0.0010954
 0,-0.00077367,-0.00163779,0.00035121,0.00135762,0.00021485,-0.00012582
 ,-0.00095794,0.00096237,-0.00024044,0.00000055,0.00018339,0.00019331,0
 .00031988,-0.00034033,-0.00009023,-0.00002291,0.00003498,0.00000372,-0
 .00000530,-0.00000317,0.04887783,-0.16845676,0.13813562,0.00117659,0.0
 0730182,-0.00797648,0.00934451,-0.01013330,0.02115854,-0.05633922,0.17
 313072,-0.00198599,-0.00010273,0.00039432,0.00004359,0.00006233,0.0006
 2791,-0.00014193,-0.00029414,0.00029475,0.00514648,0.00212061,-0.01034
 308,0.00152920,-0.00009518,-0.00319088,0.00077423,0.00295642,0.0013696
 0,0.00066597,-0.00273360,0.00255252,-0.00006383,-0.00002967,0.00009952
 ,-0.00028529,-0.00055408,0.00016674,-0.00004143,-0.00003181,0.00009481
 ,-0.00008580,-0.00005264,0.00007104,-0.08356522,0.14593680,-0.20035572
 ,0.00306499,0.01264562,-0.00764041,0.00226179,-0.00922373,0.00968032,0
 .07731614,-0.14720309,0.20564068,-0.00200990,0.00002785,-0.00007979,0.
 00032263,0.00000806,0.00031156,-0.00015345,0.00010147,-0.00021617,0.00
 225558,-0.00031491,-0.00091330,0.00327539,0.00017579,-0.00191738,0.000
 39827,0.00009423,0.00026227,0.00036580,-0.00022100,0.00031794,-0.00023
 346,0.00011530,0.00000287,-0.00003602,-0.00009231,-0.00006504,-0.00010
 894,-0.00002456,0.00016904,-0.00006685,0.00003974,0.00014596,-0.015271
 96,0.02605417,-0.03046727,-0.12461781,0.01324119,-0.05647029,-0.020358
 72,-0.02331841,-0.03463810,-0.00397065,-0.00339302,-0.00306813,0.23879
 800,0.00024948,0.00156602,0.00008800,-0.00002550,0.00018376,-0.0000248
 8,0.00002454,0.00131320,-0.00000698,-0.00696376,-0.00000073,0.00614114
 ,0.00668986,-0.00011207,-0.00673067,0.00093975,0.00085231,-0.00107363,
 -0.00101191,0.00031837,0.00136169,-0.00032381,0.00042254,0.00041311,0.
 00038602,0.00037180,-0.00041932,0.00002531,0.00007590,-0.00028018,-0.0
 0011525,0.00003999,0.00025521,0.02426354,-0.01444763,0.01334471,0.0221
 8492,-0.05937196,0.02132894,-0.02247350,-0.00689114,-0.01080096,0.0017
 2400,0.00325443,0.00165140,0.00239688,0.35362349,-0.00188240,0.0001061
 3,0.00068229,0.00005164,-0.00000046,0.00079045,-0.00051125,0.00004394,
 0.00067526,0.00012079,0.00025176,-0.00301661,0.00076851,-0.00021804,-0
 .00367307,0.00092113,0.00123166,0.00141757,0.00089933,-0.00101527,0.00
 152581,-0.00022162,0.00015396,0.00010289,-0.00024238,-0.00015736,0.000
 09900,-0.00022925,-0.00046995,0.00035367,-0.00022120,0.00035482,0.0002
 2990,-0.02711045,0.01261435,-0.01110505,-0.05678531,0.01623840,-0.1065
 6767,-0.03105413,-0.01105672,-0.01388779,-0.00372825,-0.00082991,0.000
 22768,0.16680088,0.00769550,0.20127725,-0.00030203,-0.00015958,0.00052
 581,0.00015868,-0.00007840,0.00001409,-0.00010268,-0.00037633,0.000046
 18,0.00402847,-0.00066437,-0.00242158,-0.00099063,-0.00032559,0.001382
 95,-0.00073481,-0.00098423,0.00001066,-0.00047575,0.00044527,-0.001041
 57,-0.00001729,-0.00000361,0.00002383,-0.00034979,-0.00006892,0.000191
 27,0.00011536,-0.00009816,-0.00001910,-0.00004424,-0.00008481,0.000066
 10,-0.01060776,-0.03844426,-0.01331062,-0.21500880,-0.24406173,-0.0793
 6191,-0.00309071,0.00117177,-0.00700147,0.00052108,-0.00012333,-0.0002
 0440,0.02809629,0.00199632,0.01000764,0.20015165,-0.00079614,-0.000215
 61,0.00049647,0.00019316,-0.00006841,0.00007234,-0.00009076,-0.0001651
 5,0.00009727,0.00472822,0.00004210,-0.00221354,-0.00035175,0.00037669,
 0.00151857,-0.00090816,-0.00164158,-0.00091021,-0.00102970,0.00036398,
 -0.00102253,-0.00016712,0.00006826,0.00015333,-0.00167467,-0.00000084,
 0.00045811,0.00036358,0.00007171,-0.00027977,-0.00014221,-0.00009839,0
 .00064290,-0.02849165,-0.01807668,-0.01221129,-0.25381482,-0.58675005,
 -0.13561284,-0.00278775,0.00444903,-0.00423415,0.00032891,-0.00052433,
 -0.00233421,-0.01302086,-0.10720961,-0.00229880,0.28222060,0.70409552,
 -0.00005312,-0.00051588,0.00025758,0.00007657,-0.00003581,0.00012696,-
 0.00016826,-0.00027493,0.00019090,0.00134109,0.00002675,-0.00113007,-0
 .00176818,-0.00012785,0.00294358,-0.00107219,-0.00193948,-0.00050199,-
 0.00013719,0.00016172,-0.00122160,-0.00012586,-0.00001197,0.00010857,-
 0.00044235,0.00000889,0.00002836,0.00016758,-0.00007033,-0.00009374,-0
 .00030928,0.00021717,0.00059695,-0.01810177,-0.02732723,0.00879625,-0.
 08209987,-0.13109638,-0.12169864,-0.00148423,0.00366340,-0.00182336,0.
 00255780,0.00095523,0.00095914,0.01262821,0.01316673,0.02359185,0.0945
 2015,0.14218031,0.08983444,-0.00015430,-0.00087691,-0.00109877,-0.0003
 3983,-0.00004914,0.00030454,0.00006070,-0.00092777,0.00014841,0.003604
 95,0.00005590,-0.00491079,-0.02160340,0.00181380,0.01217192,-0.0012760
 4,-0.00238181,0.00147071,0.00195125,-0.00048419,-0.00232587,0.00233909
 ,-0.00026374,-0.00097167,-0.00009001,-0.00000805,0.00022506,0.00011191
 ,0.00023264,-0.00043687,-0.00010431,-0.00024391,0.00003823,-0.00892163
 ,0.01675342,0.00007584,0.03131059,-0.02990950,0.03719567,-0.13730392,0
 .03899368,-0.07091583,0.00135654,-0.00429644,-0.00433822,-0.13143447,-
 0.01603127,-0.06265122,-0.00141662,0.01829151,-0.00752589,0.44731429,-
 0.00414356,-0.00014060,0.00046300,0.00037719,-0.00014831,0.00041677,-0
 .00044438,-0.00007142,0.00003259,0.00384313,-0.00298579,-0.00150347,0.
 00594701,-0.00027915,-0.00484987,-0.00048156,0.00249963,0.00085347,-0.
 00038756,-0.00069806,0.00025936,-0.00322995,-0.00034484,0.00055346,-0.
 00018741,-0.00016906,0.00002493,-0.00002440,0.00033723,0.00104944,0.00
 056640,-0.00036098,-0.00050815,0.01920554,-0.02733424,0.01743976,0.015
 50514,-0.10079248,0.01517113,0.01639468,-0.09155259,0.00898651,-0.0015
 5168,-0.00571330,-0.00378918,-0.00926367,-0.07043130,-0.01364608,0.001
 33395,0.01814920,-0.00088114,-0.25302397,0.91950601,0.00124263,-0.0020
 4241,-0.00137074,0.00009673,-0.00037778,-0.00038963,0.00062473,-0.0014
 5899,-0.00078466,0.00823710,-0.00011522,-0.01016279,-0.00217560,-0.000
 40587,0.00781829,0.00242377,-0.00166278,0.00065517,0.00378164,-0.00434
 861,0.00016711,0.00126192,0.00001197,-0.00052534,-0.00015700,-0.000139
 49,0.00010210,0.00060636,0.00064415,-0.00107730,-0.00029501,-0.0001848
 9,0.00011903,-0.01442495,0.02791390,0.00239049,0.03737002,-0.03108276,
 0.02481045,-0.05700862,0.00667451,-0.12103043,-0.00261678,-0.00084807,
 -0.00009067,-0.06183853,-0.01781026,-0.11489729,-0.00623038,0.02005837
 ,-0.00150385,0.15299446,-0.09737980,0.32213781,0.00172915,-0.00059307,
 0.00026897,-0.00053175,0.00034455,-0.00006787,0.00031797,-0.00027690,-
 0.00006997,-0.00193241,0.00131482,0.00541579,-0.00572911,0.00283222,0.
 01388209,-0.00175345,-0.00366190,-0.00310159,-0.00100432,0.00461078,-0
 .00201785,0.00085845,-0.00021375,-0.00015412,-0.00000099,-0.00000173,-
 0.00003139,0.00010825,-0.00011062,-0.00008366,0.00017591,0.00001855,-0
 .00017550,0.00328706,-0.00473154,-0.00059347,0.00182588,0.00126565,-0.
 00261385,-0.06629791,-0.04422322,-0.09184762,-0.00173708,0.00034399,0.
 00129463,-0.00375857,-0.00067621,-0.00384354,-0.00039551,-0.00086180,0
 .00038247,-0.00498659,-0.01450399,-0.01482475,0.07932150,0.00031594,-0
 .00005308,-0.00073981,0.00047109,-0.00016078,0.00008612,0.00006692,-0.
 00001744,0.00012237,-0.00097539,-0.00080954,0.00097072,-0.00115116,0.0
 0081114,0.00258423,0.00004535,-0.00050924,-0.00061503,-0.00015376,0.00
 080013,0.00011669,-0.00010631,0.00024419,0.00032162,0.00021486,0.00000
 779,-0.00016337,-0.00001314,-0.00000127,0.00001573,0.00008682,-0.00003
 020,-0.00001940,-0.01148828,-0.00760507,-0.02266428,0.00406668,-0.0067
 6431,0.00058634,-0.05208093,-0.14020689,-0.12535561,-0.00016392,0.0013
 4141,0.00107236,0.00413107,0.00310978,0.00137487,-0.00259825,-0.000467
 07,-0.00090342,0.00007961,0.00818071,0.01019052,0.05941943,0.14244675,
 -0.00199753,0.00023393,0.00019158,0.00003731,-0.00009846,0.00084091,-0
 .00015153,0.00031134,0.00040589,0.00115798,-0.00003211,-0.00270202,0.0
 0414576,-0.00197660,-0.01029511,0.00088395,0.00239050,0.00216515,0.000
 59748,-0.00249875,0.00119430,-0.00029458,0.00057994,0.00011685,-0.0000
 1273,0.00003516,0.00008374,-0.00009364,0.00004895,0.00007923,-0.000050
 91,0.00003327,0.00010314,0.00205698,0.00696908,0.00787026,-0.00366834,
 0.00353767,0.00048293,-0.10016416,-0.13211372,-0.21621845,0.00128880,-
 0.00102292,-0.00074133,-0.00314210,-0.00108074,0.00029294,0.00136371,-
 0.00028029,0.00007064,0.00234986,-0.01179795,-0.00782592,0.09574322,0.
 13427113,0.22291371,-0.00029634,0.00004992,0.00063115,0.00014508,0.000
 04122,-0.00000342,-0.00011280,0.00036737,0.00003576,-0.00093066,0.0003
 6590,0.00139990,0.00351767,0.00094044,-0.00279917,-0.00021809,-0.00023
 181,-0.00083921,-0.00075302,0.00090555,0.00002967,-0.00004802,-0.00003
 207,0.00005004,0.00000351,-0.00004875,0.00002225,-0.00002016,0.0000049
 4,0.00008317,0.00007703,0.00006604,-0.00003686,-0.00289663,-0.00045912
 ,-0.00670687,-0.00260969,0.00126366,-0.00779930,-0.00592146,0.03910323
 ,-0.00838114,-0.00016419,0.00237452,0.00168323,0.02850883,-0.01325942,
 0.00891106,0.00046509,-0.00198859,0.00161430,-0.18041818,0.22406908,-0
 .04906775,0.00050352,-0.00016662,-0.00004952,0.16116851,0.00106267,-0.
 00013592,-0.00054435,-0.00023198,-0.00006631,-0.00005073,0.00013779,-0
 .00028062,-0.00009761,0.00051272,0.00041855,-0.00243223,-0.00519706,-0
 .00031319,0.00296798,0.00087694,0.00046264,0.00100221,0.00135351,-0.00
 209881,0.00122826,0.00204206,0.00028286,-0.00048618,0.00020961,0.00012
 816,-0.00017129,0.00003877,-0.00009032,-0.00070344,-0.00039893,0.00011
 042,0.00030859,0.00310202,0.00424616,0.00547364,-0.01566978,0.02174900
 ,-0.01740820,0.02852312,-0.02628637,0.00898823,0.00085651,-0.00073801,
 -0.00000148,0.00326298,-0.10666714,-0.01037279,0.00090366,-0.01239878,
 0.00280422,0.23227614,-0.64765065,0.09236351,-0.00029526,-0.00031702,0
 .00249054,-0.25336549,0.76964534,0.00010423,0.00050072,0.00010495,0.00
 006063,0.00002198,0.00011727,-0.00014979,0.00023897,0.00018538,-0.0017
 1644,0.00017224,0.00284931,0.00095618,-0.00003745,-0.00073439,-0.00031
 788,-0.00009214,-0.00093604,-0.00092848,0.00172999,-0.00043217,-0.0004
 1156,-0.00007421,-0.00004029,-0.00013650,-0.00000651,0.00011076,-0.000
 24965,-0.00018243,0.00058475,0.00013436,0.00003618,-0.00009012,-0.0013
 2513,-0.00354741,-0.00127027,-0.00904450,0.00414660,-0.00298230,-0.012
 93378,0.02538878,0.01243075,0.00048119,0.00070897,0.00018306,0.0121773
 5,-0.02721881,0.02188092,0.00143863,-0.00428003,0.00046801,-0.05179957
 ,0.08910521,-0.09854184,0.00243800,-0.00125179,0.00097156,0.06122272,-
 0.08535886,0.06514071\\0.00175339,0.00009424,-0.00000090,-0.00175659,0
 .00038275,-0.00000038,-0.00000006,0.00060142,-0.00000014,0.00013181,-0
 .00025269,0.00024136,-0.00012787,-0.00024952,-0.00024264,-0.00076907,-
 0.00046241,-0.00017323,0.00076790,-0.00047615,0.00017313,-0.00032758,-
 0.00004436,0.00015436,0.00032775,-0.00004434,-0.00015433,0.00012679,0.
 00022453,0.00010493,-0.00012664,0.00022404,-0.00010472,-0.00065472,-0.
 00090014,-0.00040408,0.00222976,0.00597298,0.00102688,0.00058761,-0.00
 098369,0.00031970,0.00000132,-0.00000439,0.00000459,-0.00000329,-0.000
 00641,-0.00000130,-0.00157432,-0.00506657,-0.00062985,-0.00179256,0.00
 619355,-0.00045670,-0.00000270,-0.00000360,-0.00000507,0.00120908,-0.0
 0519923,0.00014839\\\@


 EVERY WORD THAT YOU WRITE IS A BLOW THAT SMITES THE DEVIL.
     -- ST. BERNARD OF CLAIRVAUX
 Job cpu time:       0 days  4 hours  4 minutes  3.7 seconds.
 Elapsed time:       0 days  0 hours 20 minutes 21.8 seconds.
 File lengths (MBytes):  RWF=    289 Int=      0 D2E=      0 Chk=     32 Scr=      1
 Normal termination of Gaussian 16 at Sun Jun 12 03:20:10 2022.
