 Entering Gaussian System, Link 0=g16
 Input=ts_initalOptXYZ_aligned_sp.gjf
 Output=ts_initalOptXYZ_aligned_sp.out
 Initial command:
 /software/gaussian/g16-a03/l1.exe "/local_scratch/11171796/Gau-20120.inp" -scrdir="/local_scratch/11171796/"
 Entering Link 1 = /software/gaussian/g16-a03/l1.exe PID=     20121.
  
 Copyright (c) 1988,1990,1992,1993,1995,1998,2003,2009,2016,
            Gaussian, Inc.  All Rights Reserved.
  
 This is part of the Gaussian(R) 16 program.  It is based on
 the Gaussian(R) 09 system (copyright 2009, Gaussian, Inc.),
 the Gaussian(R) 03 system (copyright 2003, Gaussian, Inc.),
 the Gaussian(R) 98 system (copyright 1998, Gaussian, Inc.),
 the Gaussian(R) 94 system (copyright 1995, Gaussian, Inc.),
 the Gaussian 92(TM) system (copyright 1992, Gaussian, Inc.),
 the Gaussian 90(TM) system (copyright 1990, Gaussian, Inc.),
 the Gaussian 88(TM) system (copyright 1988, Gaussian, Inc.),
 the Gaussian 86(TM) system (copyright 1986, Carnegie Mellon
 University), and the Gaussian 82(TM) system (copyright 1983,
 Carnegie Mellon University). Gaussian is a federally registered
 trademark of Gaussian, Inc.
  
 This software contains proprietary and confidential information,
 including trade secrets, belonging to Gaussian, Inc.
  
 This software is provided under written license and may be
 used, copied, transmitted, or stored only in accord with that
 written license.
  
 The following legend is applicable only to US Government
 contracts under FAR:
  
                    RESTRICTED RIGHTS LEGEND
  
 Use, reproduction and disclosure by the US Government is
 subject to restrictions as set forth in subparagraphs (a)
 and (c) of the Commercial Computer Software - Restricted
 Rights clause in FAR 52.227-19.
  
 Gaussian, Inc.
 340 Quinnipiac St., Bldg. 40, Wallingford CT 06492
  
  
 ---------------------------------------------------------------
 Warning -- This program may not be used in any manner that
 competes with the business of Gaussian, Inc. or will provide
 assistance to any competitor of Gaussian, Inc.  The licensee
 of this program is prohibited from giving any competitor of
 Gaussian, Inc. access to this program.  By using this program,
 the user acknowledges that Gaussian, Inc. is engaged in the
 business of creating and licensing software in the field of
 computational chemistry and represents and warrants to the
 licensee that it is not a competitor of Gaussian, Inc. and that
 it will not use this program in any manner prohibited above.
 ---------------------------------------------------------------
  

 Cite this work as:
 Gaussian 16, Revision A.03,
 M. J. Frisch, G. W. Trucks, H. B. Schlegel, G. E. Scuseria, 
 M. A. Robb, J. R. Cheeseman, G. Scalmani, V. Barone, 
 G. A. Petersson, H. Nakatsuji, X. Li, M. Caricato, A. V. Marenich, 
 J. Bloino, B. G. Janesko, R. Gomperts, B. Mennucci, H. P. Hratchian, 
 J. V. Ortiz, A. F. Izmaylov, J. L. Sonnenberg, D. Williams-Young, 
 F. Ding, F. Lipparini, F. Egidi, J. Goings, B. Peng, A. Petrone, 
 T. Henderson, D. Ranasinghe, V. G. Zakrzewski, J. Gao, N. Rega, 
 G. Zheng, W. Liang, M. Hada, M. Ehara, K. Toyota, R. Fukuda, 
 J. Hasegawa, M. Ishida, T. Nakajima, Y. Honda, O. Kitao, H. Nakai, 
 T. Vreven, K. Throssell, J. A. Montgomery, Jr., J. E. Peralta, 
 F. Ogliaro, M. J. Bearpark, J. J. Heyd, E. N. Brothers, K. N. Kudin, 
 V. N. Staroverov, T. A. Keith, R. Kobayashi, J. Normand, 
 K. Raghavachari, A. P. Rendell, J. C. Burant, S. S. Iyengar, 
 J. Tomasi, M. Cossi, J. M. Millam, M. Klene, C. Adamo, R. Cammi, 
 J. W. Ochterski, R. L. Martin, K. Morokuma, O. Farkas, 
 J. B. Foresman, and D. J. Fox, Gaussian, Inc., Wallingford CT, 2016.
 
 ******************************************
 Gaussian 16:  ES64L-G16RevA.03 25-Dec-2016
                10-Jun-2022 
 ******************************************
 %nprocshared=12
 Will use up to   12 processors via shared memory.
 %chk=checkpoint.chk
 %mem=12GB
 --------------------------
 # sp B3LYP/Def2TZVP NoSymm
 --------------------------
 1/38=1,172=1/1;
 2/12=2,15=1,17=6,18=5,40=1/2;
 3/5=44,7=101,11=2,25=1,30=1,74=-5/1,2,3;
 4//1;
 5/5=2,38=5/2;
 6/7=2,8=2,9=2,10=2,28=1/1;
 99/5=1,9=1/99;
 ---------------------------------
 ts_initalOptXYZ_aligned_AlignedSp
 ---------------------------------
 Symbolic Z-matrix:
 Charge =  0 Multiplicity = 1
 6                    -0.25163  -0.80932  -0.40113 
 6                    -1.44486  -0.55877  -0.12871 
 1                    -1.50779   0.85814   0.0385 
 6                    -2.7782   -1.11933   0.19926 
 1                    -2.75463  -2.20944   0.26179 
 1                    -3.51673  -0.83664  -0.55493 
 1                    -3.13592  -0.72777   1.15477 
 6                     0.94296  -1.66227  -0.38705 
 8                     1.9845   -1.06106   0.39307 
 1                     1.3143   -1.85247  -1.40036 
 1                     0.7068   -2.62679   0.07399 
 6                     1.73189   0.32128   0.67996 
 6                     1.04338   0.95579  -0.49054 
 1                     2.72045   0.75991   0.8371 
 1                     1.15764   0.42929   1.6059 
 6                     0.09183   1.95396  -0.51627 
 1                     1.63243   0.85462  -1.4002 
 6                    -0.98629   2.04238   0.38649 
 1                    -0.04736   2.44671  -1.47417 
 1                    -0.82247   1.82283   1.43764 
 1                    -1.71725   2.82784   0.22339 
 
                          Input orientation:                          
 ---------------------------------------------------------------------
 Center     Atomic      Atomic             Coordinates (Angstroms)
 Number     Number       Type             X           Y           Z
 ---------------------------------------------------------------------
      1          6           0       -0.251628   -0.809318   -0.401129
      2          6           0       -1.444859   -0.558768   -0.128705
      3          1           0       -1.507793    0.858135    0.038500
      4          6           0       -2.778198   -1.119334    0.199258
      5          1           0       -2.754629   -2.209436    0.261785
      6          1           0       -3.516732   -0.836641   -0.554928
      7          1           0       -3.135922   -0.727769    1.154773
      8          6           0        0.942963   -1.662272   -0.387052
      9          8           0        1.984500   -1.061063    0.393068
     10          1           0        1.314300   -1.852471   -1.400362
     11          1           0        0.706801   -2.626786    0.073993
     12          6           0        1.731886    0.321276    0.679964
     13          6           0        1.043382    0.955787   -0.490544
     14          1           0        2.720453    0.759907    0.837102
     15          1           0        1.157643    0.429286    1.605896
     16          6           0        0.091833    1.953960   -0.516270
     17          1           0        1.632430    0.854618   -1.400203
     18          6           0       -0.986290    2.042385    0.386488
     19          1           0       -0.047364    2.446705   -1.474173
     20          1           0       -0.822468    1.822829    1.437635
     21          1           0       -1.717252    2.827837    0.223385
 ---------------------------------------------------------------------
                    Distance matrix (angstroms):
                    1          2          3          4          5
     1  C    0.000000
     2  C    1.249316   0.000000
     3  H    2.133453   1.428122   0.000000
     4  C    2.615364   1.483100   2.355877   0.000000
     5  H    2.943603   2.143055   3.318802   1.092148   0.000000
     6  H    3.268838   2.133433   2.694487   1.092769   1.769855
     7  H    3.278206   2.129688   2.532185   1.092840   1.771482
     8  C    1.467916   2.643134   3.541151   3.805993   3.793753
     9  O    2.386293   3.505004   4.000644   4.766996   4.878047
    10  H    2.130438   3.302081   4.169163   4.454752   4.409800
    11  H    2.108914   2.991225   4.129208   3.799121   3.491553
    12  C    2.526130   3.394132   3.345925   4.758917   5.167997
    13  C    2.191037   2.935328   2.607282   4.403002   5.000952
    14  H    3.581752   4.474540   4.304123   5.845815   6.254959
    15  H    2.747423   3.279955   3.121729   4.457320   4.906665
    16  C    2.786921   2.970763   2.016781   4.265465   5.103095
    17  H    2.704904   3.617192   3.454110   5.090030   5.603295
    18  C    3.048324   2.691042   1.339966   3.639019   4.606577
    19  H    3.434361   3.577170   2.635258   4.793168   5.658841
    20  H    3.261152   2.917670   1.832453   3.743632   4.623314
    21  H    3.970764   3.415737   1.989417   4.087340   5.143126
                    6          7          8          9         10
     6  H    0.000000
     7  H    1.754978   0.000000
     8  C    4.538582   4.459577   0.000000
     9  O    5.586825   5.187485   1.433471   0.000000
    10  H    5.008547   5.253394   1.095839   2.071687   0.000000
    11  H    4.630161   4.420506   1.094816   2.045926   1.772665
    12  C    5.514864   5.002149   2.386501   1.434219   3.037649
    13  C    4.900162   4.796667   2.622027   2.394610   2.964368
    14  H    6.587047   6.050721   3.244222   2.013635   3.715916
    15  H    5.302972   4.469562   2.896989   2.091838   3.777373
    16  C    4.561873   4.516908   3.717291   3.674159   4.094504
    17  H    5.485318   5.636402   2.799388   2.647566   2.725718
    18  C    3.946922   3.589559   4.247925   4.296164   4.863687
    19  H    4.864349   5.150518   4.364203   4.463126   4.510265
    20  H    4.278101   3.455088   4.311863   4.157767   5.111539
    21  H    4.155995   3.939853   5.254565   5.371713   5.807938
                   11         12         13         14         15
    11  H    0.000000
    12  C    3.179476   0.000000
    13  C    3.642364   1.498910   0.000000
    14  H    4.013330   1.092865   2.147925   0.000000
    15  H    3.448124   1.094884   2.164560   1.772775   0.000000
    16  C    4.659381   2.605073   1.379296   3.188577   2.822086
    17  H    3.892328   2.149753   1.088436   2.489638   3.072940
    18  C    4.976481   3.230608   2.463625   3.948132   2.947116
    19  H    5.357788   3.510482   2.092866   3.980966   3.874125
    20  H    4.898700   3.058341   2.819757   3.747363   2.427162
    21  H    5.970868   4.288107   3.411065   4.934188   3.991166
                   16         17         18         19         20
    16  C    0.000000
    17  H    2.088858   0.000000
    18  C    1.408950   3.385373   0.000000
    19  H    1.086164   2.315582   2.122997   0.000000
    20  H    2.161223   3.875214   1.086256   3.077114   0.000000
    21  H    2.140920   4.213075   1.085285   2.411533   1.812480
                   21
    21  H    0.000000
 Symmetry turned off by external request.
 Stoichiometry    C8H12O
 Framework group  C1[X(C8H12O)]
 Deg. of freedom    57
 Full point group                 C1      NOp   1
 Rotational constants (GHZ):           1.9776427           1.5037764           0.9634887
 Standard basis: def2TZVP (5D, 7F)
   351 basis functions,   555 primitive gaussians,   396 cartesian basis functions
    34 alpha electrons       34 beta electrons
       nuclear repulsion energy       445.2971035835 Hartrees.
 NAtoms=   21 NActive=   21 NUniq=   21 SFac= 1.00D+00 NAtFMM=   60 NAOKFM=F Big=F
 Integral buffers will be    131072 words long.
 Raffenetti 2 integral format.
 Two-electron integral symmetry is turned off.
 One-electron integrals computed using PRISM.
   1 Symmetry operations used in ECPInt.
 ECPInt:  NShTT=   10878 NPrTT=   32112 LenC2=   10638 LenP2D=   24940.
 LDataN:  DoStor=T MaxTD1= 6 Len=  172
 NBasis=   351 RedAO= T EigKep=  2.24D-05  NBF=   351
 NBsUse=   351 1.00D-06 EigRej= -1.00D+00 NBFU=   351
 ExpMin= 9.52D-02 ExpMax= 2.70D+04 ExpMxC= 9.22D+02 IAcc=3 IRadAn=         5 AccDes= 0.00D+00
 Harris functional with IExCor=  402 and IRadAn=       5 diagonalized for initial guess.
 HarFok:  IExCor=  402 AccDes= 0.00D+00 IRadAn=         5 IDoV= 1 UseB2=F ITyADJ=14
 ICtDFT=  3500011 ScaDFX=  1.000000  1.000000  1.000000  1.000000
 FoFCou: FMM=F IPFlag=           0 FMFlag=      100000 FMFlg1=           0
         NFxFlg=           0 DoJE=T BraDBF=F KetDBF=T FulRan=T
         wScrn=  0.000000 ICntrl=       500 IOpCl=  0 I1Cent=   200000004 NGrid=           0
         NMat0=    1 NMatS0=      1 NMatT0=    0 NMatD0=    1 NMtDS0=    0 NMtDT0=    0
 Symmetry not used in FoFCou.
 Requested convergence on RMS density matrix=1.00D-08 within 128 cycles.
 Requested convergence on MAX density matrix=1.00D-06.
 Requested convergence on             energy=1.00D-06.
 No special actions if energy rises.
 Integral accuracy reduced to 1.0D-05 until final iterations.
 Initial convergence to 1.0D-05 achieved.  Increase integral accuracy.
 SCF Done:  E(RB3LYP) =  -387.287092866     A.U. after   14 cycles
            NFock= 14  Conv=0.72D-08     -V/T= 2.0053

 **********************************************************************

            Population analysis using the SCF density.

 **********************************************************************

 Alpha  occ. eigenvalues --  -19.12393 -10.23203 -10.21739 -10.18669 -10.18060
 Alpha  occ. eigenvalues --  -10.17854 -10.17434 -10.17270 -10.17202  -1.02972
 Alpha  occ. eigenvalues --   -0.81625  -0.78807  -0.74093  -0.72010  -0.67378
 Alpha  occ. eigenvalues --   -0.62652  -0.54638  -0.51817  -0.50439  -0.47054
 Alpha  occ. eigenvalues --   -0.46041  -0.45696  -0.43770  -0.42776  -0.42261
 Alpha  occ. eigenvalues --   -0.40561  -0.39097  -0.37860  -0.36140  -0.32550
 Alpha  occ. eigenvalues --   -0.27330  -0.26575  -0.25257  -0.22952
 Alpha virt. eigenvalues --   -0.01998   0.01430   0.02566   0.03597   0.05248
 Alpha virt. eigenvalues --    0.06212   0.07183   0.09067   0.09704   0.10138
 Alpha virt. eigenvalues --    0.11045   0.11751   0.12720   0.13050   0.14145
 Alpha virt. eigenvalues --    0.15284   0.16506   0.17477   0.18273   0.18967
 Alpha virt. eigenvalues --    0.20056   0.20306   0.21108   0.22049   0.23976
 Alpha virt. eigenvalues --    0.24577   0.26246   0.27838   0.29050   0.30057
 Alpha virt. eigenvalues --    0.30946   0.32285   0.33242   0.33653   0.34336
 Alpha virt. eigenvalues --    0.36498   0.37900   0.38199   0.39098   0.39871
 Alpha virt. eigenvalues --    0.40359   0.40967   0.41900   0.42151   0.43420
 Alpha virt. eigenvalues --    0.43646   0.44932   0.45091   0.45559   0.45965
 Alpha virt. eigenvalues --    0.46828   0.47265   0.48084   0.49318   0.49532
 Alpha virt. eigenvalues --    0.52381   0.52904   0.53258   0.54973   0.57159
 Alpha virt. eigenvalues --    0.58090   0.59242   0.60708   0.63305   0.64716
 Alpha virt. eigenvalues --    0.65606   0.67202   0.69739   0.73442   0.73757
 Alpha virt. eigenvalues --    0.76514   0.77621   0.79569   0.81502   0.82974
 Alpha virt. eigenvalues --    0.84092   0.85831   0.86334   0.89354   0.90241
 Alpha virt. eigenvalues --    0.91851   0.92586   0.95203   0.96662   0.97686
 Alpha virt. eigenvalues --    0.98954   0.99881   1.02124   1.02805   1.04601
 Alpha virt. eigenvalues --    1.06883   1.07591   1.09278   1.11832   1.13702
 Alpha virt. eigenvalues --    1.14370   1.17005   1.18303   1.19913   1.20517
 Alpha virt. eigenvalues --    1.22561   1.23619   1.26115   1.27618   1.28256
 Alpha virt. eigenvalues --    1.31572   1.32925   1.39529   1.41104   1.43205
 Alpha virt. eigenvalues --    1.46731   1.47056   1.49549   1.50325   1.51659
 Alpha virt. eigenvalues --    1.51982   1.52247   1.53059   1.54844   1.55653
 Alpha virt. eigenvalues --    1.57383   1.59108   1.59604   1.59942   1.61295
 Alpha virt. eigenvalues --    1.62830   1.64386   1.66707   1.67324   1.69103
 Alpha virt. eigenvalues --    1.71010   1.72206   1.74724   1.75773   1.78083
 Alpha virt. eigenvalues --    1.83461   1.85324   1.86106   1.87654   1.90247
 Alpha virt. eigenvalues --    1.91904   1.93028   1.96522   1.96875   1.99276
 Alpha virt. eigenvalues --    2.00547   2.02275   2.03868   2.07191   2.08750
 Alpha virt. eigenvalues --    2.10518   2.12796   2.13737   2.17035   2.18548
 Alpha virt. eigenvalues --    2.18964   2.21519   2.24913   2.25432   2.27451
 Alpha virt. eigenvalues --    2.29581   2.31871   2.33177   2.34810   2.35658
 Alpha virt. eigenvalues --    2.36458   2.39411   2.41173   2.42646   2.43541
 Alpha virt. eigenvalues --    2.47118   2.49081   2.50196   2.51218   2.52160
 Alpha virt. eigenvalues --    2.53382   2.53983   2.56714   2.57532   2.59507
 Alpha virt. eigenvalues --    2.60361   2.61109   2.63349   2.66062   2.66509
 Alpha virt. eigenvalues --    2.68673   2.70037   2.71078   2.74083   2.74917
 Alpha virt. eigenvalues --    2.76001   2.78172   2.79207   2.79903   2.80650
 Alpha virt. eigenvalues --    2.81662   2.85002   2.87881   2.88805   2.91187
 Alpha virt. eigenvalues --    2.93065   2.94416   2.95577   2.96400   2.99475
 Alpha virt. eigenvalues --    3.01071   3.02849   3.04302   3.05650   3.07318
 Alpha virt. eigenvalues --    3.08562   3.09909   3.10785   3.12968   3.14167
 Alpha virt. eigenvalues --    3.15223   3.17558   3.19080   3.20769   3.21240
 Alpha virt. eigenvalues --    3.22531   3.24150   3.25227   3.27108   3.27664
 Alpha virt. eigenvalues --    3.27766   3.28570   3.30827   3.34066   3.34800
 Alpha virt. eigenvalues --    3.36452   3.37178   3.38441   3.38683   3.41331
 Alpha virt. eigenvalues --    3.43502   3.45466   3.45769   3.46535   3.48775
 Alpha virt. eigenvalues --    3.52439   3.52760   3.56394   3.56980   3.58241
 Alpha virt. eigenvalues --    3.58734   3.61842   3.65185   3.68205   3.68932
 Alpha virt. eigenvalues --    3.71079   3.72521   3.73799   3.75823   3.77775
 Alpha virt. eigenvalues --    3.83167   3.85568   3.87576   3.88804   3.90231
 Alpha virt. eigenvalues --    3.91994   3.96547   3.99409   4.01208   4.03717
 Alpha virt. eigenvalues --    4.07473   4.14493   4.15879   4.16066   4.19065
 Alpha virt. eigenvalues --    4.22801   4.25566   4.28362   4.34734   4.36444
 Alpha virt. eigenvalues --    4.38780   4.42525   4.45913   4.48951   4.50477
 Alpha virt. eigenvalues --    4.55313   4.60982   4.63370   4.67141   4.72341
 Alpha virt. eigenvalues --    4.73605   4.77744   4.78720   4.84076   4.86867
 Alpha virt. eigenvalues --    4.95906   5.05988   5.09763   5.14538   5.33936
 Alpha virt. eigenvalues --    5.38868   5.40459   5.45080   5.78065   5.82890
 Alpha virt. eigenvalues --    5.84133   6.13644   6.16282   6.72337   6.79541
 Alpha virt. eigenvalues --    6.88324   7.17586   7.27000  22.31455  22.34623
 Alpha virt. eigenvalues --   22.40798  22.46375  22.55721  22.59443  22.80225
 Alpha virt. eigenvalues --   23.43605  44.14968
          Condensed to atoms (all electrons):
               1          2          3          4          5          6
     1  C    5.552864   0.491972   0.028253  -0.064398   0.009717  -0.008308
     2  C    0.491972   5.575736   0.155638   0.273701  -0.066459  -0.055819
     3  H    0.028253   0.155638   0.612444  -0.046420   0.006967  -0.004680
     4  C   -0.064398   0.273701  -0.046420   4.903062   0.411597   0.429918
     5  H    0.009717  -0.066459   0.006967   0.411597   0.572842  -0.029527
     6  H   -0.008308  -0.055819  -0.004680   0.429918  -0.029527   0.569870
     7  H   -0.008274  -0.048429  -0.002632   0.413250  -0.026859  -0.034143
     8  C    0.356031  -0.076634   0.013544  -0.008651   0.001428  -0.000294
     9  O   -0.101044   0.007499   0.000505  -0.000460  -0.000057  -0.000010
    10  H   -0.097872   0.041085  -0.000399  -0.000130  -0.000306   0.000120
    11  H    0.005726  -0.056226  -0.000506   0.001073   0.001503  -0.000183
    12  C   -0.080693  -0.010626   0.011036  -0.001267  -0.000052   0.000004
    13  C    0.121837   0.070059  -0.066875   0.007483  -0.000476   0.000029
    14  H    0.005960   0.004395  -0.000832   0.000055  -0.000004  -0.000000
    15  H    0.035707  -0.034262  -0.000644  -0.000054   0.000062   0.000012
    16  C   -0.069141  -0.038320  -0.047049   0.005583  -0.000743   0.000064
    17  H    0.002462  -0.008480   0.000735  -0.000096   0.000013   0.000013
    18  C   -0.066603  -0.103413   0.208544  -0.003460  -0.000841   0.003402
    19  H   -0.005745   0.004463  -0.002640   0.000095  -0.000002   0.000001
    20  H   -0.006878   0.001696  -0.033755   0.001295  -0.000108  -0.000059
    21  H    0.006150   0.001160  -0.005152  -0.000403   0.000020  -0.000070
               7          8          9         10         11         12
     1  C   -0.008274   0.356031  -0.101044  -0.097872   0.005726  -0.080693
     2  C   -0.048429  -0.076634   0.007499   0.041085  -0.056226  -0.010626
     3  H   -0.002632   0.013544   0.000505  -0.000399  -0.000506   0.011036
     4  C    0.413250  -0.008651  -0.000460  -0.000130   0.001073  -0.001267
     5  H   -0.026859   0.001428  -0.000057  -0.000306   0.001503  -0.000052
     6  H   -0.034143  -0.000294  -0.000010   0.000120  -0.000183   0.000004
     7  H    0.577856   0.000258   0.000047  -0.000058   0.000009   0.000453
     8  C    0.000258   4.634077   0.357914   0.400705   0.392071  -0.054929
     9  O    0.000047   0.357914   7.992081  -0.060260  -0.042859   0.334545
    10  H   -0.000058   0.400705  -0.060260   0.696460  -0.075621   0.003303
    11  H    0.000009   0.392071  -0.042859  -0.075621   0.671271  -0.002707
    12  C    0.000453  -0.054929   0.334545   0.003303  -0.002707   4.698314
    13  C   -0.000809  -0.082418  -0.098544   0.013327   0.004653   0.307677
    14  H   -0.000008   0.001635  -0.044026   0.002462  -0.000975   0.380793
    15  H   -0.000001   0.001260  -0.044979  -0.004078   0.004844   0.400831
    16  C    0.001242  -0.006767   0.012122  -0.000528   0.000115  -0.002470
    17  H   -0.000014   0.011337   0.010119  -0.007923   0.001161  -0.054027
    18  C    0.004414   0.002827  -0.000344  -0.000083  -0.000623   0.006130
    19  H    0.000019  -0.001430  -0.000414   0.000196  -0.000027   0.007576
    20  H    0.000330  -0.001363  -0.000278  -0.000019   0.000097  -0.002779
    21  H   -0.000321   0.000023  -0.000009  -0.000010   0.000011  -0.000981
              13         14         15         16         17         18
     1  C    0.121837   0.005960   0.035707  -0.069141   0.002462  -0.066603
     2  C    0.070059   0.004395  -0.034262  -0.038320  -0.008480  -0.103413
     3  H   -0.066875  -0.000832  -0.000644  -0.047049   0.000735   0.208544
     4  C    0.007483   0.000055  -0.000054   0.005583  -0.000096  -0.003460
     5  H   -0.000476  -0.000004   0.000062  -0.000743   0.000013  -0.000841
     6  H    0.000029  -0.000000   0.000012   0.000064   0.000013   0.003402
     7  H   -0.000809  -0.000008  -0.000001   0.001242  -0.000014   0.004414
     8  C   -0.082418   0.001635   0.001260  -0.006767   0.011337   0.002827
     9  O   -0.098544  -0.044026  -0.044979   0.012122   0.010119  -0.000344
    10  H    0.013327   0.002462  -0.004078  -0.000528  -0.007923  -0.000083
    11  H    0.004653  -0.000975   0.004844   0.000115   0.001161  -0.000623
    12  C    0.307677   0.380793   0.400831  -0.002470  -0.054027   0.006130
    13  C    5.221221  -0.015716  -0.077583   0.462564   0.395582  -0.070485
    14  H   -0.015716   0.642331  -0.061867   0.000802  -0.012099  -0.001205
    15  H   -0.077583  -0.061867   0.696847  -0.007501   0.012713   0.011424
    16  C    0.462564   0.000802  -0.007501   5.016970  -0.057692   0.450319
    17  H    0.395582  -0.012099   0.012713  -0.057692   0.616274   0.011704
    18  C   -0.070485  -0.001205   0.011424   0.450319   0.011704   5.130229
    19  H   -0.035053  -0.000047  -0.000861   0.407944  -0.014927  -0.044229
    20  H    0.006876   0.000392  -0.000116  -0.039868  -0.000326   0.419024
    21  H    0.009428  -0.000015   0.000342  -0.042111  -0.000095   0.399231
              19         20         21
     1  C   -0.005745  -0.006878   0.006150
     2  C    0.004463   0.001696   0.001160
     3  H   -0.002640  -0.033755  -0.005152
     4  C    0.000095   0.001295  -0.000403
     5  H   -0.000002  -0.000108   0.000020
     6  H    0.000001  -0.000059  -0.000070
     7  H    0.000019   0.000330  -0.000321
     8  C   -0.001430  -0.001363   0.000023
     9  O   -0.000414  -0.000278  -0.000009
    10  H    0.000196  -0.000019  -0.000010
    11  H   -0.000027   0.000097   0.000011
    12  C    0.007576  -0.002779  -0.000981
    13  C   -0.035053   0.006876   0.009428
    14  H   -0.000047   0.000392  -0.000015
    15  H   -0.000861  -0.000116   0.000342
    16  C    0.407944  -0.039868  -0.042111
    17  H   -0.014927  -0.000326  -0.000095
    18  C   -0.044229   0.419024   0.399231
    19  H    0.591151   0.006134  -0.009794
    20  H    0.006134   0.552560  -0.026622
    21  H   -0.009794  -0.026622   0.550552
 Mulliken charges:
               1
     1  C   -0.107723
     2  C   -0.128736
     3  H    0.173920
     4  C   -0.321774
     5  H    0.121284
     6  H    0.129661
     7  H    0.123669
     8  C    0.059377
     9  O   -0.321548
    10  H    0.089629
    11  H    0.097193
    12  C    0.059869
    13  C   -0.172775
    14  H    0.097969
    15  H    0.067903
    16  C   -0.045535
    17  H    0.093565
    18  C   -0.355962
    19  H    0.097587
    20  H    0.123764
    21  H    0.118664
 Sum of Mulliken charges =  -0.00000
 Mulliken charges with hydrogens summed into heavy atoms:
               1
     1  C   -0.107723
     2  C   -0.128736
     4  C    0.052840
     8  C    0.246198
     9  O   -0.321548
    12  C    0.225740
    13  C   -0.079210
    16  C    0.052051
    18  C    0.060387
 Electronic spatial extent (au):  <R**2>=           1295.7574
 Charge=             -0.0000 electrons
 Dipole moment (field-independent basis, Debye):
    X=             -1.7959    Y=              0.2093    Z=             -0.2032  Tot=              1.8194
 Quadrupole moment (field-independent basis, Debye-Ang):
   XX=            -56.1889   YY=            -55.5802   ZZ=            -55.2576
   XY=              2.1501   XZ=             -2.3136   YZ=              0.6806
 Traceless Quadrupole moment (field-independent basis, Debye-Ang):
   XX=             -0.5134   YY=              0.0954   ZZ=              0.4180
   XY=              2.1501   XZ=             -2.3136   YZ=              0.6806
 Octapole moment (field-independent basis, Debye-Ang**2):
  XXX=             -9.0953  YYY=            -16.7346  ZZZ=              2.5536  XYY=             -5.0474
  XXY=              4.9761  XXZ=             -1.0661  XZZ=              4.3461  YZZ=              1.1293
  YYZ=             -3.4033  XYZ=              3.7796
 Hexadecapole moment (field-independent basis, Debye-Ang**3):
 XXXX=           -899.7578 YYYY=           -697.4185 ZZZZ=           -167.8326 XXXY=             21.3301
 XXXZ=              1.0342 YYYX=            -22.5660 YYYZ=             -9.5956 ZZZX=             -3.7100
 ZZZY=             -2.5077 XXYY=           -271.0019 XXZZ=           -175.6711 YYZZ=           -142.9359
 XXYZ=              6.4414 YYXZ=             -3.3285 ZZXY=             -3.0003
 N-N= 4.452971035835D+02 E-N=-1.791227749635D+03  KE= 3.852537210806D+02
 1\1\GINC-BHC0021\SP\RB3LYP\def2TZVP\C8H12O1\DHANAWAY\10-Jun-2022\0\\# 
 sp B3LYP/Def2TZVP NoSymm\\ts_initalOptXYZ_aligned_AlignedSp\\0,1\C,0,-
 0.251628,-0.809318,-0.401129\C,0,-1.444859,-0.558768,-0.128705\H,0,-1.
 507793,0.858135,0.0385\C,0,-2.778198,-1.119334,0.199258\H,0,-2.754629,
 -2.209436,0.261785\H,0,-3.516732,-0.836641,-0.554928\H,0,-3.135922,-0.
 727769,1.154773\C,0,0.942963,-1.662272,-0.387052\O,0,1.9845,-1.061063,
 0.393068\H,0,1.3143,-1.852471,-1.400362\H,0,0.706801,-2.626786,0.07399
 3\C,0,1.731886,0.321276,0.679964\C,0,1.043382,0.955787,-0.490544\H,0,2
 .720453,0.759907,0.837102\H,0,1.157643,0.429286,1.605896\C,0,0.091833,
 1.95396,-0.51627\H,0,1.63243,0.854618,-1.400203\C,0,-0.98629,2.042385,
 0.386488\H,0,-0.047364,2.446705,-1.474173\H,0,-0.822468,1.822829,1.437
 635\H,0,-1.717252,2.827837,0.223385\\Version=ES64L-G16RevA.03\HF=-387.
 2870929\RMSD=7.217e-09\Dipole=-0.7065587,0.0823403,-0.0799444\Quadrupo
 le=-0.3816801,0.070921,0.3107591,1.5985126,-1.7201383,0.5059743\PG=C01
  [X(C8H12O1)]\\@


 IT IS A CAPITAL MISTAKE TO THEORIZE BEFORE ONE HAS
 DATA.  INSENSIBLY ONE BEGINS TO TWIST FACTS TO SUIT
 THEORIES RATHER THAN THEORIES TO SUIT FACTS.

                                         -- SHERLOCK HOLMES
 Job cpu time:       0 days  0 hours 16 minutes 40.6 seconds.
 Elapsed time:       0 days  0 hours  1 minutes 23.6 seconds.
 File lengths (MBytes):  RWF=     71 Int=      0 D2E=      0 Chk=     32 Scr=      1
 Normal termination of Gaussian 16 at Fri Jun 10 11:18:28 2022.
