 Entering Gaussian System, Link 0=g16
 Input=int_zmat_field_N50.gjf
 Output=int_zmat_field_N50.out
 Initial command:
 /software/gaussian/g16-a03/l1.exe "/local_scratch/9923026/Gau-23813.inp" -scrdir="/local_scratch/9923026/"
 Entering Link 1 = /software/gaussian/g16-a03/l1.exe PID=     23814.
  
 Copyright (c) 1988,1990,1992,1993,1995,1998,2003,2009,2016,
            Gaussian, Inc.  All Rights Reserved.
  
 This is part of the Gaussian(R) 16 program.  It is based on
 the Gaussian(R) 09 system (copyright 2009, Gaussian, Inc.),
 the Gaussian(R) 03 system (copyright 2003, Gaussian, Inc.),
 the Gaussian(R) 98 system (copyright 1998, Gaussian, Inc.),
 the Gaussian(R) 94 system (copyright 1995, Gaussian, Inc.),
 the Gaussian 92(TM) system (copyright 1992, Gaussian, Inc.),
 the Gaussian 90(TM) system (copyright 1990, Gaussian, Inc.),
 the Gaussian 88(TM) system (copyright 1988, Gaussian, Inc.),
 the Gaussian 86(TM) system (copyright 1986, Carnegie Mellon
 University), and the Gaussian 82(TM) system (copyright 1983,
 Carnegie Mellon University). Gaussian is a federally registered
 trademark of Gaussian, Inc.
  
 This software contains proprietary and confidential information,
 including trade secrets, belonging to Gaussian, Inc.
  
 This software is provided under written license and may be
 used, copied, transmitted, or stored only in accord with that
 written license.
  
 The following legend is applicable only to US Government
 contracts under FAR:
  
                    RESTRICTED RIGHTS LEGEND
  
 Use, reproduction and disclosure by the US Government is
 subject to restrictions as set forth in subparagraphs (a)
 and (c) of the Commercial Computer Software - Restricted
 Rights clause in FAR 52.227-19.
  
 Gaussian, Inc.
 340 Quinnipiac St., Bldg. 40, Wallingford CT 06492
  
  
 ---------------------------------------------------------------
 Warning -- This program may not be used in any manner that
 competes with the business of Gaussian, Inc. or will provide
 assistance to any competitor of Gaussian, Inc.  The licensee
 of this program is prohibited from giving any competitor of
 Gaussian, Inc. access to this program.  By using this program,
 the user acknowledges that Gaussian, Inc. is engaged in the
 business of creating and licensing software in the field of
 computational chemistry and represents and warrants to the
 licensee that it is not a competitor of Gaussian, Inc. and that
 it will not use this program in any manner prohibited above.
 ---------------------------------------------------------------
  

 Cite this work as:
 Gaussian 16, Revision A.03,
 M. J. Frisch, G. W. Trucks, H. B. Schlegel, G. E. Scuseria, 
 M. A. Robb, J. R. Cheeseman, G. Scalmani, V. Barone, 
 G. A. Petersson, H. Nakatsuji, X. Li, M. Caricato, A. V. Marenich, 
 J. Bloino, B. G. Janesko, R. Gomperts, B. Mennucci, H. P. Hratchian, 
 J. V. Ortiz, A. F. Izmaylov, J. L. Sonnenberg, D. Williams-Young, 
 F. Ding, F. Lipparini, F. Egidi, J. Goings, B. Peng, A. Petrone, 
 T. Henderson, D. Ranasinghe, V. G. Zakrzewski, J. Gao, N. Rega, 
 G. Zheng, W. Liang, M. Hada, M. Ehara, K. Toyota, R. Fukuda, 
 J. Hasegawa, M. Ishida, T. Nakajima, Y. Honda, O. Kitao, H. Nakai, 
 T. Vreven, K. Throssell, J. A. Montgomery, Jr., J. E. Peralta, 
 F. Ogliaro, M. J. Bearpark, J. J. Heyd, E. N. Brothers, K. N. Kudin, 
 V. N. Staroverov, T. A. Keith, R. Kobayashi, J. Normand, 
 K. Raghavachari, A. P. Rendell, J. C. Burant, S. S. Iyengar, 
 J. Tomasi, M. Cossi, J. M. Millam, M. Klene, C. Adamo, R. Cammi, 
 J. W. Ochterski, R. L. Martin, K. Morokuma, O. Farkas, 
 J. B. Foresman, and D. J. Fox, Gaussian, Inc., Wallingford CT, 2016.
 
 ******************************************
 Gaussian 16:  ES64L-G16RevA.03 25-Dec-2016
                21-Mar-2022 
 ******************************************
 %nprocshared=12
 Will use up to   12 processors via shared memory.
 %chk=checkpoint.chk
 %mem=12GB
 ----------------------------------------------------------------------
 # Opt=(Z-matrix, MaxStep=10) B3LYP/Def2TZVP geom=allcheckpoint guess=r
 ead Field=read NoSymm
 ----------------------------------------------------------------------
 1/8=10,10=7,18=40,26=3,29=7,38=1/1,3;
 2/12=2,15=1,29=3,40=1/2;
 3/5=44,7=101,11=2,14=-6,25=1,30=1,71=1,74=-5,116=-2/1,2,3;
 4/5=1/1;
 5/5=2,38=6/2;
 6/7=2,8=2,9=2,10=2,28=1/1;
 7/29=1,30=1/1,2,3,16;
 1/8=10,10=7,18=40,26=3/3(2);
 2/15=1,29=3/2;
 99//99;
 2/15=1,29=3/2;
 3/5=44,7=101,11=2,14=-2,25=1,30=1,71=1,74=-5/1,2,3;
 4/5=5,16=3,69=1/1;
 5/5=2,38=5/2;
 7/30=1/1,2,3,16;
 1/8=10,18=40,26=3/3(-5);
 2/15=1,29=3/2;
 6/7=2,8=2,9=2,10=2,19=2,28=1/1;
 99/9=1/99;
 Structure from the checkpoint file:  "checkpoint.chk"
 ------------------
 int_zmat_initalOpt
 ------------------
 Charge =  0 Multiplicity = 1
 Z-Matrix found in chk file.
 H
 C,1,R2
 C,2,R3,1,A3
 C,2,R4,1,A4,3,D4,0
 H,3,R5,2,A5,1,D5,0
 O,3,R6,2,A6,5,D6,0
 C,4,R7,2,A7,1,D7,0
 H,4,R8,2,A8,7,D8,0
 C,6,R9,3,A9,2,D9,0
 H,7,R10,4,A10,2,D10,0
 H,9,R11,6,A11,3,D11,0
 H,9,R12,6,A12,11,D12,0
      Variables:
 R2=1.07986025
 R3=1.34118826
 R4=1.45404532
 R5=1.08237195
 R6=1.35397056
 R7=1.3362557
 R8=1.08276817
 R9=1.4443003
 R10=1.0819808
 R11=1.08877586
 R12=1.1024645
 A3=119.79937941
 A4=121.55480504
 A5=124.38507734
 A6=123.29045924
 A7=119.21137363
 A8=119.29980908
 A9=115.26256204
 A10=122.69449919
 A11=105.36750145
 A12=107.52209588
 D4=171.15114075
 D5=3.1786537
 D6=174.48715314
 D7=173.51776741
 D8=175.38612574
 D9=23.51980453
 D10=174.92092142
 D11=-164.57969875
 D12=-115.1932916
 Recover connectivity data from disk.

 GradGradGradGradGradGradGradGradGradGradGradGradGradGradGradGradGradGrad
 Berny optimization.
 Initialization pass.
                       ----------------------------
                       !    Initial Parameters    !
                       ! (Angstroms and Degrees)  !
 ----------------------                            ----------------------
 !      Name          Value   Derivative information (Atomic Units)     !
 ------------------------------------------------------------------------
 !       R2          1.0799   estimate D2E/DX2                          !
 !       R3          1.3412   estimate D2E/DX2                          !
 !       R4          1.454    estimate D2E/DX2                          !
 !       R5          1.0824   estimate D2E/DX2                          !
 !       R6          1.354    estimate D2E/DX2                          !
 !       R7          1.3363   estimate D2E/DX2                          !
 !       R8          1.0828   estimate D2E/DX2                          !
 !       R9          1.4443   estimate D2E/DX2                          !
 !       R10         1.082    estimate D2E/DX2                          !
 !       R11         1.0888   estimate D2E/DX2                          !
 !       R12         1.1025   estimate D2E/DX2                          !
 !       A3        119.7994   estimate D2E/DX2                          !
 !       A4        121.5548   estimate D2E/DX2                          !
 !       A5        124.3851   estimate D2E/DX2                          !
 !       A6        123.2905   estimate D2E/DX2                          !
 !       A7        119.2114   estimate D2E/DX2                          !
 !       A8        119.2998   estimate D2E/DX2                          !
 !       A9        115.2626   estimate D2E/DX2                          !
 !       A10       122.6945   estimate D2E/DX2                          !
 !       A11       105.3675   estimate D2E/DX2                          !
 !       A12       107.5221   estimate D2E/DX2                          !
 !       D4        171.1511   estimate D2E/DX2                          !
 !       D5          3.1787   estimate D2E/DX2                          !
 !       D6        174.4872   estimate D2E/DX2                          !
 !       D7        173.5178   estimate D2E/DX2                          !
 !       D8        175.3861   estimate D2E/DX2                          !
 !       D9         23.5198   estimate D2E/DX2                          !
 !       D10       174.9209   estimate D2E/DX2                          !
 !       D11      -164.5797   estimate D2E/DX2                          !
 !       D12      -115.1933   estimate D2E/DX2                          !
 ------------------------------------------------------------------------
 Trust Radius=1.00D-01 FncErr=1.00D-07 GrdErr=1.00D-06 EigMax=2.50D+02 EigMin=1.00D-04
 Number of steps in this run=     40 maximum allowed number of steps=    100.
 GradGradGradGradGradGradGradGradGradGradGradGradGradGradGradGradGradGrad

 ---------------------------------------------------------------------------------------------------
                            Z-MATRIX (ANGSTROMS AND DEGREES)
   CD    Cent   Atom    N1       Length/X        N2       Alpha/Y        N3        Beta/Z          J
 ---------------------------------------------------------------------------------------------------
      1      1  H 
      2      2  C        1   1.079860(     1)
      3      3  C        2   1.341188(     2)      1  119.799(    12)
      4      4  C        2   1.454045(     3)      1  121.555(    13)      3  171.151(    22)      0
      5      5  H        3   1.082372(     4)      2  124.385(    14)      1    3.179(    23)      0
      6      6  O        3   1.353971(     5)      2  123.290(    15)      5  174.487(    24)      0
      7      7  C        4   1.336256(     6)      2  119.211(    16)      1  173.518(    25)      0
      8      8  H        4   1.082768(     7)      2  119.300(    17)      7  175.386(    26)      0
      9      9  C        6   1.444300(     8)      3  115.263(    18)      2   23.520(    27)      0
     10     10  H        7   1.081981(     9)      4  122.694(    19)      2  174.921(    28)      0
     11     11  H        9   1.088776(    10)      6  105.368(    20)      3 -164.580(    29)      0
     12     12  H        9   1.102464(    11)      6  107.522(    21)     11 -115.193(    30)      0
 ---------------------------------------------------------------------------------------------------
                         Z-Matrix orientation:                         
 ---------------------------------------------------------------------
 Center     Atomic      Atomic             Coordinates (Angstroms)
 Number     Number       Type             X           Y           Z
 ---------------------------------------------------------------------
      1          1           0        0.000000    0.000000    0.000000
      2          6           0        0.000000    0.000000    1.079860
      3          6           0        1.163844    0.000000    1.746383
      4          6           0       -1.224302    0.190601    1.840782
      5          1           0        2.137513    0.049530    1.276230
      6          8           0        1.246758    0.046095    3.097026
      7          6           0       -1.194425    0.052692    3.169567
      8          1           0       -2.121640    0.514215    1.328487
      9          6           0        0.078791   -0.426962    3.802769
     10          1           0       -2.050614    0.259337    3.797993
     11          1           0        0.194215   -0.068704    4.824416
     12          1           0        0.123555   -1.528415    3.817830
 ---------------------------------------------------------------------
                    Distance matrix (angstroms):
                    1          2          3          4          5
     1  H    0.000000
     2  C    1.079860   0.000000
     3  C    2.098663   1.341188   0.000000
     4  C    2.218947   1.454045   2.397600   0.000000
     5  H    2.490015   2.147085   1.082372   3.411807   0.000000
     6  O    3.338878   2.371812   1.353971   2.775819   2.027007
     7  C    3.387563   2.407551   2.754934   1.336256   3.832303
     8  H    2.555513   2.197177   3.351635   1.082768   4.284746
     9  C    3.827474   2.757306   2.363971   2.434919   3.293749
    10  H    4.324006   3.414751   3.822185   2.125604   4.893232
    11  H    4.828812   3.750218   3.227876   3.313834   4.047223
    12  H    4.114261   3.138119   2.776534   2.946261   3.606337
                    6          7          8          9         10
     6  O    0.000000
     7  C    2.442269   0.000000
     8  H    3.833141   2.112417   0.000000
     9  C    1.444300   1.500698   3.442352   0.000000
    10  H    3.377794   1.081981   2.483641   2.237275   0.000000
    11  H    2.026055   2.163696   4.233733   1.088776   2.490063
    12  H    2.064031   2.158058   3.925565   1.102464   2.814864
                   11         12
    11  H    0.000000
    12  H    1.774532   0.000000
 Symmetry turned off by external request.
 Stoichiometry    C5H6O
 Framework group  C1[X(C5H6O)]
 Deg. of freedom    30
 Full point group                 C1      NOp   1
 Rotational constants (GHZ):           5.5865185           5.3743142           2.8598125
 Standard basis: def2TZVP (5D, 7F)
 The following finite field(s) will be applied:
 An electric field of              0.0026 -0.0042 -0.0002
   222 basis functions,   354 primitive gaussians,   252 cartesian basis functions
    22 alpha electrons       22 beta electrons
       nuclear repulsion energy       223.6445210600 Hartrees.
 NAtoms=   12 NActive=   12 NUniq=   12 SFac= 1.00D+00 NAtFMM=   60 NAOKFM=F Big=F
 Integral buffers will be    131072 words long.
 Raffenetti 2 integral format.
 Two-electron integral symmetry is turned off.
 One-electron integrals computed using PRISM.
   1 Symmetry operations used in ECPInt.
 ECPInt:  NShTT=    4095 NPrTT=   12396 LenC2=    4075 LenP2D=   10420.
 LDataN:  DoStor=T MaxTD1= 6 Len=  172
 NBasis=   222 RedAO= T EigKep=  9.64D-05  NBF=   222
 NBsUse=   222 1.00D-06 EigRej= -1.00D+00 NBFU=   222
 The nuclear repulsion energy is now       223.6284561155 hartrees.
 Initial guess from the checkpoint file:  "checkpoint.chk"
 B after Tr=     0.000000   -0.000000    0.000000
         Rot=    1.000000    0.000000    0.000000    0.000000 Ang=   0.00 deg.
 Keep R1 ints in memory in canonical form, NReq=319363885.
 Requested convergence on RMS density matrix=1.00D-08 within 128 cycles.
 Requested convergence on MAX density matrix=1.00D-06.
 Requested convergence on             energy=1.00D-06.
 No special actions if energy rises.
 SCF Done:  E(RB3LYP) =  -269.423413067     A.U. after   10 cycles
            NFock= 10  Conv=0.86D-08     -V/T= 2.0050

 **********************************************************************

            Population analysis using the SCF density.

 **********************************************************************

 Alpha  occ. eigenvalues --  -19.16256 -10.23422 -10.23173 -10.17486 -10.16953
 Alpha  occ. eigenvalues --  -10.16697  -1.07176  -0.81193  -0.77504  -0.66499
 Alpha  occ. eigenvalues --   -0.62559  -0.53335  -0.51139  -0.48522  -0.46315
 Alpha  occ. eigenvalues --   -0.43678  -0.40866  -0.37769  -0.36119  -0.33018
 Alpha  occ. eigenvalues --   -0.30013  -0.21064
 Alpha virt. eigenvalues --   -0.03225   0.04407   0.05534   0.07588   0.07904
 Alpha virt. eigenvalues --    0.09457   0.09704   0.11055   0.13364   0.16161
 Alpha virt. eigenvalues --    0.17661   0.19455   0.21339   0.22379   0.22858
 Alpha virt. eigenvalues --    0.24569   0.25665   0.27340   0.28544   0.30185
 Alpha virt. eigenvalues --    0.30966   0.33298   0.34842   0.36231   0.37238
 Alpha virt. eigenvalues --    0.37916   0.38974   0.40945   0.41630   0.43496
 Alpha virt. eigenvalues --    0.43859   0.45324   0.46388   0.49338   0.51029
 Alpha virt. eigenvalues --    0.53167   0.55513   0.57796   0.60051   0.62918
 Alpha virt. eigenvalues --    0.65445   0.66475   0.68725   0.72559   0.73916
 Alpha virt. eigenvalues --    0.78234   0.81739   0.84731   0.85922   0.89454
 Alpha virt. eigenvalues --    0.90830   0.92858   0.95804   0.97487   0.99667
 Alpha virt. eigenvalues --    1.05445   1.07317   1.09058   1.11231   1.11903
 Alpha virt. eigenvalues --    1.15356   1.18166   1.20097   1.23690   1.26540
 Alpha virt. eigenvalues --    1.30217   1.33705   1.36624   1.40301   1.43174
 Alpha virt. eigenvalues --    1.44720   1.45425   1.48560   1.51406   1.52422
 Alpha virt. eigenvalues --    1.56180   1.59856   1.62985   1.65240   1.67507
 Alpha virt. eigenvalues --    1.70261   1.72249   1.74602   1.77951   1.80381
 Alpha virt. eigenvalues --    1.85586   1.87309   1.90571   1.91654   1.96728
 Alpha virt. eigenvalues --    2.00072   2.00806   2.05952   2.10748   2.12942
 Alpha virt. eigenvalues --    2.14756   2.17517   2.20738   2.23177   2.26958
 Alpha virt. eigenvalues --    2.27524   2.36960   2.38505   2.45490   2.45960
 Alpha virt. eigenvalues --    2.51046   2.52111   2.53249   2.57408   2.60090
 Alpha virt. eigenvalues --    2.62214   2.62281   2.65729   2.67999   2.70852
 Alpha virt. eigenvalues --    2.71430   2.73931   2.77098   2.78977   2.80717
 Alpha virt. eigenvalues --    2.83434   2.84097   2.87843   2.88878   2.91284
 Alpha virt. eigenvalues --    2.93896   2.97609   3.02343   3.02550   3.07492
 Alpha virt. eigenvalues --    3.08115   3.11240   3.13353   3.16142   3.16207
 Alpha virt. eigenvalues --    3.18990   3.19957   3.22720   3.24485   3.25340
 Alpha virt. eigenvalues --    3.29172   3.30130   3.33066   3.36547   3.38143
 Alpha virt. eigenvalues --    3.39958   3.41880   3.44984   3.45964   3.49041
 Alpha virt. eigenvalues --    3.54714   3.58887   3.63041   3.67869   3.69528
 Alpha virt. eigenvalues --    3.78408   3.84200   3.86914   3.91193   3.93956
 Alpha virt. eigenvalues --    3.97989   4.03379   4.04378   4.12691   4.17281
 Alpha virt. eigenvalues --    4.19976   4.25113   4.28972   4.36770   4.39909
 Alpha virt. eigenvalues --    4.45260   4.52676   4.57755   4.63834   4.66768
 Alpha virt. eigenvalues --    4.68153   4.79158   4.84281   4.91293   4.95167
 Alpha virt. eigenvalues --    5.12584   5.18186   5.36842   5.45391   5.75262
 Alpha virt. eigenvalues --    5.85224   5.90132   6.23302   6.32165   6.65702
 Alpha virt. eigenvalues --    6.76371   6.86496   7.15005   7.24843  22.06731
 Alpha virt. eigenvalues --   22.31963  22.42684  22.74577  22.92385  44.05030
          Condensed to atoms (all electrons):
               1          2          3          4          5          6
     1  H    0.554167   0.402758  -0.030194  -0.041228  -0.004185   0.005337
     2  C    0.402758   5.081009   0.591208   0.378722  -0.072602  -0.072897
     3  C   -0.030194   0.591208   4.754159  -0.055398   0.430847   0.329817
     4  C   -0.041228   0.378722  -0.055398   4.827951   0.006027  -0.016136
     5  H   -0.004185  -0.072602   0.430847   0.006027   0.568760  -0.040884
     6  O    0.005337  -0.072897   0.329817  -0.016136  -0.040884   7.913410
     7  C    0.005505  -0.067016  -0.032791   0.663288  -0.001009  -0.026926
     8  H   -0.004387  -0.047003   0.004080   0.416883  -0.000315  -0.000995
     9  C   -0.000421  -0.034500  -0.051542  -0.044112   0.004285   0.281113
    10  H   -0.000206   0.004809   0.002078  -0.030823   0.000162   0.003583
    11  H    0.000135   0.004385  -0.001217   0.002669  -0.000604  -0.029419
    12  H   -0.000335  -0.001956   0.036338  -0.010654   0.002295  -0.072016
               7          8          9         10         11         12
     1  H    0.005505  -0.004387  -0.000421  -0.000206   0.000135  -0.000335
     2  C   -0.067016  -0.047003  -0.034500   0.004809   0.004385  -0.001956
     3  C   -0.032791   0.004080  -0.051542   0.002078  -0.001217   0.036338
     4  C    0.663288   0.416883  -0.044112  -0.030823   0.002669  -0.010654
     5  H   -0.001009  -0.000315   0.004285   0.000162  -0.000604   0.002295
     6  O   -0.026926  -0.000995   0.281113   0.003583  -0.029419  -0.072016
     7  C    5.019594  -0.031724   0.363638   0.400981  -0.033394  -0.082037
     8  H   -0.031724   0.529995   0.007751  -0.007316  -0.000286  -0.000197
     9  C    0.363638   0.007751   4.682898  -0.039656   0.413744   0.371672
    10  H    0.400981  -0.007316  -0.039656   0.534405  -0.005346   0.007538
    11  H   -0.033394  -0.000286   0.413744  -0.005346   0.594935  -0.061428
    12  H   -0.082037  -0.000197   0.371672   0.007538  -0.061428   0.761729
 Mulliken charges:
               1
     1  H    0.113054
     2  C   -0.166919
     3  C    0.022615
     4  C   -0.097187
     5  H    0.107222
     6  O   -0.273987
     7  C   -0.178107
     8  H    0.133513
     9  C    0.045129
    10  H    0.129791
    11  H    0.115825
    12  H    0.049048
 Sum of Mulliken charges =  -0.00000
 Mulliken charges with hydrogens summed into heavy atoms:
               1
     2  C   -0.053864
     3  C    0.129838
     4  C    0.036326
     6  O   -0.273987
     7  C   -0.048316
     9  C    0.210003
 Electronic spatial extent (au):  <R**2>=           1437.2454
 Charge=             -0.0000 electrons
 Dipole moment (field-independent basis, Debye):
    X=             -1.1317    Y=              0.2355    Z=             -0.0310  Tot=              1.1564
 Quadrupole moment (field-independent basis, Debye-Ang):
   XX=            -34.7705   YY=            -38.3457   ZZ=            -32.0565
   XY=             -0.9362   XZ=             -4.7381   YZ=             -0.4103
 Traceless Quadrupole moment (field-independent basis, Debye-Ang):
   XX=              0.2871   YY=             -3.2882   ZZ=              3.0011
   XY=             -0.9362   XZ=             -4.7381   YZ=             -0.4103
 Octapole moment (field-independent basis, Debye-Ang**2):
  XXX=             -1.6083  YYY=              4.0079  ZZZ=           -234.8949  XYY=              1.1432
  XXY=              4.5937  XXZ=            -90.5705  XZZ=            -18.3664  YZZ=             -0.8320
  YYZ=            -92.3915  XYZ=             -2.1527
 Hexadecapole moment (field-independent basis, Debye-Ang**3):
 XXXX=           -262.5912 YYYY=            -63.6542 ZZZZ=          -1412.0597 XXXY=              2.6725
 XXXZ=             -9.0812 YYYX=              8.9531 YYYZ=             23.9874 ZZZX=            -61.8341
 ZZZY=             20.6316 XXYY=            -60.2367 XXZZ=           -323.6442 YYZZ=           -285.0469
 XXYZ=             14.8988 YYXZ=              5.9036 ZZXY=             -3.5374
 N-N= 2.236284561155D+02 E-N=-1.075067871246D+03  KE= 2.680831007292D+02
   1 Symmetry operations used in ECPInt.
 ECPInt:  NShTT=    4095 NPrTT=   12396 LenC2=    4075 LenP2D=   10420.
 LDataN:  DoStor=T MaxTD1= 7 Len=  274
 Calling FoFJK, ICntrl=      2127 FMM=F ISym2X=0 I1Cent= 0 IOpClX= 0 NMat=1 NMatS=1 NMatT=0.
 -------------------------------------------------------------------
 Center     Atomic                   Forces (Hartrees/Bohr)
 Number     Number              X              Y              Z
 -------------------------------------------------------------------
      1        1          -0.000056853    0.000112037   -0.000039126
      2        6           0.000352063    0.000049791    0.000174830
      3        6          -0.000379638   -0.000558138   -0.000335328
      4        6          -0.000411658    0.000062246    0.000118788
      5        1           0.000075926    0.000277546   -0.000048730
      6        8           0.000444554   -0.000523385    0.000445546
      7        6          -0.000128909   -0.000477040   -0.000144332
      8        1           0.000134057    0.000146153    0.000101683
      9        6          -0.000162382    0.001095535   -0.000112363
     10        1           0.000097890    0.000204343   -0.000072181
     11        1          -0.000048344    0.000114297   -0.000020493
     12        1           0.000083293   -0.000503386   -0.000068294
 -------------------------------------------------------------------
 Cartesian Forces:  Max     0.001095535 RMS     0.000315187
 -----------------------------------------------------------------------------------------------
                       Internal Coordinate Forces (Hartree/Bohr or radian)
  Cent   Atom   N1       Length/X         N2         Alpha/Y        N3         Beta/Z          J
 -----------------------------------------------------------------------------------------------
      1  H 
      2  C        1   0.000039(     1)
      3  C        2  -0.000058(     2)      1  -0.000423(    12)
      4  C        2   0.000254(     3)      1  -0.000335(    13)      3  -0.000462(    22)     0
      5  H        3   0.000102(     4)      2  -0.000040(    14)      1  -0.001393(    23)     0
      6  O        3   0.000269(     5)      2   0.000103(    15)      5  -0.001854(    24)     0
      7  C        4  -0.000188(     6)      2   0.000003(    16)      1  -0.000949(    25)     0
      8  H        4  -0.000116(     7)      2   0.000038(    17)      7  -0.000339(    26)     0
      9  C        6  -0.000227(     8)      3  -0.000311(    18)      2  -0.001556(    27)     0
     10  H        7  -0.000080(     9)      4  -0.000115(    19)      2  -0.000373(    28)     0
     11  H        9   0.000013(    10)      6  -0.000025(    20)      3   0.000182(    29)     0
     12  H        9   0.000505(    11)      6  -0.000192(    21)     11  -0.000065(    30)     0
 -----------------------------------------------------------------------------------------------
 Internal  Forces:  Max     0.001853571 RMS     0.000582203

 GradGradGradGradGradGradGradGradGradGradGradGradGradGradGradGradGradGrad
 Berny optimization.
 Search for a local minimum.
 Step number   1 out of a maximum of   40
 All quantities printed in internal units (Hartrees-Bohrs-Radians)
 Second derivative matrix not updated -- first step.
 ITU=  0
     Eigenvalues ---    0.03260   0.04782   0.05015   0.07285   0.11491
     Eigenvalues ---    0.14991   0.16654   0.17346   0.18010   0.22037
     Eigenvalues ---    0.24445   0.27961   0.31037   0.33411   0.34954
     Eigenvalues ---    0.35662   0.35709   0.35756   0.36011   0.36730
     Eigenvalues ---    0.38389   0.40906   0.46323   0.54125   0.57330
     Eigenvalues ---    0.57649   0.59874   2.30327   3.90707  24.81198
 RFO step:  Lambda=-2.53344214D-05 EMin= 3.25979662D-02
 Linear search not attempted -- first point.
 Variable       Old X    -DE/DX   Delta X   Delta X   Delta X     New X
                                 (Linear)    (Quad)   (Total)
    R2        2.04064   0.00004   0.00000   0.00011   0.00011   2.04075
    R3        2.53448  -0.00006   0.00000  -0.00020  -0.00020   2.53428
    R4        2.74775   0.00025   0.00000   0.00035   0.00035   2.74810
    R5        2.04539   0.00010   0.00000   0.00029   0.00029   2.04567
    R6        2.55863   0.00027   0.00000   0.00066   0.00066   2.55929
    R7        2.52516  -0.00019   0.00000  -0.00055  -0.00055   2.52460
    R8        2.04614  -0.00012   0.00000  -0.00032  -0.00032   2.04581
    R9        2.72933  -0.00023   0.00000   0.00010   0.00010   2.72943
   R10        2.04465  -0.00008   0.00000  -0.00021  -0.00021   2.04443
   R11        2.05749   0.00001   0.00000   0.00006   0.00006   2.05754
   R12        2.08336   0.00051   0.00000   0.00152   0.00152   2.08487
    A3        2.09089  -0.00042   0.00000  -0.00062  -0.00062   2.09027
    A4        2.12153  -0.00033   0.00000  -0.00125  -0.00125   2.12028
    A5        2.17093  -0.00004   0.00000  -0.00069  -0.00069   2.17024
    A6        2.15182   0.00010   0.00000   0.00107   0.00107   2.15289
    A7        2.08063   0.00000   0.00000  -0.00031  -0.00031   2.08032
    A8        2.08217   0.00004   0.00000   0.00026   0.00026   2.08244
    A9        2.01171  -0.00031   0.00000   0.00041   0.00041   2.01212
   A10        2.14142  -0.00011   0.00000  -0.00058  -0.00058   2.14084
   A11        1.83901  -0.00003   0.00000  -0.00025  -0.00025   1.83876
   A12        1.87661  -0.00019   0.00000  -0.00118  -0.00118   1.87544
    D4        2.98715  -0.00046   0.00000  -0.01076  -0.01076   2.97639
    D5        0.05548  -0.00139   0.00000  -0.00325  -0.00325   0.05223
    D6        3.04538  -0.00185   0.00000  -0.00307  -0.00307   3.04230
    D7        3.02846  -0.00095   0.00000   0.01050   0.01050   3.03895
    D8        3.06107  -0.00034   0.00000  -0.00454  -0.00454   3.05652
    D9        0.41050  -0.00156   0.00000  -0.00858  -0.00858   0.40192
   D10        3.05295  -0.00037   0.00000  -0.00424  -0.00424   3.04871
   D11       -2.87246   0.00018   0.00000   0.00787   0.00787  -2.86458
   D12       -2.01050  -0.00007   0.00000   0.00024   0.00024  -2.01026
         Item               Value     Threshold  Converged?
 Maximum Force            0.001854     0.000450     NO 
 RMS     Force            0.000582     0.000300     NO 
 Maximum Displacement     0.010758     0.001800     NO 
 RMS     Displacement     0.003783     0.001200     NO 
 Predicted change in Energy=-1.267265D-05
 GradGradGradGradGradGradGradGradGradGradGradGradGradGradGradGradGradGrad

 ---------------------------------------------------------------------------------------------------
                            Z-MATRIX (ANGSTROMS AND DEGREES)
   CD    Cent   Atom    N1       Length/X        N2       Alpha/Y        N3        Beta/Z          J
 ---------------------------------------------------------------------------------------------------
      1      1  H 
      2      2  C        1   1.079918(     1)
      3      3  C        2   1.341082(     2)      1  119.764(    12)
      4      4  C        2   1.454231(     3)      1  121.483(    13)      3  170.535(    22)      0
      5      5  H        3   1.082523(     4)      2  124.345(    14)      1    2.993(    23)      0
      6      6  O        3   1.354319(     5)      2  123.352(    15)      5  174.311(    24)      0
      7      7  C        4   1.335963(     6)      2  119.194(    16)      1  174.119(    25)      0
      8      8  H        4   1.082597(     7)      2  119.315(    17)      7  175.126(    26)      0
      9      9  C        6   1.444351(     8)      3  115.286(    18)      2   23.028(    27)      0
     10     10  H        7   1.081868(     9)      4  122.661(    19)      2  174.678(    28)      0
     11     11  H        9   1.088806(    10)      6  105.353(    20)      3 -164.129(    29)      0
     12     12  H        9   1.103267(    11)      6  107.455(    21)     11 -115.179(    30)      0
 ---------------------------------------------------------------------------------------------------
                         Z-Matrix orientation:                         
 ---------------------------------------------------------------------
 Center     Atomic      Atomic             Coordinates (Angstroms)
 Number     Number       Type             X           Y           Z
 ---------------------------------------------------------------------
      1          1           0        0.000000    0.000000    0.000000
      2          6           0        0.000000    0.000000    1.079918
      3          6           0        1.164164    0.000000    1.745667
      4          6           0       -1.223272    0.203943    1.839391
      5          1           0        2.137427    0.046662    1.274033
      6          8           0        1.249534    0.053219    3.096245
      7          6           0       -1.193437    0.077825    3.169052
      8          1           0       -2.117904    0.531677    1.325348
      9          6           0        0.077317   -0.401759    3.806915
     10          1           0       -2.047281    0.298374    3.795747
     11          1           0        0.195058   -0.031524    4.824049
     12          1           0        0.114654   -1.504026    3.835390
 ---------------------------------------------------------------------
                    Distance matrix (angstroms):
                    1          2          3          4          5
     1  H    0.000000
     2  C    1.079918   0.000000
     3  C    2.098245   1.341082   0.000000
     4  C    2.218411   1.454231   2.397964   0.000000
     5  H    2.488762   2.146731   1.082523   3.411549   0.000000
     6  O    3.339296   2.372708   1.354319   2.777980   2.027030
     7  C    3.387217   2.407246   2.755062   1.335963   3.832326
     8  H    2.554358   2.197370   3.351316   1.082597   4.283190
     9  C    3.828837   2.757518   2.364612   2.435069   3.295546
    10  H    4.322971   3.414105   3.821680   2.124909   4.892257
    11  H    4.828094   3.749341   3.227475   3.312898   4.047410
    12  H    4.121341   3.141316   2.780379   2.948087   3.613418
                    6          7          8          9         10
     6  O    0.000000
     7  C    2.444180   0.000000
     8  H    3.834663   2.111840   0.000000
     9  C    1.444351   1.500562   3.442162   0.000000
    10  H    3.379112   1.081868   2.482396   2.237013   0.000000
    11  H    2.025935   2.163074   4.231772   1.088806   2.488839
    12  H    2.063807   2.158092   3.927940   1.103267   2.814992
                   11         12
    11  H    0.000000
    12  H    1.775436   0.000000
 Symmetry turned off by external request.
 Stoichiometry    C5H6O
 Framework group  C1[X(C5H6O)]
 Deg. of freedom    30
 Full point group                 C1      NOp   1
 Rotational constants (GHZ):           5.5871536           5.3710646           2.8579544
 Standard basis: def2TZVP (5D, 7F)
 The following finite field(s) will be applied:
 An electric field of              0.0026 -0.0042 -0.0002
   222 basis functions,   354 primitive gaussians,   252 cartesian basis functions
    22 alpha electrons       22 beta electrons
       nuclear repulsion energy       223.6161919932 Hartrees.
 NAtoms=   12 NActive=   12 NUniq=   12 SFac= 1.00D+00 NAtFMM=   60 NAOKFM=F Big=F
 Integral buffers will be    131072 words long.
 Raffenetti 2 integral format.
 Two-electron integral symmetry is turned off.
 One-electron integrals computed using PRISM.
   1 Symmetry operations used in ECPInt.
 ECPInt:  NShTT=    4095 NPrTT=   12396 LenC2=    4075 LenP2D=   10420.
 LDataN:  DoStor=T MaxTD1= 6 Len=  172
 NBasis=   222 RedAO= T EigKep=  9.67D-05  NBF=   222
 NBsUse=   222 1.00D-06 EigRej= -1.00D+00 NBFU=   222
 The nuclear repulsion energy is now       223.5958060690 hartrees.
 Initial guess from the checkpoint file:  "checkpoint.chk"
 B after Tr=    -0.000628   -0.015863    0.000193
         Rot=    0.999986    0.004246   -0.000216    0.003092 Ang=   0.60 deg.
 Keep R1 ints in memory in canonical form, NReq=319363885.
 Requested convergence on RMS density matrix=1.00D-08 within 128 cycles.
 Requested convergence on MAX density matrix=1.00D-06.
 Requested convergence on             energy=1.00D-06.
 No special actions if energy rises.
 SCF Done:  E(RB3LYP) =  -269.423431407     A.U. after    8 cycles
            NFock=  8  Conv=0.99D-08     -V/T= 2.0050
   1 Symmetry operations used in ECPInt.
 ECPInt:  NShTT=    4095 NPrTT=   12396 LenC2=    4075 LenP2D=   10420.
 LDataN:  DoStor=T MaxTD1= 7 Len=  274
 Calling FoFJK, ICntrl=      2127 FMM=F ISym2X=0 I1Cent= 0 IOpClX= 0 NMat=1 NMatS=1 NMatT=0.
 -------------------------------------------------------------------
 Center     Atomic                   Forces (Hartrees/Bohr)
 Number     Number              X              Y              Z
 -------------------------------------------------------------------
      1        1          -0.000015960   -0.000137684   -0.000018380
      2        6           0.000173268    0.000535117    0.000013241
      3        6          -0.000102437   -0.000442457   -0.000006811
      4        6          -0.000153032    0.000091677    0.000066744
      5        1          -0.000003736    0.000090709    0.000035799
      6        8           0.000176229   -0.000292559   -0.000197836
      7        6           0.000006788   -0.000181564   -0.000048086
      8        1           0.000026898    0.000014512   -0.000022929
      9        6          -0.000161761    0.000193729    0.000132356
     10        1           0.000056485    0.000134455    0.000022045
     11        1          -0.000060556    0.000015678   -0.000000777
     12        1           0.000057815   -0.000021613    0.000024634
 -------------------------------------------------------------------
 Cartesian Forces:  Max     0.000535117 RMS     0.000157416
 -----------------------------------------------------------------------------------------------
                       Internal Coordinate Forces (Hartree/Bohr or radian)
  Cent   Atom   N1       Length/X         N2         Alpha/Y        N3         Beta/Z          J
 -----------------------------------------------------------------------------------------------
      1  H 
      2  C        1   0.000018(     1)
      3  C        2  -0.000088(     2)      1   0.000107(    12)
      4  C        2   0.000070(     3)      1   0.000130(    13)      3  -0.000382(    22)     0
      5  H        3  -0.000015(     4)      2   0.000057(    14)      1  -0.000225(    23)     0
      6  O        3  -0.000045(     5)      2   0.000059(    15)      5  -0.000381(    24)     0
      7  C        4  -0.000020(     6)      2  -0.000230(    16)      1  -0.000091(    25)     0
      8  H        4  -0.000007(     7)      2  -0.000068(    17)      7  -0.000031(    26)     0
      9  C        6   0.000151(     8)      3   0.000187(    18)      2  -0.000421(    27)     0
     10  H        7  -0.000004(     9)      4   0.000031(    19)      2  -0.000252(    28)     0
     11  H        9  -0.000002(    10)      6   0.000095(    20)      3   0.000183(    29)     0
     12  H        9   0.000024(    11)      6  -0.000077(    21)     11   0.000099(    30)     0
 -----------------------------------------------------------------------------------------------
 Internal  Forces:  Max     0.000420645 RMS     0.000165072

 GradGradGradGradGradGradGradGradGradGradGradGradGradGradGradGradGradGrad
 Berny optimization.
 Search for a local minimum.
 Step number   2 out of a maximum of   40
 All quantities printed in internal units (Hartrees-Bohrs-Radians)
 Update second derivatives using D2CorN and points    1    2
 DE= -1.83D-05 DEPred=-1.27D-05 R= 1.45D+00
 TightC=F SS=  1.41D+00  RLast= 2.07D-02 DXNew= 1.6818D-01 6.2158D-02
 Trust test= 1.45D+00 RLast= 2.07D-02 DXMaxT set to 1.00D-01
 ITU=  1  0
     Eigenvalues ---    0.01635   0.04500   0.04985   0.06952   0.11354
     Eigenvalues ---    0.14976   0.16649   0.17338   0.18009   0.22043
     Eigenvalues ---    0.24444   0.27963   0.31021   0.33403   0.34954
     Eigenvalues ---    0.35661   0.35710   0.35756   0.36011   0.36713
     Eigenvalues ---    0.38353   0.40809   0.46308   0.54141   0.57329
     Eigenvalues ---    0.57650   0.59876   2.30345   3.90646  24.81197
 RFO step:  Lambda=-5.28480705D-06 EMin= 1.63474364D-02
 Quartic linear search produced a step of  0.82663.
 Variable       Old X    -DE/DX   Delta X   Delta X   Delta X     New X
                                 (Linear)    (Quad)   (Total)
    R2        2.04075   0.00002   0.00009   0.00002   0.00011   2.04086
    R3        2.53428  -0.00009  -0.00017  -0.00014  -0.00030   2.53398
    R4        2.74810   0.00007   0.00029   0.00020   0.00049   2.74859
    R5        2.04567  -0.00002   0.00024  -0.00032  -0.00008   2.04559
    R6        2.55929  -0.00004   0.00054  -0.00074  -0.00019   2.55910
    R7        2.52460  -0.00002  -0.00046   0.00039  -0.00007   2.52453
    R8        2.04581  -0.00001  -0.00027   0.00022  -0.00005   2.04576
    R9        2.72943   0.00015   0.00008   0.00077   0.00085   2.73028
   R10        2.04443  -0.00000  -0.00018   0.00016  -0.00002   2.04442
   R11        2.05754  -0.00000   0.00005  -0.00004   0.00001   2.05755
   R12        2.08487   0.00002   0.00125  -0.00107   0.00018   2.08505
    A3        2.09027   0.00011  -0.00051  -0.00027  -0.00078   2.08949
    A4        2.12028   0.00013  -0.00103   0.00023  -0.00080   2.11948
    A5        2.17024   0.00006  -0.00057   0.00038  -0.00020   2.17004
    A6        2.15289   0.00006   0.00088   0.00035   0.00123   2.15412
    A7        2.08032  -0.00023  -0.00026   0.00026   0.00001   2.08033
    A8        2.08244  -0.00007   0.00022  -0.00069  -0.00047   2.08197
    A9        2.01212   0.00019   0.00034   0.00188   0.00222   2.01434
   A10        2.14084   0.00003  -0.00048   0.00025  -0.00023   2.14061
   A11        1.83876   0.00009  -0.00021   0.00076   0.00055   1.83931
   A12        1.87544  -0.00008  -0.00097   0.00044  -0.00053   1.87491
    D4        2.97639  -0.00038  -0.00889  -0.00417  -0.01306   2.96333
    D5        0.05223  -0.00023  -0.00268  -0.00310  -0.00579   0.04644
    D6        3.04230  -0.00038  -0.00254   0.00238  -0.00016   3.04214
    D7        3.03895  -0.00009   0.00868   0.00521   0.01389   3.05284
    D8        3.05652  -0.00003  -0.00375  -0.00078  -0.00454   3.05199
    D9        0.40192  -0.00042  -0.00709  -0.00492  -0.01202   0.38990
   D10        3.04871  -0.00025  -0.00350  -0.00341  -0.00691   3.04179
   D11       -2.86458   0.00018   0.00651   0.00389   0.01040  -2.85419
   D12       -2.01026   0.00010   0.00020   0.00020   0.00040  -2.00986
         Item               Value     Threshold  Converged?
 Maximum Force            0.000421     0.000450     YES
 RMS     Force            0.000165     0.000300     YES
 Maximum Displacement     0.013889     0.001800     NO 
 RMS     Displacement     0.004925     0.001200     NO 
 Predicted change in Energy=-7.166020D-06
 GradGradGradGradGradGradGradGradGradGradGradGradGradGradGradGradGradGrad

 ---------------------------------------------------------------------------------------------------
                            Z-MATRIX (ANGSTROMS AND DEGREES)
   CD    Cent   Atom    N1       Length/X        N2       Alpha/Y        N3        Beta/Z          J
 ---------------------------------------------------------------------------------------------------
      1      1  H 
      2      2  C        1   1.079974(     1)
      3      3  C        2   1.340922(     2)      1  119.719(    12)
      4      4  C        2   1.454489(     3)      1  121.438(    13)      3  169.786(    22)      0
      5      5  H        3   1.082479(     4)      2  124.334(    14)      1    2.661(    23)      0
      6      6  O        3   1.354218(     5)      2  123.422(    15)      5  174.302(    24)      0
      7      7  C        4   1.335926(     6)      2  119.194(    16)      1  174.915(    25)      0
      8      8  H        4   1.082572(     7)      2  119.288(    17)      7  174.866(    26)      0
      9      9  C        6   1.444803(     8)      3  115.413(    18)      2   22.340(    27)      0
     10     10  H        7   1.081859(     9)      4  122.648(    19)      2  174.282(    28)      0
     11     11  H        9   1.088811(    10)      6  105.385(    20)      3 -163.533(    29)      0
     12     12  H        9   1.103363(    11)      6  107.424(    21)     11 -115.156(    30)      0
 ---------------------------------------------------------------------------------------------------
                         Z-Matrix orientation:                         
 ---------------------------------------------------------------------
 Center     Atomic      Atomic             Coordinates (Angstroms)
 Number     Number       Type             X           Y           Z
 ---------------------------------------------------------------------
      1          1           0        0.000000    0.000000    0.000000
      2          6           0        0.000000    0.000000    1.079974
      3          6           0        1.164547    0.000000    1.744731
      4          6           0       -1.221319    0.220050    1.838590
      5          1           0        2.137433    0.041501    1.271940
      6          8           0        1.252800    0.059889    3.094742
      7          6           0       -1.190535    0.109471    3.169576
      8          1           0       -2.113276    0.550964    1.321995
      9          6           0        0.076105   -0.372791    3.812818
     10          1           0       -2.040435    0.348388    3.794882
     11          1           0        0.197437    0.011396    4.824345
     12          1           0        0.103288   -1.474890    3.858061
 ---------------------------------------------------------------------
                    Distance matrix (angstroms):
                    1          2          3          4          5
     1  H    0.000000
     2  C    1.079974   0.000000
     3  C    2.097679   1.340922   0.000000
     4  C    2.218210   1.454489   2.397830   0.000000
     5  H    2.487604   2.146438   1.082479   3.410892   0.000000
     6  O    3.339240   2.373265   1.354218   2.779358   2.026209
     7  C    3.387561   2.407445   2.754737   1.335926   3.831581
     8  H    2.552874   2.197287   3.350580   1.082572   4.281423
     9  C    3.831755   2.759203   2.366572   2.435641   3.297995
    10  H    4.322717   3.414012   3.820524   2.124736   4.890195
    11  H    4.828397   3.749590   3.227918   3.312271   4.047725
    12  H    4.131659   3.147020   2.787066   2.950537   3.622873
                    6          7          8          9         10
     6  O    0.000000
     7  C    2.444983   0.000000
     8  H    3.835916   2.111852   0.000000
     9  C    1.444803   1.500238   3.442515   0.000000
    10  H    3.379175   1.081859   2.482240   2.236104   0.000000
    11  H    2.026738   2.162024   4.230483   1.088811   2.486248
    12  H    2.063875   2.158284   3.930505   1.103363   2.814940
                   11         12
    11  H    0.000000
    12  H    1.775280   0.000000
 Symmetry turned off by external request.
 Stoichiometry    C5H6O
 Framework group  C1[X(C5H6O)]
 Deg. of freedom    30
 Full point group                 C1      NOp   1
 Rotational constants (GHZ):           5.5841246           5.3712035           2.8559199
 Standard basis: def2TZVP (5D, 7F)
 The following finite field(s) will be applied:
 An electric field of              0.0026 -0.0042 -0.0002
   222 basis functions,   354 primitive gaussians,   252 cartesian basis functions
    22 alpha electrons       22 beta electrons
       nuclear repulsion energy       223.5870870861 Hartrees.
 NAtoms=   12 NActive=   12 NUniq=   12 SFac= 1.00D+00 NAtFMM=   60 NAOKFM=F Big=F
 Integral buffers will be    131072 words long.
 Raffenetti 2 integral format.
 Two-electron integral symmetry is turned off.
 One-electron integrals computed using PRISM.
   1 Symmetry operations used in ECPInt.
 ECPInt:  NShTT=    4095 NPrTT=   12396 LenC2=    4075 LenP2D=   10419.
 LDataN:  DoStor=T MaxTD1= 6 Len=  172
 NBasis=   222 RedAO= T EigKep=  9.71D-05  NBF=   222
 NBsUse=   222 1.00D-06 EigRej= -1.00D+00 NBFU=   222
 The nuclear repulsion energy is now       223.5617381363 hartrees.
 Initial guess from the checkpoint file:  "checkpoint.chk"
 B after Tr=    -0.001945   -0.019041    0.001297
         Rot=    0.999979    0.005032   -0.000462    0.004098 Ang=   0.75 deg.
 Keep R1 ints in memory in canonical form, NReq=319363885.
 Requested convergence on RMS density matrix=1.00D-08 within 128 cycles.
 Requested convergence on MAX density matrix=1.00D-06.
 Requested convergence on             energy=1.00D-06.
 No special actions if energy rises.
 SCF Done:  E(RB3LYP) =  -269.423438951     A.U. after    8 cycles
            NFock=  8  Conv=0.78D-08     -V/T= 2.0050
   1 Symmetry operations used in ECPInt.
 ECPInt:  NShTT=    4095 NPrTT=   12396 LenC2=    4075 LenP2D=   10419.
 LDataN:  DoStor=T MaxTD1= 7 Len=  274
 Calling FoFJK, ICntrl=      2127 FMM=F ISym2X=0 I1Cent= 0 IOpClX= 0 NMat=1 NMatS=1 NMatT=0.
 -------------------------------------------------------------------
 Center     Atomic                   Forces (Hartrees/Bohr)
 Number     Number              X              Y              Z
 -------------------------------------------------------------------
      1        1          -0.000030275   -0.000415638    0.000009993
      2        6          -0.000060207    0.001070563   -0.000097998
      3        6           0.000047183   -0.000630576    0.000314528
      4        6           0.000061020    0.000117843    0.000084522
      5        1           0.000020003   -0.000012866    0.000018590
      6        8           0.000090725   -0.000078508   -0.000318678
      7        6          -0.000121118   -0.000027265   -0.000085882
      8        1          -0.000009235   -0.000035884   -0.000013615
      9        6          -0.000077016   -0.000079204    0.000094573
     10        1          -0.000010123    0.000000167   -0.000005511
     11        1           0.000038065    0.000001489    0.000009785
     12        1           0.000050978    0.000089879   -0.000010307
 -------------------------------------------------------------------
 Cartesian Forces:  Max     0.001070563 RMS     0.000237549
 -----------------------------------------------------------------------------------------------
                       Internal Coordinate Forces (Hartree/Bohr or radian)
  Cent   Atom   N1       Length/X         N2         Alpha/Y        N3         Beta/Z          J
 -----------------------------------------------------------------------------------------------
      1  H 
      2  C        1  -0.000010(     1)
      3  C        2   0.000201(     2)      1  -0.000523(    12)
      4  C        2   0.000064(     3)      1  -0.000521(    13)      3  -0.000052(    22)     0
      5  H        3   0.000009(     4)      2   0.000053(    14)      1   0.000060(    23)     0
      6  O        3  -0.000220(     5)      2   0.000599(    15)      5   0.000081(    24)     0
      7  C        4  -0.000092(     6)      2   0.000319(    16)      1  -0.000067(    25)     0
      8  H        4   0.000003(     7)      2  -0.000015(    17)      7   0.000069(    26)     0
      9  C        6   0.000033(     8)      3   0.000307(    18)      2   0.000074(    27)     0
     10  H        7   0.000005(     9)      4  -0.000020(    19)      2   0.000006(    28)     0
     11  H        9   0.000014(    10)      6  -0.000065(    20)      3   0.000004(    29)     0
     12  H        9  -0.000089(    11)      6  -0.000103(    21)     11   0.000042(    30)     0
 -----------------------------------------------------------------------------------------------
 Internal  Forces:  Max     0.000599409 RMS     0.000204822

 GradGradGradGradGradGradGradGradGradGradGradGradGradGradGradGradGradGrad
 Berny optimization.
 Search for a local minimum.
 Step number   3 out of a maximum of   40
 All quantities printed in internal units (Hartrees-Bohrs-Radians)
 Update second derivatives using D2CorN and points    1    2    3
 DE= -7.54D-06 DEPred=-7.17D-06 R= 1.05D+00
 TightC=F SS=  1.41D+00  RLast= 2.70D-02 DXNew= 1.6818D-01 8.0934D-02
 Trust test= 1.05D+00 RLast= 2.70D-02 DXMaxT set to 1.00D-01
 ITU=  1  1  0
     Eigenvalues ---    0.01688   0.04519   0.04999   0.06885   0.11313
     Eigenvalues ---    0.14961   0.16651   0.17338   0.18008   0.22046
     Eigenvalues ---    0.24444   0.27962   0.31014   0.33412   0.34954
     Eigenvalues ---    0.35662   0.35710   0.35756   0.36011   0.36708
     Eigenvalues ---    0.38331   0.40782   0.46310   0.54151   0.57332
     Eigenvalues ---    0.57650   0.59877   2.30347   3.90625  24.81201
 RFO step:  Lambda=-5.48686346D-07 EMin= 1.68836778D-02
 Quartic linear search produced a step of  0.03504.
 Variable       Old X    -DE/DX   Delta X   Delta X   Delta X     New X
                                 (Linear)    (Quad)   (Total)
    R2        2.04086  -0.00001   0.00000  -0.00003  -0.00003   2.04083
    R3        2.53398   0.00020  -0.00001   0.00017   0.00016   2.53413
    R4        2.74859   0.00006   0.00002  -0.00001   0.00001   2.74860
    R5        2.04559   0.00001  -0.00000   0.00003   0.00003   2.04562
    R6        2.55910  -0.00022  -0.00001  -0.00052  -0.00053   2.55857
    R7        2.52453  -0.00009  -0.00000  -0.00007  -0.00008   2.52446
    R8        2.04576   0.00000  -0.00000   0.00001   0.00001   2.04577
    R9        2.73028   0.00003   0.00003   0.00023   0.00026   2.73054
   R10        2.04442   0.00000  -0.00000   0.00001   0.00001   2.04443
   R11        2.05755   0.00001   0.00000   0.00004   0.00004   2.05760
   R12        2.08505  -0.00009   0.00001  -0.00028  -0.00027   2.08478
    A3        2.08949  -0.00052  -0.00003   0.00002  -0.00001   2.08948
    A4        2.11948  -0.00052  -0.00003   0.00004   0.00002   2.11950
    A5        2.17004   0.00005  -0.00001   0.00010   0.00009   2.17013
    A6        2.15412   0.00060   0.00004   0.00019   0.00023   2.15435
    A7        2.08033   0.00032   0.00000   0.00015   0.00015   2.08047
    A8        2.08197  -0.00001  -0.00002  -0.00009  -0.00011   2.08186
    A9        2.01434   0.00031   0.00008   0.00020   0.00028   2.01462
   A10        2.14061  -0.00002  -0.00001  -0.00004  -0.00005   2.14056
   A11        1.83931  -0.00006   0.00002  -0.00019  -0.00017   1.83915
   A12        1.87491  -0.00010  -0.00002  -0.00059  -0.00061   1.87430
    D4        2.96333  -0.00005  -0.00046  -0.00017  -0.00063   2.96270
    D5        0.04644   0.00006  -0.00020  -0.00036  -0.00056   0.04588
    D6        3.04214   0.00008  -0.00001   0.00065   0.00065   3.04278
    D7        3.05284  -0.00007   0.00049  -0.00027   0.00021   3.05306
    D8        3.05199   0.00007  -0.00016   0.00092   0.00076   3.05275
    D9        0.38990   0.00007  -0.00042  -0.00076  -0.00118   0.38872
   D10        3.04179   0.00001  -0.00024   0.00049   0.00025   3.04205
   D11       -2.85419   0.00000   0.00036   0.00058   0.00094  -2.85324
   D12       -2.00986   0.00004   0.00001   0.00038   0.00040  -2.00946
         Item               Value     Threshold  Converged?
 Maximum Force            0.000599     0.000450     NO 
 RMS     Force            0.000205     0.000300     YES
 Maximum Displacement     0.001178     0.001800     YES
 RMS     Displacement     0.000420     0.001200     YES
 Predicted change in Energy=-2.756936D-07
 GradGradGradGradGradGradGradGradGradGradGradGradGradGradGradGradGradGrad

 ---------------------------------------------------------------------------------------------------
                            Z-MATRIX (ANGSTROMS AND DEGREES)
   CD    Cent   Atom    N1       Length/X        N2       Alpha/Y        N3        Beta/Z          J
 ---------------------------------------------------------------------------------------------------
      1      1  H 
      2      2  C        1   1.079960(     1)
      3      3  C        2   1.341004(     2)      1  119.719(    12)
      4      4  C        2   1.454495(     3)      1  121.438(    13)      3  169.750(    22)      0
      5      5  H        3   1.082493(     4)      2  124.339(    14)      1    2.629(    23)      0
      6      6  O        3   1.353939(     5)      2  123.435(    15)      5  174.339(    24)      0
      7      7  C        4   1.335885(     6)      2  119.202(    16)      1  174.927(    25)      0
      8      8  H        4   1.082576(     7)      2  119.282(    17)      7  174.910(    26)      0
      9      9  C        6   1.444939(     8)      3  115.429(    18)      2   22.272(    27)      0
     10     10  H        7   1.081866(     9)      4  122.645(    19)      2  174.296(    28)      0
     11     11  H        9   1.088833(    10)      6  105.375(    20)      3 -163.479(    29)      0
     12     12  H        9   1.103219(    11)      6  107.389(    21)     11 -115.134(    30)      0
 ---------------------------------------------------------------------------------------------------
                         Z-Matrix orientation:                         
 ---------------------------------------------------------------------
 Center     Atomic      Atomic             Coordinates (Angstroms)
 Number     Number       Type             X           Y           Z
 ---------------------------------------------------------------------
      1          1           0        0.000000    0.000000    0.000000
      2          6           0        0.000000    0.000000    1.079960
      3          6           0        1.164623    0.000000    1.744751
      4          6           0       -1.221172    0.220819    1.838599
      5          1           0        2.137572    0.040995    1.272014
      6          8           0        1.253172    0.059774    3.094468
      7          6           0       -1.190572    0.110506    3.169570
      8          1           0       -2.113119    0.551422    1.321779
      9          6           0        0.076191   -0.371523    3.813179
     10          1           0       -2.040511    0.349802    3.794691
     11          1           0        0.198114    0.013540    4.824327
     12          1           0        0.103418   -1.473438    3.859384
 ---------------------------------------------------------------------
                    Distance matrix (angstroms):
                    1          2          3          4          5
     1  H    0.000000
     2  C    1.079960   0.000000
     3  C    2.097737   1.341004   0.000000
     4  C    2.218213   1.454495   2.397829   0.000000
     5  H    2.487753   2.146574   1.082493   3.410941   0.000000
     6  O    3.339123   2.373237   1.353939   2.779483   2.025797
     7  C    3.387602   2.407518   2.754862   1.335885   3.831722
     8  H    2.552731   2.197229   3.350606   1.082576   4.281517
     9  C    3.831993   2.759406   2.366667   2.435773   3.298027
    10  H    4.322699   3.414061   3.820667   2.124676   4.890362
    11  H    4.828412   3.749629   3.227710   3.312388   4.047366
    12  H    4.132380   3.147525   2.787266   2.951037   3.622951
                    6          7          8          9         10
     6  O    0.000000
     7  C    2.445425   0.000000
     8  H    3.836152   2.111831   0.000000
     9  C    1.444939   1.500424   3.442671   0.000000
    10  H    3.379760   1.081866   2.482180   2.236309   0.000000
    11  H    2.026745   2.162423   4.230716   1.088833   2.486899
    12  H    2.063437   2.158503   3.930971   1.103219   2.815106
                   11         12
    11  H    0.000000
    12  H    1.775158   0.000000
 Symmetry turned off by external request.
 Stoichiometry    C5H6O
 Framework group  C1[X(C5H6O)]
 Deg. of freedom    30
 Full point group                 C1      NOp   1
 Rotational constants (GHZ):           5.5842512           5.3705736           2.8555674
 Standard basis: def2TZVP (5D, 7F)
 The following finite field(s) will be applied:
 An electric field of              0.0026 -0.0042 -0.0002
   222 basis functions,   354 primitive gaussians,   252 cartesian basis functions
    22 alpha electrons       22 beta electrons
       nuclear repulsion energy       223.5828649231 Hartrees.
 NAtoms=   12 NActive=   12 NUniq=   12 SFac= 1.00D+00 NAtFMM=   60 NAOKFM=F Big=F
 Integral buffers will be    131072 words long.
 Raffenetti 2 integral format.
 Two-electron integral symmetry is turned off.
 One-electron integrals computed using PRISM.
   1 Symmetry operations used in ECPInt.
 ECPInt:  NShTT=    4095 NPrTT=   12396 LenC2=    4075 LenP2D=   10419.
 LDataN:  DoStor=T MaxTD1= 6 Len=  172
 NBasis=   222 RedAO= T EigKep=  9.71D-05  NBF=   222
 NBsUse=   222 1.00D-06 EigRej= -1.00D+00 NBFU=   222
 The nuclear repulsion energy is now       223.5573633750 hartrees.
 Initial guess from the checkpoint file:  "checkpoint.chk"
 B after Tr=    -0.000093   -0.000923    0.000042
         Rot=    1.000000    0.000202   -0.000036    0.000170 Ang=   0.03 deg.
 Keep R1 ints in memory in canonical form, NReq=319363885.
 Requested convergence on RMS density matrix=1.00D-08 within 128 cycles.
 Requested convergence on MAX density matrix=1.00D-06.
 Requested convergence on             energy=1.00D-06.
 No special actions if energy rises.
 SCF Done:  E(RB3LYP) =  -269.423439309     A.U. after    7 cycles
            NFock=  7  Conv=0.32D-08     -V/T= 2.0050
   1 Symmetry operations used in ECPInt.
 ECPInt:  NShTT=    4095 NPrTT=   12396 LenC2=    4075 LenP2D=   10419.
 LDataN:  DoStor=T MaxTD1= 7 Len=  274
 Calling FoFJK, ICntrl=      2127 FMM=F ISym2X=0 I1Cent= 0 IOpClX= 0 NMat=1 NMatS=1 NMatT=0.
 -------------------------------------------------------------------
 Center     Atomic                   Forces (Hartrees/Bohr)
 Number     Number              X              Y              Z
 -------------------------------------------------------------------
      1        1          -0.000031041   -0.000418936    0.000004846
      2        6           0.000017151    0.001129798   -0.000045552
      3        6           0.000013140   -0.000690093    0.000139151
      4        6           0.000043784    0.000045072    0.000029595
      5        1           0.000004592   -0.000007483   -0.000012591
      6        8           0.000037658   -0.000001616   -0.000155479
      7        6          -0.000014692   -0.000013360   -0.000009517
      8        1          -0.000008812   -0.000021944   -0.000002878
      9        6          -0.000066245   -0.000039945    0.000048783
     10        1           0.000005168   -0.000002981    0.000003056
     11        1           0.000001165    0.000007564   -0.000005798
     12        1          -0.000001868    0.000013922    0.000006384
 -------------------------------------------------------------------
 Cartesian Forces:  Max     0.001129798 RMS     0.000235202
 -----------------------------------------------------------------------------------------------
                       Internal Coordinate Forces (Hartree/Bohr or radian)
  Cent   Atom   N1       Length/X         N2         Alpha/Y        N3         Beta/Z          J
 -----------------------------------------------------------------------------------------------
      1  H 
      2  C        1  -0.000005(     1)
      3  C        2   0.000000(     2)      1   0.000075(    12)
      4  C        2  -0.000010(     3)      1   0.000077(    13)      3   0.000016(    22)     0
      5  H        3   0.000009(     4)      2  -0.000019(    14)      1  -0.000029(    23)     0
      6  O        3  -0.000109(     5)      2  -0.000034(    15)      5  -0.000016(    24)     0
      7  C        4  -0.000005(     6)      2   0.000002(    16)      1   0.000000(    25)     0
      8  H        4   0.000002(     7)      2   0.000004(    17)      7   0.000042(    26)     0
      9  C        6   0.000085(     8)      3   0.000038(    18)      2  -0.000018(    27)     0
     10  H        7  -0.000003(     9)      4   0.000012(    19)      2   0.000002(    28)     0
     11  H        9  -0.000003(    10)      6  -0.000012(    20)      3   0.000025(    29)     0
     12  H        9  -0.000014(    11)      6   0.000010(    21)     11   0.000010(    30)     0
 -----------------------------------------------------------------------------------------------
 Internal  Forces:  Max     0.000108581 RMS     0.000035887

 GradGradGradGradGradGradGradGradGradGradGradGradGradGradGradGradGradGrad
 Berny optimization.
 Search for a local minimum.
 Step number   4 out of a maximum of   40
 All quantities printed in internal units (Hartrees-Bohrs-Radians)
 Update second derivatives using D2CorN and points    1    2    3    4
 DE= -3.58D-07 DEPred=-2.76D-07 R= 1.30D+00
 Trust test= 1.30D+00 RLast= 2.30D-03 DXMaxT set to 1.00D-01
 ITU=  0  1  1  0
     Eigenvalues ---    0.01209   0.04175   0.04811   0.06548   0.11461
     Eigenvalues ---    0.14882   0.16631   0.17220   0.17803   0.22017
     Eigenvalues ---    0.24455   0.28017   0.31051   0.33341   0.34956
     Eigenvalues ---    0.35661   0.35707   0.35757   0.36009   0.36706
     Eigenvalues ---    0.38180   0.40779   0.46159   0.53339   0.57219
     Eigenvalues ---    0.57651   0.59850   2.30347   3.90621  24.81283
 RFO step:  Lambda=-1.15132785D-07 EMin= 1.20879122D-02
 Quartic linear search produced a step of  0.39427.
 Variable       Old X    -DE/DX   Delta X   Delta X   Delta X     New X
                                 (Linear)    (Quad)   (Total)
    R2        2.04083  -0.00000  -0.00001  -0.00001  -0.00002   2.04081
    R3        2.53413   0.00000   0.00006  -0.00003   0.00003   2.53416
    R4        2.74860  -0.00001   0.00000   0.00000   0.00001   2.74860
    R5        2.04562   0.00001   0.00001   0.00003   0.00004   2.04566
    R6        2.55857  -0.00011  -0.00021  -0.00017  -0.00037   2.55820
    R7        2.52446  -0.00001  -0.00003   0.00000  -0.00003   2.52443
    R8        2.04577   0.00000   0.00000   0.00000   0.00001   2.04578
    R9        2.73054   0.00008   0.00010   0.00028   0.00038   2.73092
   R10        2.04443  -0.00000   0.00001  -0.00002  -0.00001   2.04442
   R11        2.05760  -0.00000   0.00002  -0.00002  -0.00001   2.05759
   R12        2.08478  -0.00001  -0.00011   0.00002  -0.00008   2.08470
    A3        2.08948   0.00008  -0.00000   0.00003   0.00003   2.08951
    A4        2.11950   0.00008   0.00001   0.00002   0.00003   2.11953
    A5        2.17013  -0.00002   0.00004  -0.00016  -0.00013   2.17000
    A6        2.15435  -0.00003   0.00009   0.00005   0.00014   2.15450
    A7        2.08047   0.00000   0.00006   0.00015   0.00021   2.08068
    A8        2.08186   0.00000  -0.00004  -0.00004  -0.00009   2.08177
    A9        2.01462   0.00004   0.00011   0.00028   0.00039   2.01501
   A10        2.14056   0.00001  -0.00002   0.00006   0.00004   2.14059
   A11        1.83915  -0.00001  -0.00007  -0.00002  -0.00008   1.83906
   A12        1.87430   0.00001  -0.00024   0.00026   0.00002   1.87432
    D4        2.96270   0.00002  -0.00025  -0.00048  -0.00073   2.96197
    D5        0.04588  -0.00003  -0.00022  -0.00053  -0.00076   0.04512
    D6        3.04278  -0.00002   0.00026   0.00034   0.00059   3.04338
    D7        3.05306   0.00000   0.00008   0.00052   0.00060   3.05366
    D8        3.05275   0.00004   0.00030   0.00031   0.00061   3.05336
    D9        0.38872  -0.00002  -0.00046  -0.00063  -0.00109   0.38763
   D10        3.04205   0.00000   0.00010  -0.00011  -0.00001   3.04204
   D11       -2.85324   0.00002   0.00037   0.00099   0.00136  -2.85189
   D12       -2.00946   0.00001   0.00016  -0.00014   0.00002  -2.00944
         Item               Value     Threshold  Converged?
 Maximum Force            0.000109     0.000450     YES
 RMS     Force            0.000036     0.000300     YES
 Maximum Displacement     0.001359     0.001800     YES
 RMS     Displacement     0.000439     0.001200     YES
 Predicted change in Energy=-8.484098D-08
 Optimization completed.
    -- Stationary point found.
                       ----------------------------
                       !   Optimized Parameters   !
                       ! (Angstroms and Degrees)  !
 ----------------------                            ----------------------
 !      Name          Value   Derivative information (Atomic Units)     !
 ------------------------------------------------------------------------
 !       R2          1.08     -DE/DX =    0.0                           !
 !       R3          1.341    -DE/DX =    0.0                           !
 !       R4          1.4545   -DE/DX =    0.0                           !
 !       R5          1.0825   -DE/DX =    0.0                           !
 !       R6          1.3539   -DE/DX =   -0.0001                        !
 !       R7          1.3359   -DE/DX =    0.0                           !
 !       R8          1.0826   -DE/DX =    0.0                           !
 !       R9          1.4449   -DE/DX =    0.0001                        !
 !       R10         1.0819   -DE/DX =    0.0                           !
 !       R11         1.0888   -DE/DX =    0.0                           !
 !       R12         1.1032   -DE/DX =    0.0                           !
 !       A3        119.7186   -DE/DX =    0.0001                        !
 !       A4        121.4384   -DE/DX =    0.0001                        !
 !       A5        124.3391   -DE/DX =    0.0                           !
 !       A6        123.4353   -DE/DX =    0.0                           !
 !       A7        119.2023   -DE/DX =    0.0                           !
 !       A8        119.2818   -DE/DX =    0.0                           !
 !       A9        115.4293   -DE/DX =    0.0                           !
 !       A10       122.6449   -DE/DX =    0.0                           !
 !       A11       105.3753   -DE/DX =    0.0                           !
 !       A12       107.3894   -DE/DX =    0.0                           !
 !       D4        169.7502   -DE/DX =    0.0                           !
 !       D5          2.6287   -DE/DX =    0.0                           !
 !       D6        174.3387   -DE/DX =    0.0                           !
 !       D7        174.9272   -DE/DX =    0.0                           !
 !       D8        174.9096   -DE/DX =    0.0                           !
 !       D9         22.2721   -DE/DX =    0.0                           !
 !       D10       174.2964   -DE/DX =    0.0                           !
 !       D11      -163.4789   -DE/DX =    0.0                           !
 !       D12      -115.1337   -DE/DX =    0.0                           !
 ------------------------------------------------------------------------
 GradGradGradGradGradGradGradGradGradGradGradGradGradGradGradGradGradGrad

 ---------------------------------------------------------------------------------------------------
                            Z-MATRIX (ANGSTROMS AND DEGREES)
   CD    Cent   Atom    N1       Length/X        N2       Alpha/Y        N3        Beta/Z          J
 ---------------------------------------------------------------------------------------------------
      1      1  H 
      2      2  C        1   1.079960(     1)
      3      3  C        2   1.341004(     2)      1  119.719(    12)
      4      4  C        2   1.454495(     3)      1  121.438(    13)      3  169.750(    22)      0
      5      5  H        3   1.082493(     4)      2  124.339(    14)      1    2.629(    23)      0
      6      6  O        3   1.353939(     5)      2  123.435(    15)      5  174.339(    24)      0
      7      7  C        4   1.335885(     6)      2  119.202(    16)      1  174.927(    25)      0
      8      8  H        4   1.082576(     7)      2  119.282(    17)      7  174.910(    26)      0
      9      9  C        6   1.444939(     8)      3  115.429(    18)      2   22.272(    27)      0
     10     10  H        7   1.081866(     9)      4  122.645(    19)      2  174.296(    28)      0
     11     11  H        9   1.088833(    10)      6  105.375(    20)      3 -163.479(    29)      0
     12     12  H        9   1.103219(    11)      6  107.389(    21)     11 -115.134(    30)      0
 ---------------------------------------------------------------------------------------------------
                         Z-Matrix orientation:                         
 ---------------------------------------------------------------------
 Center     Atomic      Atomic             Coordinates (Angstroms)
 Number     Number       Type             X           Y           Z
 ---------------------------------------------------------------------
      1          1           0        0.000000    0.000000    0.000000
      2          6           0        0.000000    0.000000    1.079960
      3          6           0        1.164623    0.000000    1.744751
      4          6           0       -1.221172    0.220819    1.838599
      5          1           0        2.137572    0.040995    1.272014
      6          8           0        1.253172    0.059774    3.094468
      7          6           0       -1.190572    0.110506    3.169570
      8          1           0       -2.113119    0.551422    1.321779
      9          6           0        0.076191   -0.371523    3.813179
     10          1           0       -2.040511    0.349802    3.794691
     11          1           0        0.198114    0.013540    4.824327
     12          1           0        0.103418   -1.473438    3.859384
 ---------------------------------------------------------------------
                    Distance matrix (angstroms):
                    1          2          3          4          5
     1  H    0.000000
     2  C    1.079960   0.000000
     3  C    2.097737   1.341004   0.000000
     4  C    2.218213   1.454495   2.397829   0.000000
     5  H    2.487753   2.146574   1.082493   3.410941   0.000000
     6  O    3.339123   2.373237   1.353939   2.779483   2.025797
     7  C    3.387602   2.407518   2.754862   1.335885   3.831722
     8  H    2.552731   2.197229   3.350606   1.082576   4.281517
     9  C    3.831993   2.759406   2.366667   2.435773   3.298027
    10  H    4.322699   3.414061   3.820667   2.124676   4.890362
    11  H    4.828412   3.749629   3.227710   3.312388   4.047366
    12  H    4.132380   3.147525   2.787266   2.951037   3.622951
                    6          7          8          9         10
     6  O    0.000000
     7  C    2.445425   0.000000
     8  H    3.836152   2.111831   0.000000
     9  C    1.444939   1.500424   3.442671   0.000000
    10  H    3.379760   1.081866   2.482180   2.236309   0.000000
    11  H    2.026745   2.162423   4.230716   1.088833   2.486899
    12  H    2.063437   2.158503   3.930971   1.103219   2.815106
                   11         12
    11  H    0.000000
    12  H    1.775158   0.000000
 Symmetry turned off by external request.
 Stoichiometry    C5H6O
 Framework group  C1[X(C5H6O)]
 Deg. of freedom    30
 Full point group                 C1      NOp   1
 Rotational constants (GHZ):           5.5842512           5.3705736           2.8555674

 **********************************************************************

            Population analysis using the SCF density.

 **********************************************************************

 Alpha  occ. eigenvalues --  -19.16272 -10.23397 -10.23183 -10.17457 -10.16908
 Alpha  occ. eigenvalues --  -10.16666  -1.07155  -0.81174  -0.77493  -0.66485
 Alpha  occ. eigenvalues --   -0.62553  -0.53308  -0.51059  -0.48506  -0.46303
 Alpha  occ. eigenvalues --   -0.43654  -0.40849  -0.37704  -0.36082  -0.33044
 Alpha  occ. eigenvalues --   -0.30047  -0.21010
 Alpha virt. eigenvalues --   -0.03181   0.04441   0.05551   0.07613   0.07908
 Alpha virt. eigenvalues --    0.09464   0.09738   0.11108   0.13424   0.16216
 Alpha virt. eigenvalues --    0.17695   0.19456   0.21306   0.22372   0.22917
 Alpha virt. eigenvalues --    0.24629   0.25727   0.27324   0.28483   0.30133
 Alpha virt. eigenvalues --    0.30956   0.33269   0.34890   0.36233   0.37254
 Alpha virt. eigenvalues --    0.37993   0.39098   0.40980   0.41624   0.43562
 Alpha virt. eigenvalues --    0.44001   0.45364   0.46450   0.49332   0.50919
 Alpha virt. eigenvalues --    0.53187   0.55457   0.57878   0.59911   0.62952
 Alpha virt. eigenvalues --    0.65352   0.66592   0.68785   0.72288   0.73977
 Alpha virt. eigenvalues --    0.78073   0.81923   0.84943   0.85682   0.89398
 Alpha virt. eigenvalues --    0.90886   0.92988   0.95834   0.97402   0.99640
 Alpha virt. eigenvalues --    1.05469   1.07354   1.09037   1.11248   1.12109
 Alpha virt. eigenvalues --    1.15471   1.18170   1.20121   1.23679   1.26547
 Alpha virt. eigenvalues --    1.30303   1.33529   1.36736   1.40307   1.43093
 Alpha virt. eigenvalues --    1.44830   1.45496   1.48635   1.51524   1.52575
 Alpha virt. eigenvalues --    1.56116   1.59878   1.62990   1.65252   1.67582
 Alpha virt. eigenvalues --    1.70161   1.72390   1.74644   1.77954   1.80259
 Alpha virt. eigenvalues --    1.85647   1.87275   1.90532   1.91669   1.96906
 Alpha virt. eigenvalues --    1.99967   2.00936   2.05931   2.10689   2.12819
 Alpha virt. eigenvalues --    2.15069   2.17559   2.20894   2.23229   2.26757
 Alpha virt. eigenvalues --    2.27488   2.36816   2.38297   2.45592   2.45941
 Alpha virt. eigenvalues --    2.51128   2.52094   2.53075   2.57544   2.59936
 Alpha virt. eigenvalues --    2.61831   2.62222   2.65711   2.67978   2.70928
 Alpha virt. eigenvalues --    2.71886   2.74126   2.77218   2.79115   2.80818
 Alpha virt. eigenvalues --    2.83417   2.84287   2.87978   2.88733   2.90989
 Alpha virt. eigenvalues --    2.93878   2.97698   3.02182   3.02275   3.07577
 Alpha virt. eigenvalues --    3.08143   3.11428   3.13254   3.15962   3.16378
 Alpha virt. eigenvalues --    3.18931   3.19994   3.22893   3.24586   3.25332
 Alpha virt. eigenvalues --    3.29128   3.29910   3.32940   3.36331   3.38550
 Alpha virt. eigenvalues --    3.40228   3.41347   3.45005   3.46072   3.48847
 Alpha virt. eigenvalues --    3.54716   3.58832   3.62700   3.67743   3.69660
 Alpha virt. eigenvalues --    3.78408   3.83967   3.87657   3.91210   3.94038
 Alpha virt. eigenvalues --    3.97749   4.03425   4.04588   4.12544   4.17283
 Alpha virt. eigenvalues --    4.20140   4.25194   4.28965   4.36764   4.39988
 Alpha virt. eigenvalues --    4.45375   4.52717   4.58124   4.63621   4.66714
 Alpha virt. eigenvalues --    4.68062   4.79212   4.84238   4.91268   4.95019
 Alpha virt. eigenvalues --    5.12685   5.18092   5.36492   5.45246   5.75014
 Alpha virt. eigenvalues --    5.85211   5.90018   6.23357   6.32394   6.65549
 Alpha virt. eigenvalues --    6.76383   6.86500   7.14935   7.25044  22.06612
 Alpha virt. eigenvalues --   22.31867  22.42659  22.74687  22.92451  44.04854
          Condensed to atoms (all electrons):
               1          2          3          4          5          6
     1  H    0.554349   0.402996  -0.030319  -0.041431  -0.004267   0.005347
     2  C    0.402996   5.085200   0.589462   0.376508  -0.072079  -0.072277
     3  C   -0.030319   0.589462   4.753677  -0.054263   0.430486   0.330061
     4  C   -0.041431   0.376508  -0.054263   4.829148   0.006027  -0.016342
     5  H   -0.004267  -0.072079   0.430486   0.006027   0.568275  -0.040716
     6  O    0.005347  -0.072277   0.330061  -0.016342  -0.040716   7.913134
     7  C    0.005482  -0.066866  -0.032889   0.663329  -0.001028  -0.026521
     8  H   -0.004434  -0.047261   0.004101   0.416934  -0.000316  -0.000991
     9  C   -0.000368  -0.033988  -0.050508  -0.044638   0.004494   0.280171
    10  H   -0.000207   0.004829   0.001990  -0.030783   0.000160   0.003548
    11  H    0.000137   0.004379  -0.001179   0.002581  -0.000586  -0.029494
    12  H   -0.000358  -0.002440   0.035353  -0.009731   0.002108  -0.071972
               7          8          9         10         11         12
     1  H    0.005482  -0.004434  -0.000368  -0.000207   0.000137  -0.000358
     2  C   -0.066866  -0.047261  -0.033988   0.004829   0.004379  -0.002440
     3  C   -0.032889   0.004101  -0.050508   0.001990  -0.001179   0.035353
     4  C    0.663329   0.416934  -0.044638  -0.030783   0.002581  -0.009731
     5  H   -0.001028  -0.000316   0.004494   0.000160  -0.000586   0.002108
     6  O   -0.026521  -0.000991   0.280171   0.003548  -0.029494  -0.071972
     7  C    5.019808  -0.031644   0.363625   0.401033  -0.033292  -0.082657
     8  H   -0.031644   0.530081   0.007739  -0.007307  -0.000289  -0.000172
     9  C    0.363625   0.007739   4.681983  -0.039334   0.413781   0.373825
    10  H    0.401033  -0.007307  -0.039334   0.533432  -0.005381   0.007436
    11  H   -0.033292  -0.000289   0.413781  -0.005381   0.594722  -0.061496
    12  H   -0.082657  -0.000172   0.373825   0.007436  -0.061496   0.759994
 Mulliken charges:
               1
     1  H    0.113074
     2  C   -0.168462
     3  C    0.024027
     4  C   -0.097340
     5  H    0.107441
     6  O   -0.273946
     7  C   -0.178380
     8  H    0.133558
     9  C    0.043218
    10  H    0.130583
    11  H    0.116117
    12  H    0.050111
 Sum of Mulliken charges =  -0.00000
 Mulliken charges with hydrogens summed into heavy atoms:
               1
     2  C   -0.055388
     3  C    0.131467
     4  C    0.036218
     6  O   -0.273946
     7  C   -0.047797
     9  C    0.209445
 Electronic spatial extent (au):  <R**2>=           1438.2222
 Charge=             -0.0000 electrons
 Dipole moment (field-independent basis, Debye):
    X=             -1.1311    Y=              0.2960    Z=             -0.0144  Tot=              1.1693
 Quadrupole moment (field-independent basis, Debye-Ang):
   XX=            -34.8279   YY=            -38.3197   ZZ=            -31.9479
   XY=             -1.0339   XZ=             -4.7341   YZ=             -0.1425
 Traceless Quadrupole moment (field-independent basis, Debye-Ang):
   XX=              0.2039   YY=             -3.2879   ZZ=              3.0839
   XY=             -1.0339   XZ=             -4.7341   YZ=             -0.1425
 Octapole moment (field-independent basis, Debye-Ang**2):
  XXX=             -1.6964  YYY=              0.8835  ZZZ=           -234.5071  XYY=              0.9295
  XXY=              3.7038  XXZ=            -90.8211  XZZ=            -18.3714  YZZ=             -0.6023
  YYZ=            -92.3316  XYZ=             -2.4491
 Hexadecapole moment (field-independent basis, Debye-Ang**3):
 XXXX=           -262.8338 YYYY=            -62.7293 ZZZZ=          -1412.9596 XXXY=              3.7958
 XXXZ=             -9.2744 YYYX=             10.8561 YYYZ=             14.0243 ZZZX=            -61.8663
 ZZZY=             16.6842 XXYY=            -59.6458 XXZZ=           -324.7182 YYZZ=           -284.7645
 XXYZ=             12.1928 YYXZ=              5.3310 ZZXY=             -4.0692
 N-N= 2.235573633750D+02 E-N=-1.074933560192D+03  KE= 2.680816962598D+02
 1\1\GINC-BHC0014\FOpt\RB3LYP\def2TZVP\C5H6O1\DHANAWAY\21-Mar-2022\1\\#
  Opt=(Z-matrix, MaxStep=10) B3LYP/Def2TZVP geom=allcheckpoint guess=re
 ad Field=read NoSymm\\int_zmat_initalOpt\\0,1\H\C,1,R2\C,2,R3,1,A3\C,2
 ,R4,1,A4,3,D4,0\H,3,R5,2,A5,1,D5,0\O,3,R6,2,A6,5,D6,0\C,4,R7,2,A7,1,D7
 ,0\H,4,R8,2,A8,7,D8,0\C,6,R9,3,A9,2,D9,0\H,7,R10,4,A10,2,D10,0\H,9,R11
 ,6,A11,3,D11,0\H,9,R12,6,A12,11,D12,0\\R2=1.07996014\R3=1.34100407\R4=
 1.4544948\R5=1.082493\R6=1.35393902\R7=1.33588529\R8=1.08257564\R9=1.4
 4493929\R10=1.08186649\R11=1.08883327\R12=1.10321922\A3=119.71860991\A
 4=121.43843606\A5=124.33912259\A6=123.43525691\A7=119.20232654\A8=119.
 28176252\A9=115.42931468\A10=122.64493072\A11=105.37529358\A12=107.389
 40314\D4=169.75023792\D5=2.62874022\D6=174.33870009\D7=174.92722758\D8
 =174.90960671\D9=22.27211459\D10=174.29641203\D11=-163.47889433\D12=-1
 15.13365991\\Version=ES64L-G16RevA.03\HF=-269.4234393\RMSD=3.194e-09\R
 MSF=2.352e-04\Dipole=-0.4450085,0.1164486,-0.005653\Quadrupole=0.15163
 ,-2.4444606,2.2928306,-0.7686855,-3.519657,-0.1059256\PG=C01 [X(C5H6O1
 )]\\@


 MICHAEL FARADAY, ASKED BY A POLITICIAN WHAT GOOD
 HIS ELECTRICAL DISCOVERIES WERE, REPLIED 
 "AT PRESENT I DO NOT KNOW, BUT ONE DAY YOU WILL BE
 ABLE TO TAX THEM."
 Job cpu time:       0 days  0 hours 14 minutes 58.3 seconds.
 Elapsed time:       0 days  0 hours  1 minutes 31.9 seconds.
 File lengths (MBytes):  RWF=     24 Int=      0 D2E=      0 Chk=     32 Scr=      1
 Normal termination of Gaussian 16 at Mon Mar 21 07:58:36 2022.
