 Entering Gaussian System, Link 0=g16
 Input=ts_zmat_field_N25.gjf
 Output=ts_zmat_field_N25.out
 Initial command:
 /software/gaussian/g16-a03/l1.exe "/local_scratch/9923005/Gau-8018.inp" -scrdir="/local_scratch/9923005/"
 Entering Link 1 = /software/gaussian/g16-a03/l1.exe PID=      8019.
  
 Copyright (c) 1988,1990,1992,1993,1995,1998,2003,2009,2016,
            Gaussian, Inc.  All Rights Reserved.
  
 This is part of the Gaussian(R) 16 program.  It is based on
 the Gaussian(R) 09 system (copyright 2009, Gaussian, Inc.),
 the Gaussian(R) 03 system (copyright 2003, Gaussian, Inc.),
 the Gaussian(R) 98 system (copyright 1998, Gaussian, Inc.),
 the Gaussian(R) 94 system (copyright 1995, Gaussian, Inc.),
 the Gaussian 92(TM) system (copyright 1992, Gaussian, Inc.),
 the Gaussian 90(TM) system (copyright 1990, Gaussian, Inc.),
 the Gaussian 88(TM) system (copyright 1988, Gaussian, Inc.),
 the Gaussian 86(TM) system (copyright 1986, Carnegie Mellon
 University), and the Gaussian 82(TM) system (copyright 1983,
 Carnegie Mellon University). Gaussian is a federally registered
 trademark of Gaussian, Inc.
  
 This software contains proprietary and confidential information,
 including trade secrets, belonging to Gaussian, Inc.
  
 This software is provided under written license and may be
 used, copied, transmitted, or stored only in accord with that
 written license.
  
 The following legend is applicable only to US Government
 contracts under FAR:
  
                    RESTRICTED RIGHTS LEGEND
  
 Use, reproduction and disclosure by the US Government is
 subject to restrictions as set forth in subparagraphs (a)
 and (c) of the Commercial Computer Software - Restricted
 Rights clause in FAR 52.227-19.
  
 Gaussian, Inc.
 340 Quinnipiac St., Bldg. 40, Wallingford CT 06492
  
  
 ---------------------------------------------------------------
 Warning -- This program may not be used in any manner that
 competes with the business of Gaussian, Inc. or will provide
 assistance to any competitor of Gaussian, Inc.  The licensee
 of this program is prohibited from giving any competitor of
 Gaussian, Inc. access to this program.  By using this program,
 the user acknowledges that Gaussian, Inc. is engaged in the
 business of creating and licensing software in the field of
 computational chemistry and represents and warrants to the
 licensee that it is not a competitor of Gaussian, Inc. and that
 it will not use this program in any manner prohibited above.
 ---------------------------------------------------------------
  

 Cite this work as:
 Gaussian 16, Revision A.03,
 M. J. Frisch, G. W. Trucks, H. B. Schlegel, G. E. Scuseria, 
 M. A. Robb, J. R. Cheeseman, G. Scalmani, V. Barone, 
 G. A. Petersson, H. Nakatsuji, X. Li, M. Caricato, A. V. Marenich, 
 J. Bloino, B. G. Janesko, R. Gomperts, B. Mennucci, H. P. Hratchian, 
 J. V. Ortiz, A. F. Izmaylov, J. L. Sonnenberg, D. Williams-Young, 
 F. Ding, F. Lipparini, F. Egidi, J. Goings, B. Peng, A. Petrone, 
 T. Henderson, D. Ranasinghe, V. G. Zakrzewski, J. Gao, N. Rega, 
 G. Zheng, W. Liang, M. Hada, M. Ehara, K. Toyota, R. Fukuda, 
 J. Hasegawa, M. Ishida, T. Nakajima, Y. Honda, O. Kitao, H. Nakai, 
 T. Vreven, K. Throssell, J. A. Montgomery, Jr., J. E. Peralta, 
 F. Ogliaro, M. J. Bearpark, J. J. Heyd, E. N. Brothers, K. N. Kudin, 
 V. N. Staroverov, T. A. Keith, R. Kobayashi, J. Normand, 
 K. Raghavachari, A. P. Rendell, J. C. Burant, S. S. Iyengar, 
 J. Tomasi, M. Cossi, J. M. Millam, M. Klene, C. Adamo, R. Cammi, 
 J. W. Ochterski, R. L. Martin, K. Morokuma, O. Farkas, 
 J. B. Foresman, and D. J. Fox, Gaussian, Inc., Wallingford CT, 2016.
 
 ******************************************
 Gaussian 16:  ES64L-G16RevA.03 25-Dec-2016
                21-Mar-2022 
 ******************************************
 %nprocshared=12
 Will use up to   12 processors via shared memory.
 %chk=checkpoint.chk
 %mem=12GB
 ----------------------------------------------------------------------
 # Opt=(TS, CalcFC, noeigentest, Z-matrix, MaxStep=10) Field=read NoSym
 m B3LYP/Def2TZVP
 ----------------------------------------------------------------------
 1/5=1,8=10,10=4,11=1,18=40,26=3,38=1/1,3;
 2/12=2,15=1,17=6,18=5,29=3,40=1/2;
 3/5=44,7=101,11=2,14=-6,25=1,30=1,71=2,74=-5,140=1/1,2,3;
 4//1;
 5/5=2,38=5/2;
 8/6=4,10=90,11=11/1;
 11/6=1,8=1,9=11,15=111,16=1,31=1/1,2,10;
 10/6=1,13=1,31=1/2;
 6/7=2,8=2,9=2,10=2,28=1/1;
 7/10=1,18=20,25=1,30=1/1,2,3,16;
 1/5=1,8=10,10=4,11=1,18=40,26=3/3(2);
 2/15=1,29=3/2;
 99//99;
 2/15=1,29=3/2;
 3/5=44,7=101,11=2,14=-2,25=1,30=1,71=1,74=-5/1,2,3;
 4/5=5,16=3,69=1/1;
 5/5=2,38=5/2;
 7/30=1/1,2,3,16;
 1/5=1,8=10,11=1,18=40,26=3/3(-5);
 2/15=1,29=3/2;
 6/7=2,8=2,9=2,10=2,19=2,28=1/1;
 99/9=1/99;
 -----------------
 ts_zmat_initalOpt
 -----------------
 Symbolic Z-matrix:
 Charge =  0 Multiplicity = 1
 H
 C                    1    R2
 C                    2    R3       1    A3
 C                    2    R4       1    A4       3    D4       0
 H                    3    R5       2    A5       1    D5       0
 O                    3    R6       2    A6       5    D6       0
 C                    4    R7       2    A7       1    D7       0
 H                    4    R8       2    A8       7    D8       0
 C                    7    R9       4    A9       2    D9       0
 H                    7    R10      4    A10      9    D10      0
 H                    9    R11      7    A11      4    D11      0
 H                    9    R12      7    A12      11   D12      0
       Variables:
  R2                    1.08157                  
  R3                    1.41318                  
  R4                    1.39888                  
  R5                    1.09689                  
  R6                    1.25677                  
  R7                    1.38897                  
  R8                    1.08604                  
  R9                    1.39155                  
  R10                   1.08301                  
  R11                   1.08254                  
  R12                   1.08113                  
  A3                  116.39101                  
  A4                  119.66859                  
  A5                  115.63488                  
  A6                  128.07093                  
  A7                  120.8886                   
  A8                  118.16898                  
  A9                  117.32015                  
  A10                 120.74978                  
  A11                 120.84504                  
  A12                 118.50256                  
  D4                  154.83104                  
  D5                   12.05147                  
  D6                  171.43426                  
  D7                 -176.82555                  
  D8                  168.94192                  
  D9                  -21.18962                  
  D10                 169.69548                  
  D11                 163.18628                  
  D12                 152.61335                  
 

 GradGradGradGradGradGradGradGradGradGradGradGradGradGradGradGradGradGrad
 Berny optimization.
 Initialization pass.
                       ----------------------------
                       !    Initial Parameters    !
                       ! (Angstroms and Degrees)  !
 ----------------------                            ----------------------
 !      Name          Value   Derivative information (Atomic Units)     !
 ------------------------------------------------------------------------
 !       R2          1.0816   calculate D2E/DX2 analytically            !
 !       R3          1.4132   calculate D2E/DX2 analytically            !
 !       R4          1.3989   calculate D2E/DX2 analytically            !
 !       R5          1.0969   calculate D2E/DX2 analytically            !
 !       R6          1.2568   calculate D2E/DX2 analytically            !
 !       R7          1.389    calculate D2E/DX2 analytically            !
 !       R8          1.086    calculate D2E/DX2 analytically            !
 !       R9          1.3915   calculate D2E/DX2 analytically            !
 !       R10         1.083    calculate D2E/DX2 analytically            !
 !       R11         1.0825   calculate D2E/DX2 analytically            !
 !       R12         1.0811   calculate D2E/DX2 analytically            !
 !       A3        116.391    calculate D2E/DX2 analytically            !
 !       A4        119.6686   calculate D2E/DX2 analytically            !
 !       A5        115.6349   calculate D2E/DX2 analytically            !
 !       A6        128.0709   calculate D2E/DX2 analytically            !
 !       A7        120.8886   calculate D2E/DX2 analytically            !
 !       A8        118.169    calculate D2E/DX2 analytically            !
 !       A9        117.3201   calculate D2E/DX2 analytically            !
 !       A10       120.7498   calculate D2E/DX2 analytically            !
 !       A11       120.845    calculate D2E/DX2 analytically            !
 !       A12       118.5026   calculate D2E/DX2 analytically            !
 !       D4        154.831    calculate D2E/DX2 analytically            !
 !       D5         12.0515   calculate D2E/DX2 analytically            !
 !       D6        171.4343   calculate D2E/DX2 analytically            !
 !       D7       -176.8255   calculate D2E/DX2 analytically            !
 !       D8        168.9419   calculate D2E/DX2 analytically            !
 !       D9        -21.1896   calculate D2E/DX2 analytically            !
 !       D10       169.6955   calculate D2E/DX2 analytically            !
 !       D11       163.1863   calculate D2E/DX2 analytically            !
 !       D12       152.6134   calculate D2E/DX2 analytically            !
 ------------------------------------------------------------------------
 Trust Radius=1.00D-01 FncErr=1.00D-07 GrdErr=1.00D-06 EigMax=2.50D+02 EigMin=1.00D-04
 Number of steps in this run=     40 maximum allowed number of steps=    100.
 Search for a saddle point of order  1.
 GradGradGradGradGradGradGradGradGradGradGradGradGradGradGradGradGradGrad

 ---------------------------------------------------------------------------------------------------
                            Z-MATRIX (ANGSTROMS AND DEGREES)
   CD    Cent   Atom    N1       Length/X        N2       Alpha/Y        N3        Beta/Z          J
 ---------------------------------------------------------------------------------------------------
      1      1  H 
      2      2  C        1   1.081565(     1)
      3      3  C        2   1.413178(     2)      1  116.391(    12)
      4      4  C        2   1.398883(     3)      1  119.669(    13)      3  154.831(    22)      0
      5      5  H        3   1.096888(     4)      2  115.635(    14)      1   12.051(    23)      0
      6      6  O        3   1.256770(     5)      2  128.071(    15)      5  171.434(    24)      0
      7      7  C        4   1.388974(     6)      2  120.889(    16)      1 -176.826(    25)      0
      8      8  H        4   1.086045(     7)      2  118.169(    17)      7  168.942(    26)      0
      9      9  C        7   1.391548(     8)      4  117.320(    18)      2  -21.190(    27)      0
     10     10  H        7   1.083006(     9)      4  120.750(    19)      9  169.695(    28)      0
     11     11  H        9   1.082539(    10)      7  120.845(    20)      4  163.186(    29)      0
     12     12  H        9   1.081125(    11)      7  118.503(    21)     11  152.613(    30)      0
 ---------------------------------------------------------------------------------------------------
                         Z-Matrix orientation:                         
 ---------------------------------------------------------------------
 Center     Atomic      Atomic             Coordinates (Angstroms)
 Number     Number       Type             X           Y           Z
 ---------------------------------------------------------------------
      1          1           0        0.000000    0.000000    0.000000
      2          6           0        0.000000    0.000000    1.081565
      3          6           0        1.265899    0.000000    1.709715
      4          6           0       -1.100092    0.516936    1.773988
      5          1           0        2.120875    0.206477    1.054318
      6          8           0        1.521138   -0.060155    2.938823
      7          6           0       -1.099605    0.589638    3.161057
      8          1           0       -1.872284    1.024887    1.203725
      9          6           0       -0.221465   -0.246257    3.844106
     10          1           0       -1.632443    1.380580    3.674278
     11          1           0        0.028407   -0.060530    4.880909
     12          1           0       -0.140505   -1.277346    3.529251
 ---------------------------------------------------------------------
                    Distance matrix (angstroms):
                    1          2          3          4          5
     1  H    0.000000
     2  C    1.081565   0.000000
     3  C    2.127352   1.413178   0.000000
     4  C    2.150455   1.398883   2.422656   0.000000
     5  H    2.377463   2.131076   1.096888   3.314956   0.000000
     6  O    3.309707   2.401434   1.256770   2.925871   1.995529
     7  C    3.398395   2.425096   2.837195   1.388974   3.867383
     8  H    2.450468   2.137934   3.339851   1.086045   4.078901
     9  C    3.858347   2.782323   2.613144   2.374835   3.670756
    10  H    4.251022   3.360511   3.763761   2.154155   4.725474
    11  H    4.881367   3.799932   3.404632   3.355583   4.369498
    12  H    3.755924   2.764511   2.630645   2.687229   3.666178
                    6          7          8          9         10
     6  O    0.000000
     7  C    2.709227   0.000000
     8  H    3.962725   2.148866   0.000000
     9  C    1.972521   1.391548   3.363424   0.000000
    10  H    3.544247   1.083006   2.507523   2.160162   0.000000
    11  H    2.449479   2.157085   4.279303   1.082539   2.508223
    12  H    2.142713   2.130978   3.702351   1.081125   3.051472
                   11         12
    11  H    0.000000
    12  H    1.826514   0.000000
 Symmetry turned off by external request.
 Stoichiometry    C5H6O
 Framework group  C1[X(C5H6O)]
 Deg. of freedom    30
 Full point group                 C1      NOp   1
 Rotational constants (GHZ):           5.5367278           4.6725769           2.7070362
 Standard basis: def2TZVP (5D, 7F)
 The following finite field(s) will be applied:
 An electric field of              0.0020  0.0010  0.0011
   222 basis functions,   354 primitive gaussians,   252 cartesian basis functions
    22 alpha electrons       22 beta electrons
       nuclear repulsion energy       217.8751587702 Hartrees.
 NAtoms=   12 NActive=   12 NUniq=   12 SFac= 1.00D+00 NAtFMM=   60 NAOKFM=F Big=F
 Integral buffers will be    131072 words long.
 Raffenetti 2 integral format.
 Two-electron integral symmetry is turned off.
 One-electron integrals computed using PRISM.
   1 Symmetry operations used in ECPInt.
 ECPInt:  NShTT=    4095 NPrTT=   12396 LenC2=    4075 LenP2D=   10363.
 LDataN:  DoStor=T MaxTD1= 6 Len=  172
 NBasis=   222 RedAO= T EigKep=  1.17D-04  NBF=   222
 NBsUse=   222 1.00D-06 EigRej= -1.00D+00 NBFU=   222
 The nuclear repulsion energy is now       218.1334931411 hartrees.
 ExpMin= 9.52D-02 ExpMax= 2.70D+04 ExpMxC= 9.22D+02 IAcc=3 IRadAn=         5 AccDes= 0.00D+00
 Harris functional with IExCor=  402 and IRadAn=       5 diagonalized for initial guess.
 HarFok:  IExCor=  402 AccDes= 0.00D+00 IRadAn=         5 IDoV= 1 UseB2=F ITyADJ=14
 ICtDFT=  3500011 ScaDFX=  1.000000  1.000000  1.000000  1.000000
 FoFCou: FMM=F IPFlag=           0 FMFlag=      100000 FMFlg1=           0
         NFxFlg=           0 DoJE=T BraDBF=F KetDBF=T FulRan=T
         wScrn=  0.000000 ICntrl=       500 IOpCl=  0 I1Cent=   200000004 NGrid=           0
         NMat0=    1 NMatS0=      1 NMatT0=    0 NMatD0=    1 NMtDS0=    0 NMtDT0=    0
 Symmetry not used in FoFCou.
 Keep R1 ints in memory in canonical form, NReq=319363861.
 Requested convergence on RMS density matrix=1.00D-08 within 128 cycles.
 Requested convergence on MAX density matrix=1.00D-06.
 Requested convergence on             energy=1.00D-06.
 No special actions if energy rises.
 Integral accuracy reduced to 1.0D-05 until final iterations.
 Initial convergence to 1.0D-05 achieved.  Increase integral accuracy.
 SCF Done:  E(RB3LYP) =  -269.392748279     A.U. after   14 cycles
            NFock= 14  Conv=0.97D-08     -V/T= 2.0050
 DoSCS=F DFT=T ScalE2(SS,OS)=  1.000000  1.000000
 Range of M.O.s used for correlation:     1   222
 NBasis=   222 NAE=    22 NBE=    22 NFC=     0 NFV=     0
 NROrb=    222 NOA=    22 NOB=    22 NVA=   200 NVB=   200

 **** Warning!!: The largest alpha MO coefficient is  0.19326549D+02

   1 Symmetry operations used in ECPInt.
 ECPInt:  NShTT=    4095 NPrTT=   12396 LenC2=    4075 LenP2D=   10363.
 LDataN:  DoStor=T MaxTD1= 7 Len=  274
 Symmetrizing basis deriv contribution to polar:
 IMax=3 JMax=2 DiffMx= 0.00D+00
 G2DrvN: will do    13 centers at a time, making    1 passes.
 Calling FoFCou, ICntrl=  3107 FMM=F I1Cent=   0 AccDes= 0.00D+00.
 End of G2Drv F.D. properties file   721 does not exist.
 End of G2Drv F.D. properties file   722 does not exist.
 End of G2Drv F.D. properties file   788 does not exist.
          IDoAtm=111111111111
          Differentiating once with respect to nuclear coordinates.
 Keep R1 ints in memory in canonical form, NReq=319333990.
          There are    39 degrees of freedom in the 1st order CPHF.  IDoFFX=6 NUNeed=     0.
     33 vectors produced by pass  0 Test12= 1.13D-14 2.56D-09 XBig12= 1.71D-01 2.58D-01.
 AX will form    33 AO Fock derivatives at one time.
     33 vectors produced by pass  1 Test12= 1.13D-14 2.56D-09 XBig12= 2.51D-02 3.93D-02.
     33 vectors produced by pass  2 Test12= 1.13D-14 2.56D-09 XBig12= 3.23D-04 3.97D-03.
     33 vectors produced by pass  3 Test12= 1.13D-14 2.56D-09 XBig12= 1.56D-06 1.66D-04.
     33 vectors produced by pass  4 Test12= 1.13D-14 2.56D-09 XBig12= 3.58D-09 8.17D-06.
     32 vectors produced by pass  5 Test12= 1.13D-14 2.56D-09 XBig12= 6.55D-12 3.26D-07.
      7 vectors produced by pass  6 Test12= 1.13D-14 2.56D-09 XBig12= 9.67D-15 1.33D-08.
 InvSVY:  IOpt=1 It=  1 EMax= 2.44D-15
 Solved reduced A of dimension   204 with    33 vectors.
 End of Minotr F.D. properties file   721 does not exist.
 End of Minotr F.D. properties file   722 does not exist.
 End of Minotr F.D. properties file   788 does not exist.

 **********************************************************************

            Population analysis using the SCF density.

 **********************************************************************

 Alpha  occ. eigenvalues --  -19.14810 -10.25825 -10.22594 -10.20130 -10.17642
 Alpha  occ. eigenvalues --  -10.17310  -1.05346  -0.83360  -0.76191  -0.67225
 Alpha  occ. eigenvalues --   -0.61312  -0.53246  -0.51497  -0.47583  -0.46523
 Alpha  occ. eigenvalues --   -0.44812  -0.40222  -0.38755  -0.38104  -0.33162
 Alpha  occ. eigenvalues --   -0.29442  -0.22052
 Alpha virt. eigenvalues --   -0.07406  -0.00476   0.04215   0.05001   0.06772
 Alpha virt. eigenvalues --    0.07397   0.09083   0.10869   0.12018   0.15103
 Alpha virt. eigenvalues --    0.17469   0.19348   0.19788   0.21289   0.21656
 Alpha virt. eigenvalues --    0.22181   0.24329   0.26850   0.27554   0.28612
 Alpha virt. eigenvalues --    0.29955   0.32824   0.33363   0.35649   0.37503
 Alpha virt. eigenvalues --    0.39409   0.40015   0.41805   0.42402   0.43302
 Alpha virt. eigenvalues --    0.43778   0.44700   0.45107   0.47483   0.49382
 Alpha virt. eigenvalues --    0.52037   0.53291   0.54465   0.56418   0.57849
 Alpha virt. eigenvalues --    0.61571   0.65349   0.68305   0.68968   0.75027
 Alpha virt. eigenvalues --    0.79526   0.81748   0.86377   0.86642   0.89116
 Alpha virt. eigenvalues --    0.92239   0.93487   0.95711   0.96443   0.97511
 Alpha virt. eigenvalues --    1.00720   1.03294   1.06681   1.10224   1.11621
 Alpha virt. eigenvalues --    1.14365   1.16778   1.19040   1.22877   1.23081
 Alpha virt. eigenvalues --    1.28519   1.30765   1.33808   1.38708   1.39413
 Alpha virt. eigenvalues --    1.42389   1.43442   1.45958   1.47227   1.50866
 Alpha virt. eigenvalues --    1.52963   1.57139   1.59503   1.62750   1.64458
 Alpha virt. eigenvalues --    1.66384   1.68103   1.73386   1.77339   1.78105
 Alpha virt. eigenvalues --    1.80576   1.82294   1.85186   1.87638   1.91289
 Alpha virt. eigenvalues --    1.94122   1.96582   2.04801   2.06392   2.09877
 Alpha virt. eigenvalues --    2.14502   2.15345   2.19201   2.20176   2.25637
 Alpha virt. eigenvalues --    2.27562   2.31797   2.37438   2.40405   2.43907
 Alpha virt. eigenvalues --    2.49216   2.51550   2.52556   2.53783   2.55534
 Alpha virt. eigenvalues --    2.58612   2.60976   2.62607   2.65053   2.67381
 Alpha virt. eigenvalues --    2.69909   2.70455   2.76389   2.77761   2.79343
 Alpha virt. eigenvalues --    2.81337   2.83317   2.83778   2.86031   2.89079
 Alpha virt. eigenvalues --    2.91157   2.94283   2.96271   2.97626   3.01371
 Alpha virt. eigenvalues --    3.02351   3.04029   3.06174   3.11563   3.12975
 Alpha virt. eigenvalues --    3.14548   3.17013   3.19201   3.22368   3.23241
 Alpha virt. eigenvalues --    3.24349   3.27210   3.28415   3.34847   3.35578
 Alpha virt. eigenvalues --    3.38834   3.41113   3.43157   3.45339   3.47982
 Alpha virt. eigenvalues --    3.49068   3.51920   3.57636   3.62592   3.62972
 Alpha virt. eigenvalues --    3.67796   3.84721   3.89447   3.91330   3.93718
 Alpha virt. eigenvalues --    3.96828   4.01908   4.03098   4.08029   4.11039
 Alpha virt. eigenvalues --    4.15675   4.17351   4.25372   4.30298   4.31932
 Alpha virt. eigenvalues --    4.38251   4.43590   4.47081   4.53865   4.64194
 Alpha virt. eigenvalues --    4.66506   4.72141   4.80818   4.85191   4.86285
 Alpha virt. eigenvalues --    5.04635   5.14173   5.24381   5.28271   5.51401
 Alpha virt. eigenvalues --    5.61235   5.99002   6.21336   6.33755   6.49754
 Alpha virt. eigenvalues --    6.71943   6.77823   6.96758   7.07664  22.05454
 Alpha virt. eigenvalues --   22.33273  22.50588  22.69483  22.86784  43.80269
          Condensed to atoms (all electrons):
               1          2          3          4          5          6
     1  H    0.563225   0.409999  -0.036684  -0.051174  -0.000269   0.005752
     2  C    0.409999   5.235573   0.415152   0.473207  -0.105909  -0.125828
     3  C   -0.036684   0.415152   4.663814  -0.019551   0.418145   0.507468
     4  C   -0.051174   0.473207  -0.019551   4.890625   0.002857  -0.009324
     5  H   -0.000269  -0.105909   0.418145   0.002857   0.621593  -0.035921
     6  O    0.005752  -0.125828   0.507468  -0.009324  -0.035921   7.975884
     7  C    0.009603  -0.033577  -0.051812   0.480705  -0.005354  -0.026438
     8  H   -0.007506  -0.047998   0.002307   0.416680  -0.000843  -0.000908
     9  C   -0.000053  -0.000653  -0.047839  -0.088726   0.003547   0.069477
    10  H   -0.000201   0.007012  -0.002559  -0.053034   0.000016   0.000721
    11  H    0.000017  -0.000588   0.001406   0.010455  -0.000024  -0.001838
    12  H    0.000041   0.030910  -0.011814  -0.033711  -0.001642  -0.050835
               7          8          9         10         11         12
     1  H    0.009603  -0.007506  -0.000053  -0.000201   0.000017   0.000041
     2  C   -0.033577  -0.047998  -0.000653   0.007012  -0.000588   0.030910
     3  C   -0.051812   0.002307  -0.047839  -0.002559   0.001406  -0.011814
     4  C    0.480705   0.416680  -0.088726  -0.053034   0.010455  -0.033711
     5  H   -0.005354  -0.000843   0.003547   0.000016  -0.000024  -0.001642
     6  O   -0.026438  -0.000908   0.069477   0.000721  -0.001838  -0.050835
     7  C    5.004005  -0.042654   0.511486   0.414584  -0.041922  -0.027750
     8  H   -0.042654   0.551293   0.010662  -0.004661  -0.000255   0.000081
     9  C    0.511486   0.010662   4.840967  -0.038076   0.397958   0.430382
    10  H    0.414584  -0.004661  -0.038076   0.569330  -0.006927   0.006644
    11  H   -0.041922  -0.000255   0.397958  -0.006927   0.548653  -0.031472
    12  H   -0.027750   0.000081   0.430382   0.006644  -0.031472   0.553146
 Mulliken charges:
               1
     1  H    0.107250
     2  C   -0.257302
     3  C    0.161967
     4  C   -0.019010
     5  H    0.103803
     6  O   -0.308211
     7  C   -0.190876
     8  H    0.123801
     9  C   -0.089132
    10  H    0.107151
    11  H    0.124538
    12  H    0.136020
 Sum of Mulliken charges =  -0.00000
 Mulliken charges with hydrogens summed into heavy atoms:
               1
     2  C   -0.150052
     3  C    0.265770
     4  C    0.104791
     6  O   -0.308211
     7  C   -0.083725
     9  C    0.171427
 APT charges:
               1
     1  H    0.081935
     2  C   -0.411260
     3  C   -0.393499
     4  C   -0.423394
     5  H    0.282363
     6  O    0.169283
     7  C   -0.529208
     8  H    0.289607
     9  C   -0.767037
    10  H    0.682217
    11  H    0.855864
    12  H    0.163130
 Sum of APT charges =  -0.00000
 APT charges with hydrogens summed into heavy atoms:
               1
     2  C   -0.329325
     3  C   -0.111137
     4  C   -0.133787
     6  O    0.169283
     7  C    0.153009
     9  C    0.251957
 Electronic spatial extent (au):  <R**2>=           1423.4586
 Charge=             -0.0000 electrons
 Dipole moment (field-independent basis, Debye):
    X=             -1.1978    Y=              0.2591    Z=             -0.7236  Tot=              1.4232
 Quadrupole moment (field-independent basis, Debye-Ang):
   XX=            -37.6273   YY=            -36.3962   ZZ=            -35.3835
   XY=             -1.5728   XZ=             -5.0902   YZ=             -0.1258
 Traceless Quadrupole moment (field-independent basis, Debye-Ang):
   XX=             -1.1583   YY=              0.0728   ZZ=              1.0855
   XY=             -1.5728   XZ=             -5.0902   YZ=             -0.1258
 Octapole moment (field-independent basis, Debye-Ang**2):
  XXX=             -5.8233  YYY=            -16.4180  ZZZ=           -241.8707  XYY=             -2.9907
  XXY=             -0.9680  XXZ=            -99.7229  XZZ=            -18.7632  YZZ=             -6.0509
  YYZ=            -85.5423  XYZ=             -3.8198
 Hexadecapole moment (field-independent basis, Debye-Ang**3):
 XXXX=           -294.6737 YYYY=            -81.9830 ZZZZ=          -1402.1979 XXXY=             21.5323
 XXXZ=             -7.5195 YYYX=             25.1456 YYYZ=            -33.2579 ZZZX=            -48.4485
 ZZZY=            -30.2487 XXYY=            -58.7239 XXZZ=           -356.5291 YYZZ=           -264.8081
 XXYZ=             -0.9032 YYXZ=             -3.1607 ZZXY=             -3.6604
 N-N= 2.181334931411D+02 E-N=-1.063899828598D+03  KE= 2.680635756888D+02
  Exact polarizability:   0.000   0.000   0.000   0.000   0.000   0.000
 Approx polarizability: 132.502 -15.700  68.593  -4.863  -1.809 130.911
   1 Symmetry operations used in ECPInt.
 ECPInt:  NShTT=    4095 NPrTT=   12396 LenC2=    4075 LenP2D=   10363.
 LDataN:  DoStor=T MaxTD1= 8 Len=  415
 Calling FoFJK, ICntrl=    100147 FMM=F ISym2X=0 I1Cent= 0 IOpClX= 0 NMat=1 NMatS=1 NMatT=0.
 -------------------------------------------------------------------
 Center     Atomic                   Forces (Hartrees/Bohr)
 Number     Number              X              Y              Z
 -------------------------------------------------------------------
      1        1          -0.000173830   -0.000221645    0.000085709
      2        6           0.001112572    0.000487483    0.000123244
      3        6          -0.001626909   -0.000207559   -0.001588986
      4        6          -0.000258642    0.000112015   -0.000201210
      5        1          -0.000025499    0.000027764   -0.000294081
      6        8           0.001919480    0.000140014    0.001378333
      7        6           0.000907760   -0.000035324    0.000583173
      8        1           0.000017693   -0.000322058    0.000040649
      9        6          -0.001479211    0.000127220   -0.000233313
     10        1          -0.000224784   -0.000128514   -0.000045547
     11        1          -0.000187587   -0.000051135    0.000146240
     12        1           0.000018957    0.000071737    0.000005790
 -------------------------------------------------------------------
 Cartesian Forces:  Max     0.001919480 RMS     0.000672214
 -----------------------------------------------------------------------------------------------
                       Internal Coordinate Forces (Hartree/Bohr or radian)
  Cent   Atom   N1       Length/X         N2         Alpha/Y        N3         Beta/Z          J
 -----------------------------------------------------------------------------------------------
      1  H 
      2  C        1  -0.000086(     1)
      3  C        2   0.000015(     2)      1  -0.005825(    12)
      4  C        2   0.001011(     3)      1  -0.005335(    13)      3   0.000431(    22)     0
      5  H        3   0.000161(     4)      2  -0.000513(    14)      1  -0.000352(    23)     0
      6  O        3   0.001731(     5)      2   0.003815(    15)      5  -0.000305(    24)     0
      7  C        4   0.000455(     6)      2   0.004598(    16)      1  -0.002501(    25)     0
      8  H        4  -0.000185(     7)      2  -0.000060(    17)      7   0.000481(    26)     0
      9  C        7  -0.001169(     8)      4   0.001561(    18)      2  -0.001942(    27)     0
     10  H        7  -0.000005(     9)      4  -0.000119(    19)      9   0.000451(    28)     0
     11  H        9   0.000088(    10)      7  -0.000145(    20)      4   0.000429(    29)     0
     12  H        9  -0.000069(    11)      7   0.000010(    21)     11   0.000051(    30)     0
 -----------------------------------------------------------------------------------------------
 Internal  Forces:  Max     0.005824689 RMS     0.001979437

 GradGradGradGradGradGradGradGradGradGradGradGradGradGradGradGradGradGrad
 Berny optimization.
 Search for a saddle point.
 Step number   1 out of a maximum of   40
 All quantities printed in internal units (Hartrees-Bohrs-Radians)
 Swapping is turned off.
 Second derivative matrix not updated -- analytic derivatives used.
 ITU=  0
     Eigenvalues ---   -0.87036   0.02331   0.02928   0.04460   0.04959
     Eigenvalues ---    0.05744   0.11190   0.11932   0.14233   0.15315
     Eigenvalues ---    0.17984   0.20262   0.22791   0.25835   0.29707
     Eigenvalues ---    0.32283   0.34018   0.34877   0.35324   0.35673
     Eigenvalues ---    0.36374   0.38692   0.41005   0.43851   0.49332
     Eigenvalues ---    0.52686   0.58313   0.70919   0.97958   1.93279
 Eigenvectors required to have negative eigenvalues:
                          A7        A4        A3        D12       R6
   1                    0.39209  -0.38383  -0.34618   0.29180  -0.27303
                          R9        A9        R3        D11       R7
   1                   -0.27066   0.27001   0.22186   0.21824   0.20849
 RFO step:  Lambda0=6.067788314D-05 Lambda=-8.78909897D-05.
 Linear search not attempted -- option 19 set.
 Variable       Old X    -DE/DX   Delta X   Delta X   Delta X     New X
                                 (Linear)    (Quad)   (Total)
    R2        2.04386  -0.00009   0.00000  -0.00043  -0.00043   2.04343
    R3        2.67052   0.00001   0.00000  -0.00617  -0.00617   2.66435
    R4        2.64351   0.00101   0.00000   0.00238   0.00238   2.64589
    R5        2.07282   0.00016   0.00000  -0.00018  -0.00018   2.07264
    R6        2.37495   0.00173   0.00000   0.00654   0.00654   2.38149
    R7        2.62478   0.00045   0.00000  -0.00260  -0.00260   2.62218
    R8        2.05233  -0.00018   0.00000  -0.00070  -0.00070   2.05163
    R9        2.62964  -0.00117   0.00000   0.00160   0.00160   2.63125
   R10        2.04658  -0.00000   0.00000  -0.00027  -0.00027   2.04632
   R11        2.04570   0.00009   0.00000   0.00031   0.00031   2.04601
   R12        2.04303  -0.00007   0.00000   0.00020   0.00020   2.04323
    A3        2.03141  -0.00582   0.00000   0.00258   0.00258   2.03398
    A4        2.08861  -0.00533   0.00000   0.00032   0.00032   2.08893
    A5        2.01821  -0.00051   0.00000   0.00024   0.00024   2.01845
    A6        2.23526   0.00382   0.00000   0.00194   0.00194   2.23720
    A7        2.10990   0.00460   0.00000  -0.00173  -0.00173   2.10818
    A8        2.06244  -0.00006   0.00000   0.00026   0.00026   2.06269
    A9        2.04762   0.00156   0.00000  -0.00210  -0.00210   2.04553
   A10        2.10748  -0.00012   0.00000   0.00266   0.00266   2.11014
   A11        2.10914  -0.00015   0.00000  -0.00135  -0.00135   2.10780
   A12        2.06826   0.00001   0.00000  -0.00158  -0.00158   2.06668
    D4        2.70231   0.00043   0.00000   0.01233   0.01233   2.71464
    D5        0.21034  -0.00035   0.00000   0.00182   0.00182   0.21216
    D6        2.99209  -0.00030   0.00000  -0.00180  -0.00180   2.99029
    D7       -3.08619  -0.00250   0.00000  -0.00906  -0.00906  -3.09525
    D8        2.94859   0.00048   0.00000   0.00375   0.00375   2.95235
    D9       -0.36983  -0.00194   0.00000   0.00074   0.00074  -0.36909
   D10        2.96174   0.00045   0.00000   0.01413   0.01413   2.97587
   D11        2.84814   0.00043   0.00000   0.00738   0.00738   2.85552
   D12        2.66361   0.00005   0.00000  -0.01009  -0.01009   2.65352
         Item               Value     Threshold  Converged?
 Maximum Force            0.005825     0.000450     NO 
 RMS     Force            0.001979     0.000300     NO 
 Maximum Displacement     0.014127     0.001800     NO 
 RMS     Displacement     0.004957     0.001200     NO 
 Predicted change in Energy=-1.363379D-05
 GradGradGradGradGradGradGradGradGradGradGradGradGradGradGradGradGradGrad

 ---------------------------------------------------------------------------------------------------
                            Z-MATRIX (ANGSTROMS AND DEGREES)
   CD    Cent   Atom    N1       Length/X        N2       Alpha/Y        N3        Beta/Z          J
 ---------------------------------------------------------------------------------------------------
      1      1  H 
      2      2  C        1   1.081339(     1)
      3      3  C        2   1.409915(     2)      1  116.539(    12)
      4      4  C        2   1.400144(     3)      1  119.687(    13)      3  155.537(    22)      0
      5      5  H        3   1.096794(     4)      2  115.648(    14)      1   12.156(    23)      0
      6      6  O        3   1.260230(     5)      2  128.182(    15)      5  171.331(    24)      0
      7      7  C        4   1.387599(     6)      2  120.790(    16)      1 -177.344(    25)      0
      8      8  H        4   1.085675(     7)      2  118.184(    17)      7  169.157(    26)      0
      9      9  C        7   1.392395(     8)      4  117.200(    18)      2  -21.147(    27)      0
     10     10  H        7   1.082866(     9)      4  120.902(    19)      9  170.505(    28)      0
     11     11  H        9   1.082704(    10)      7  120.768(    20)      4  163.609(    29)      0
     12     12  H        9   1.081229(    11)      7  118.412(    21)     11  152.035(    30)      0
 ---------------------------------------------------------------------------------------------------
                         Z-Matrix orientation:                         
 ---------------------------------------------------------------------
 Center     Atomic      Atomic             Coordinates (Angstroms)
 Number     Number       Type             X           Y           Z
 ---------------------------------------------------------------------
      1          1           0        0.000000    0.000000    0.000000
      2          6           0        0.000000    0.000000    1.081339
      3          6           0        1.261356    0.000000    1.711292
      4          6           0       -1.107178    0.503698    1.774772
      5          1           0        2.117937    0.208196    1.058698
      6          8           0        1.516515   -0.060249    2.943950
      7          6           0       -1.109194    0.565289    3.161003
      8          1           0       -1.883214    1.006470    1.205847
      9          6           0       -0.223405   -0.270085    3.836497
     10          1           0       -1.659160    1.338693    3.682520
     11          1           0        0.018953   -0.094860    4.877077
     12          1           0       -0.136823   -1.297927    3.512303
 ---------------------------------------------------------------------
                    Distance matrix (angstroms):
                    1          2          3          4          5
     1  H    0.000000
     2  C    1.081339   0.000000
     3  C    2.125921   1.409915   0.000000
     4  C    2.151597   1.400144   2.422332   0.000000
     5  H    2.376940   2.128266   1.096794   3.316843   0.000000
     6  O    3.312143   2.402659   1.260230   2.927247   1.996984
     7  C    3.397323   2.423812   2.835615   1.387599   3.868019
     8  H    2.452253   2.138920   3.340176   1.085675   4.082660
     9  C    3.852475   2.777365   2.606522   2.372868   3.664260
    10  H    4.255099   3.363191   3.769251   2.154392   4.735919
    11  H    4.878036   3.796971   3.402169   3.354211   4.367791
    12  H    3.746947   2.759153   2.623577   2.684484   3.656847
                    6          7          8          9         10
     6  O    0.000000
     7  C    2.707906   0.000000
     8  H    3.964474   2.148577   0.000000
     9  C    1.966721   1.392395   3.362274   0.000000
    10  H    3.547878   1.082866   2.508881   2.161775   0.000000
    11  H    2.445581   2.157179   4.278913   1.082704   2.509602
    12  H    2.142055   2.130843   3.698631   1.081229   3.049303
                   11         12
    11  H    0.000000
    12  H    1.825991   0.000000
 Symmetry turned off by external request.
 Stoichiometry    C5H6O
 Framework group  C1[X(C5H6O)]
 Deg. of freedom    30
 Full point group                 C1      NOp   1
 Rotational constants (GHZ):           5.5424329           4.6779007           2.7097306
 Standard basis: def2TZVP (5D, 7F)
 The following finite field(s) will be applied:
 An electric field of              0.0020  0.0010  0.0011
   222 basis functions,   354 primitive gaussians,   252 cartesian basis functions
    22 alpha electrons       22 beta electrons
       nuclear repulsion energy       217.9338754397 Hartrees.
 NAtoms=   12 NActive=   12 NUniq=   12 SFac= 1.00D+00 NAtFMM=   60 NAOKFM=F Big=F
 Integral buffers will be    131072 words long.
 Raffenetti 2 integral format.
 Two-electron integral symmetry is turned off.
 One-electron integrals computed using PRISM.
   1 Symmetry operations used in ECPInt.
 ECPInt:  NShTT=    4095 NPrTT=   12396 LenC2=    4075 LenP2D=   10363.
 LDataN:  DoStor=T MaxTD1= 6 Len=  172
 NBasis=   222 RedAO= T EigKep=  1.15D-04  NBF=   222
 NBsUse=   222 1.00D-06 EigRej= -1.00D+00 NBFU=   222
 The nuclear repulsion energy is now       218.1904626233 hartrees.
 Initial guess from the checkpoint file:  "checkpoint.chk"
 B after Tr=     0.003125    0.011400   -0.002018
         Rot=    0.999985   -0.003617    0.001172   -0.003899 Ang=  -0.62 deg.
 Keep R1 ints in memory in canonical form, NReq=319363861.
 Requested convergence on RMS density matrix=1.00D-08 within 128 cycles.
 Requested convergence on MAX density matrix=1.00D-06.
 Requested convergence on             energy=1.00D-06.
 No special actions if energy rises.
 SCF Done:  E(RB3LYP) =  -269.392762357     A.U. after   10 cycles
            NFock= 10  Conv=0.79D-08     -V/T= 2.0050
   1 Symmetry operations used in ECPInt.
 ECPInt:  NShTT=    4095 NPrTT=   12396 LenC2=    4075 LenP2D=   10363.
 LDataN:  DoStor=T MaxTD1= 7 Len=  274
 Calling FoFJK, ICntrl=      2127 FMM=F ISym2X=0 I1Cent= 0 IOpClX= 0 NMat=1 NMatS=1 NMatT=0.
 -------------------------------------------------------------------
 Center     Atomic                   Forces (Hartrees/Bohr)
 Number     Number              X              Y              Z
 -------------------------------------------------------------------
      1        1          -0.000001544   -0.000068277   -0.000000713
      2        6           0.000010857   -0.000175801   -0.000006348
      3        6           0.000009206    0.000276110   -0.000061954
      4        6          -0.000021078   -0.000009478    0.000011268
      5        1           0.000002016   -0.000000850   -0.000000846
      6        8          -0.000018419   -0.000020408    0.000063846
      7        6          -0.000006683    0.000011374   -0.000013777
      8        1          -0.000001532   -0.000000667    0.000000648
      9        6           0.000041997   -0.000006191    0.000008418
     10        1          -0.000008294   -0.000002831   -0.000001234
     11        1          -0.000001110    0.000001328    0.000000497
     12        1          -0.000005416   -0.000004309    0.000000196
 -------------------------------------------------------------------
 Cartesian Forces:  Max     0.000276110 RMS     0.000058632
 -----------------------------------------------------------------------------------------------
                       Internal Coordinate Forces (Hartree/Bohr or radian)
  Cent   Atom   N1       Length/X         N2         Alpha/Y        N3         Beta/Z          J
 -----------------------------------------------------------------------------------------------
      1  H 
      2  C        1   0.000001(     1)
      3  C        2  -0.000006(     2)      1   0.000086(    12)
      4  C        2   0.000001(     3)      1   0.000085(    13)      3   0.000070(    22)     0
      5  H        3   0.000002(     4)      2   0.000001(    14)      1   0.000028(    23)     0
      6  O        3   0.000060(     5)      2  -0.000075(    15)      5   0.000031(    24)     0
      7  C        4  -0.000006(     6)      2  -0.000065(    16)      1   0.000055(    25)     0
      8  H        4   0.000000(     7)      2   0.000003(    17)      7   0.000002(    26)     0
      9  C        7   0.000032(     8)      4  -0.000015(    18)      2   0.000046(    27)     0
     10  H        7   0.000002(     9)      4  -0.000005(    19)      9   0.000015(    28)     0
     11  H        9   0.000000(    10)      7  -0.000004(    20)      4  -0.000009(    29)     0
     12  H        9   0.000004(    11)      7  -0.000006(    21)     11  -0.000009(    30)     0
 -----------------------------------------------------------------------------------------------
 Internal  Forces:  Max     0.000085870 RMS     0.000037340

 GradGradGradGradGradGradGradGradGradGradGradGradGradGradGradGradGradGrad
 Berny optimization.
 Search for a saddle point.
 Step number   2 out of a maximum of   40
 All quantities printed in internal units (Hartrees-Bohrs-Radians)
 Swapping is turned off.
 Update second derivatives using D2CorN and points    1    2
 ITU=  0  0
     Eigenvalues ---   -0.87194   0.02259   0.02923   0.04468   0.04941
     Eigenvalues ---    0.05742   0.11184   0.11940   0.14229   0.15315
     Eigenvalues ---    0.17988   0.20263   0.22794   0.25834   0.29707
     Eigenvalues ---    0.32283   0.34018   0.34877   0.35324   0.35673
     Eigenvalues ---    0.36374   0.38692   0.41023   0.43854   0.49333
     Eigenvalues ---    0.52686   0.58317   0.70898   0.97967   1.93328
 Eigenvectors required to have negative eigenvalues:
                          A7        A4        A3        D12       R6
   1                    0.39205  -0.38381  -0.34638   0.29245  -0.27338
                          R9        A9        R3        D11       R7
   1                   -0.27058   0.26989   0.22208   0.21723   0.20846
 RFO step:  Lambda0=2.197830634D-08 Lambda=-1.14195245D-07.
 Linear search not attempted -- option 19 set.
 Variable       Old X    -DE/DX   Delta X   Delta X   Delta X     New X
                                 (Linear)    (Quad)   (Total)
    R2        2.04343   0.00000   0.00000  -0.00000  -0.00000   2.04343
    R3        2.66435  -0.00001   0.00000   0.00005   0.00005   2.66440
    R4        2.64589   0.00000   0.00000  -0.00005  -0.00005   2.64584
    R5        2.07264   0.00000   0.00000   0.00001   0.00001   2.07266
    R6        2.38149   0.00006   0.00000   0.00004   0.00004   2.38153
    R7        2.62218  -0.00001   0.00000   0.00006   0.00006   2.62224
    R8        2.05163   0.00000   0.00000   0.00000   0.00000   2.05163
    R9        2.63125   0.00003   0.00000  -0.00001  -0.00001   2.63123
   R10        2.04632   0.00000   0.00000   0.00001   0.00001   2.04633
   R11        2.04601   0.00000   0.00000   0.00001   0.00001   2.04602
   R12        2.04323   0.00000   0.00000  -0.00001  -0.00001   2.04322
    A3        2.03398   0.00009   0.00000   0.00006   0.00006   2.03405
    A4        2.08893   0.00009   0.00000   0.00022   0.00022   2.08915
    A5        2.01845   0.00000   0.00000  -0.00000  -0.00000   2.01844
    A6        2.23720  -0.00008   0.00000  -0.00003  -0.00003   2.23717
    A7        2.10818  -0.00006   0.00000   0.00000   0.00000   2.10818
    A8        2.06269   0.00000   0.00000   0.00001   0.00001   2.06271
    A9        2.04553  -0.00002   0.00000   0.00011   0.00011   2.04563
   A10        2.11014  -0.00001   0.00000  -0.00006  -0.00006   2.11008
   A11        2.10780  -0.00000   0.00000  -0.00002  -0.00002   2.10778
   A12        2.06668  -0.00001   0.00000   0.00002   0.00002   2.06670
    D4        2.71464   0.00007   0.00000   0.00130   0.00130   2.71594
    D5        0.21216   0.00003   0.00000   0.00093   0.00093   0.21308
    D6        2.99029   0.00003   0.00000   0.00005   0.00005   2.99035
    D7       -3.09525   0.00006   0.00000  -0.00066  -0.00066  -3.09590
    D8        2.95235   0.00000   0.00000  -0.00002  -0.00002   2.95233
    D9       -0.36909   0.00005   0.00000  -0.00043  -0.00043  -0.36953
   D10        2.97587   0.00001   0.00000   0.00028   0.00028   2.97615
   D11        2.85552  -0.00001   0.00000   0.00005   0.00005   2.85557
   D12        2.65352  -0.00001   0.00000   0.00006   0.00006   2.65358
         Item               Value     Threshold  Converged?
 Maximum Force            0.000086     0.000450     YES
 RMS     Force            0.000037     0.000300     YES
 Maximum Displacement     0.001301     0.001800     YES
 RMS     Displacement     0.000333     0.001200     YES
 Predicted change in Energy=-4.610847D-08
 Optimization completed.
    -- Stationary point found.
                       ----------------------------
                       !   Optimized Parameters   !
                       ! (Angstroms and Degrees)  !
 ----------------------                            ----------------------
 !      Name          Value   Derivative information (Atomic Units)     !
 ------------------------------------------------------------------------
 !       R2          1.0813   -DE/DX =    0.0                           !
 !       R3          1.4099   -DE/DX =    0.0                           !
 !       R4          1.4001   -DE/DX =    0.0                           !
 !       R5          1.0968   -DE/DX =    0.0                           !
 !       R6          1.2602   -DE/DX =    0.0001                        !
 !       R7          1.3876   -DE/DX =    0.0                           !
 !       R8          1.0857   -DE/DX =    0.0                           !
 !       R9          1.3924   -DE/DX =    0.0                           !
 !       R10         1.0829   -DE/DX =    0.0                           !
 !       R11         1.0827   -DE/DX =    0.0                           !
 !       R12         1.0812   -DE/DX =    0.0                           !
 !       A3        116.5387   -DE/DX =    0.0001                        !
 !       A4        119.6868   -DE/DX =    0.0001                        !
 !       A5        115.6484   -DE/DX =    0.0                           !
 !       A6        128.1821   -DE/DX =   -0.0001                        !
 !       A7        120.7896   -DE/DX =   -0.0001                        !
 !       A8        118.1837   -DE/DX =    0.0                           !
 !       A9        117.2      -DE/DX =    0.0                           !
 !       A10       120.9021   -DE/DX =    0.0                           !
 !       A11       120.7679   -DE/DX =    0.0                           !
 !       A12       118.4122   -DE/DX =    0.0                           !
 !       D4        155.5374   -DE/DX =    0.0001                        !
 !       D5         12.1558   -DE/DX =    0.0                           !
 !       D6        171.3311   -DE/DX =    0.0                           !
 !       D7       -177.3445   -DE/DX =    0.0001                        !
 !       D8        169.157    -DE/DX =    0.0                           !
 !       D9        -21.1475   -DE/DX =    0.0                           !
 !       D10       170.5049   -DE/DX =    0.0                           !
 !       D11       163.6094   -DE/DX =    0.0                           !
 !       D12       152.0353   -DE/DX =    0.0                           !
 ------------------------------------------------------------------------
 GradGradGradGradGradGradGradGradGradGradGradGradGradGradGradGradGradGrad

 ---------------------------------------------------------------------------------------------------
                            Z-MATRIX (ANGSTROMS AND DEGREES)
   CD    Cent   Atom    N1       Length/X        N2       Alpha/Y        N3        Beta/Z          J
 ---------------------------------------------------------------------------------------------------
      1      1  H 
      2      2  C        1   1.081339(     1)
      3      3  C        2   1.409915(     2)      1  116.539(    12)
      4      4  C        2   1.400144(     3)      1  119.687(    13)      3  155.537(    22)      0
      5      5  H        3   1.096794(     4)      2  115.648(    14)      1   12.156(    23)      0
      6      6  O        3   1.260230(     5)      2  128.182(    15)      5  171.331(    24)      0
      7      7  C        4   1.387599(     6)      2  120.790(    16)      1 -177.344(    25)      0
      8      8  H        4   1.085675(     7)      2  118.184(    17)      7  169.157(    26)      0
      9      9  C        7   1.392395(     8)      4  117.200(    18)      2  -21.147(    27)      0
     10     10  H        7   1.082866(     9)      4  120.902(    19)      9  170.505(    28)      0
     11     11  H        9   1.082704(    10)      7  120.768(    20)      4  163.609(    29)      0
     12     12  H        9   1.081229(    11)      7  118.412(    21)     11  152.035(    30)      0
 ---------------------------------------------------------------------------------------------------
                         Z-Matrix orientation:                         
 ---------------------------------------------------------------------
 Center     Atomic      Atomic             Coordinates (Angstroms)
 Number     Number       Type             X           Y           Z
 ---------------------------------------------------------------------
      1          1           0        0.000000    0.000000    0.000000
      2          6           0        0.000000    0.000000    1.081339
      3          6           0        1.261356    0.000000    1.711292
      4          6           0       -1.107178    0.503698    1.774772
      5          1           0        2.117937    0.208196    1.058698
      6          8           0        1.516515   -0.060249    2.943950
      7          6           0       -1.109194    0.565289    3.161003
      8          1           0       -1.883214    1.006470    1.205847
      9          6           0       -0.223405   -0.270085    3.836497
     10          1           0       -1.659160    1.338693    3.682520
     11          1           0        0.018953   -0.094860    4.877077
     12          1           0       -0.136823   -1.297927    3.512303
 ---------------------------------------------------------------------
                    Distance matrix (angstroms):
                    1          2          3          4          5
     1  H    0.000000
     2  C    1.081339   0.000000
     3  C    2.125921   1.409915   0.000000
     4  C    2.151597   1.400144   2.422332   0.000000
     5  H    2.376940   2.128266   1.096794   3.316843   0.000000
     6  O    3.312143   2.402659   1.260230   2.927247   1.996984
     7  C    3.397323   2.423812   2.835615   1.387599   3.868019
     8  H    2.452253   2.138920   3.340176   1.085675   4.082660
     9  C    3.852475   2.777365   2.606522   2.372868   3.664260
    10  H    4.255099   3.363191   3.769251   2.154392   4.735919
    11  H    4.878036   3.796971   3.402169   3.354211   4.367791
    12  H    3.746947   2.759153   2.623577   2.684484   3.656847
                    6          7          8          9         10
     6  O    0.000000
     7  C    2.707906   0.000000
     8  H    3.964474   2.148577   0.000000
     9  C    1.966721   1.392395   3.362274   0.000000
    10  H    3.547878   1.082866   2.508881   2.161775   0.000000
    11  H    2.445581   2.157179   4.278913   1.082704   2.509602
    12  H    2.142055   2.130843   3.698631   1.081229   3.049303
                   11         12
    11  H    0.000000
    12  H    1.825991   0.000000
 Symmetry turned off by external request.
 Stoichiometry    C5H6O
 Framework group  C1[X(C5H6O)]
 Deg. of freedom    30
 Full point group                 C1      NOp   1
 Rotational constants (GHZ):           5.5424329           4.6779007           2.7097306

 **********************************************************************

            Population analysis using the SCF density.

 **********************************************************************

 Alpha  occ. eigenvalues --  -19.14849 -10.25777 -10.22687 -10.20103 -10.17596
 Alpha  occ. eigenvalues --  -10.17300  -1.05213  -0.83371  -0.76213  -0.67259
 Alpha  occ. eigenvalues --   -0.61313  -0.53248  -0.51505  -0.47572  -0.46499
 Alpha  occ. eigenvalues --   -0.44799  -0.40197  -0.38709  -0.38096  -0.33233
 Alpha  occ. eigenvalues --   -0.29446  -0.22026
 Alpha virt. eigenvalues --   -0.07432  -0.00407   0.04225   0.05028   0.06794
 Alpha virt. eigenvalues --    0.07416   0.09088   0.10856   0.12024   0.15121
 Alpha virt. eigenvalues --    0.17427   0.19352   0.19820   0.21355   0.21617
 Alpha virt. eigenvalues --    0.22223   0.24347   0.26819   0.27620   0.28608
 Alpha virt. eigenvalues --    0.29973   0.32853   0.33335   0.35616   0.37485
 Alpha virt. eigenvalues --    0.39379   0.40032   0.41817   0.42373   0.43303
 Alpha virt. eigenvalues --    0.43802   0.44678   0.45100   0.47506   0.49393
 Alpha virt. eigenvalues --    0.52136   0.53302   0.54700   0.56430   0.57794
 Alpha virt. eigenvalues --    0.61540   0.65354   0.68342   0.69094   0.75175
 Alpha virt. eigenvalues --    0.79369   0.81805   0.86448   0.86808   0.89009
 Alpha virt. eigenvalues --    0.92182   0.93477   0.95740   0.96391   0.97561
 Alpha virt. eigenvalues --    1.00737   1.03362   1.06738   1.10341   1.11579
 Alpha virt. eigenvalues --    1.14445   1.16784   1.18946   1.22896   1.23099
 Alpha virt. eigenvalues --    1.28514   1.31009   1.33911   1.38790   1.39434
 Alpha virt. eigenvalues --    1.42500   1.43433   1.45931   1.47207   1.50828
 Alpha virt. eigenvalues --    1.52973   1.57223   1.59576   1.62817   1.64534
 Alpha virt. eigenvalues --    1.66453   1.68064   1.73290   1.77498   1.78074
 Alpha virt. eigenvalues --    1.80632   1.82396   1.85272   1.87994   1.91282
 Alpha virt. eigenvalues --    1.94101   1.96648   2.04988   2.06280   2.09787
 Alpha virt. eigenvalues --    2.14294   2.15311   2.19444   2.20158   2.25613
 Alpha virt. eigenvalues --    2.27531   2.31778   2.37584   2.40809   2.44094
 Alpha virt. eigenvalues --    2.49171   2.51490   2.52619   2.54089   2.55702
 Alpha virt. eigenvalues --    2.58457   2.60997   2.62592   2.65104   2.67524
 Alpha virt. eigenvalues --    2.69946   2.70497   2.76376   2.77851   2.79103
 Alpha virt. eigenvalues --    2.81379   2.83322   2.83873   2.86033   2.88891
 Alpha virt. eigenvalues --    2.91137   2.94401   2.96072   2.97714   3.01303
 Alpha virt. eigenvalues --    3.02403   3.04186   3.06129   3.11607   3.13120
 Alpha virt. eigenvalues --    3.14676   3.17230   3.19338   3.22439   3.23214
 Alpha virt. eigenvalues --    3.24541   3.27405   3.28473   3.34715   3.35682
 Alpha virt. eigenvalues --    3.39003   3.41240   3.43207   3.45075   3.47815
 Alpha virt. eigenvalues --    3.49224   3.51872   3.57671   3.62806   3.62987
 Alpha virt. eigenvalues --    3.68067   3.85026   3.89423   3.91472   3.93683
 Alpha virt. eigenvalues --    3.96794   4.02051   4.03408   4.08140   4.11064
 Alpha virt. eigenvalues --    4.15648   4.17537   4.25618   4.30196   4.32107
 Alpha virt. eigenvalues --    4.38322   4.43604   4.47672   4.53943   4.64335
 Alpha virt. eigenvalues --    4.66521   4.72089   4.80892   4.85279   4.86467
 Alpha virt. eigenvalues --    5.05001   5.14409   5.24480   5.28512   5.50981
 Alpha virt. eigenvalues --    5.60898   5.98360   6.20701   6.33133   6.49937
 Alpha virt. eigenvalues --    6.72084   6.77721   6.96583   7.07752  22.05579
 Alpha virt. eigenvalues --   22.33489  22.50382  22.69472  22.87095  43.80382
          Condensed to atoms (all electrons):
               1          2          3          4          5          6
     1  H    0.562475   0.410116  -0.036318  -0.051128  -0.000561   0.005702
     2  C    0.410116   5.233349   0.419791   0.471242  -0.104883  -0.125121
     3  C   -0.036318   0.419791   4.663666  -0.020974   0.418675   0.503457
     4  C   -0.051128   0.471242  -0.020974   4.888997   0.002927  -0.009670
     5  H   -0.000561  -0.104883   0.418675   0.002927   0.619344  -0.035875
     6  O    0.005702  -0.125121   0.503457  -0.009670  -0.035875   7.978104
     7  C    0.009587  -0.035296  -0.051004   0.485176  -0.005168  -0.025654
     8  H   -0.007363  -0.047906   0.002367   0.416901  -0.000819  -0.000892
     9  C   -0.000037  -0.001107  -0.047808  -0.089153   0.003723   0.072892
    10  H   -0.000194   0.007085  -0.002492  -0.052766   0.000022   0.000786
    11  H    0.000017  -0.000482   0.001404   0.010360  -0.000034  -0.002164
    12  H    0.000054   0.031408  -0.011756  -0.034031  -0.001641  -0.051460
               7          8          9         10         11         12
     1  H    0.009587  -0.007363  -0.000037  -0.000194   0.000017   0.000054
     2  C   -0.035296  -0.047906  -0.001107   0.007085  -0.000482   0.031408
     3  C   -0.051004   0.002367  -0.047808  -0.002492   0.001404  -0.011756
     4  C    0.485176   0.416901  -0.089153  -0.052766   0.010360  -0.034031
     5  H   -0.005168  -0.000819   0.003723   0.000022  -0.000034  -0.001641
     6  O   -0.025654  -0.000892   0.072892   0.000786  -0.002164  -0.051460
     7  C    5.004700  -0.042620   0.508452   0.414578  -0.041706  -0.028236
     8  H   -0.042620   0.550725   0.010622  -0.004757  -0.000253   0.000073
     9  C    0.508452   0.010622   4.838161  -0.037876   0.397802   0.430666
    10  H    0.414578  -0.004757  -0.037876   0.567995  -0.006830   0.006620
    11  H   -0.041706  -0.000253   0.397802  -0.006830   0.548475  -0.031408
    12  H   -0.028236   0.000073   0.430666   0.006620  -0.031408   0.553888
 Mulliken charges:
               1
     1  H    0.107651
     2  C   -0.258196
     3  C    0.160993
     4  C   -0.017880
     5  H    0.104291
     6  O   -0.310106
     7  C   -0.192809
     8  H    0.123922
     9  C   -0.086338
    10  H    0.107829
    11  H    0.124819
    12  H    0.135823
 Sum of Mulliken charges =  -0.00000
 Mulliken charges with hydrogens summed into heavy atoms:
               1
     2  C   -0.150544
     3  C    0.265284
     4  C    0.106042
     6  O   -0.310106
     7  C   -0.084980
     9  C    0.174304
 Electronic spatial extent (au):  <R**2>=           1422.4724
 Charge=             -0.0000 electrons
 Dipole moment (field-independent basis, Debye):
    X=             -1.2262    Y=              0.2281    Z=             -0.7084  Tot=              1.4344
 Quadrupole moment (field-independent basis, Debye-Ang):
   XX=            -37.5534   YY=            -36.4577   ZZ=            -35.2955
   XY=             -1.5689   XZ=             -5.1995   YZ=             -0.2385
 Traceless Quadrupole moment (field-independent basis, Debye-Ang):
   XX=             -1.1179   YY=             -0.0222   ZZ=              1.1401
   XY=             -1.5689   XZ=             -5.1995   YZ=             -0.2385
 Octapole moment (field-independent basis, Debye-Ang**2):
  XXX=             -5.4469  YYY=            -15.3389  ZZZ=           -241.4172  XYY=             -2.7240
  XXY=             -0.4803  XXZ=            -99.4527  XZZ=            -19.1201  YZZ=             -6.1007
  YYZ=            -85.7095  XYZ=             -3.8649
 Hexadecapole moment (field-independent basis, Debye-Ang**3):
 XXXX=           -294.9505 YYYY=            -80.8199 ZZZZ=          -1398.9430 XXXY=             20.5810
 XXXZ=             -6.7515 YYYX=             24.6539 YYYZ=            -29.8782 ZZZX=            -49.8017
 ZZZY=            -28.4336 XXYY=            -58.8106 XXZZ=           -355.4542 YYZZ=           -265.0323
 XXYZ=              0.6774 YYXZ=             -2.4776 ZZXY=             -4.1712
 N-N= 2.181904626233D+02 E-N=-1.064012005062D+03  KE= 2.680588667653D+02
 1\1\GINC-BHC0016\FTS\RB3LYP\def2TZVP\C5H6O1\DHANAWAY\21-Mar-2022\1\\# 
 Opt=(TS, CalcFC, noeigentest, Z-matrix, MaxStep=10) Field=read NoSymm 
 B3LYP/Def2TZVP\\ts_zmat_initalOpt\\0,1\H\C,1,R2\C,2,R3,1,A3\C,2,R4,1,A
 4,3,D4,0\H,3,R5,2,A5,1,D5,0\O,3,R6,2,A6,5,D6,0\C,4,R7,2,A7,1,D7,0\H,4,
 R8,2,A8,7,D8,0\C,7,R9,4,A9,2,D9,0\H,7,R10,4,A10,9,D10,0\H,9,R11,7,A11,
 4,D11,0\H,9,R12,7,A12,11,D12,0\\R2=1.08133858\R3=1.40991489\R4=1.40014
 433\R5=1.09679392\R6=1.26023036\R7=1.3875994\R8=1.08567487\R9=1.392395
 21\R10=1.08286561\R11=1.08270365\R12=1.08122927\A3=116.53873741\A4=119
 .68682049\A5=115.64841367\A6=128.18214383\A7=120.78960617\A8=118.18367
 396\A9=117.20002217\A10=120.90212058\A11=120.76785127\A12=118.41223862
 \D4=155.53739197\D5=12.15576224\D6=171.33112602\D7=-177.34447805\D8=16
 9.15695871\D9=-21.14745931\D10=170.50488149\D11=163.60939869\D12=152.0
 3530586\\Version=ES64L-G16RevA.03\HF=-269.3927624\RMSD=7.890e-09\RMSF=
 5.863e-05\Dipole=-0.4824253,0.0897559,-0.2786973\Quadrupole=-0.8311307
 ,-0.0164802,0.8476109,-1.1664488,-3.8657269,-0.1773329\PG=C01 [X(C5H6O
 1)]\\@


 I DO NOT DEFINE TIME, SPACE, PLACE, AND MOTION, AS BEING WELL KNOWN TO ALL.
                                            -- NEWTON (1642-1726), PRINCIPIA
 Job cpu time:       0 days  0 hours 36 minutes 36.3 seconds.
 Elapsed time:       0 days  0 hours  3 minutes 16.9 seconds.
 File lengths (MBytes):  RWF=     54 Int=      0 D2E=      0 Chk=     32 Scr=      1
 Normal termination of Gaussian 16 at Mon Mar 21 07:58:45 2022.
