 Entering Gaussian System, Link 0=g16
 Input=ts_zmat_field_N50.gjf
 Output=ts_zmat_field_N50.out
 Initial command:
 /software/gaussian/g16-a03/l1.exe "/local_scratch/9923039/Gau-9068.inp" -scrdir="/local_scratch/9923039/"
 Entering Link 1 = /software/gaussian/g16-a03/l1.exe PID=      9069.
  
 Copyright (c) 1988,1990,1992,1993,1995,1998,2003,2009,2016,
            Gaussian, Inc.  All Rights Reserved.
  
 This is part of the Gaussian(R) 16 program.  It is based on
 the Gaussian(R) 09 system (copyright 2009, Gaussian, Inc.),
 the Gaussian(R) 03 system (copyright 2003, Gaussian, Inc.),
 the Gaussian(R) 98 system (copyright 1998, Gaussian, Inc.),
 the Gaussian(R) 94 system (copyright 1995, Gaussian, Inc.),
 the Gaussian 92(TM) system (copyright 1992, Gaussian, Inc.),
 the Gaussian 90(TM) system (copyright 1990, Gaussian, Inc.),
 the Gaussian 88(TM) system (copyright 1988, Gaussian, Inc.),
 the Gaussian 86(TM) system (copyright 1986, Carnegie Mellon
 University), and the Gaussian 82(TM) system (copyright 1983,
 Carnegie Mellon University). Gaussian is a federally registered
 trademark of Gaussian, Inc.
  
 This software contains proprietary and confidential information,
 including trade secrets, belonging to Gaussian, Inc.
  
 This software is provided under written license and may be
 used, copied, transmitted, or stored only in accord with that
 written license.
  
 The following legend is applicable only to US Government
 contracts under FAR:
  
                    RESTRICTED RIGHTS LEGEND
  
 Use, reproduction and disclosure by the US Government is
 subject to restrictions as set forth in subparagraphs (a)
 and (c) of the Commercial Computer Software - Restricted
 Rights clause in FAR 52.227-19.
  
 Gaussian, Inc.
 340 Quinnipiac St., Bldg. 40, Wallingford CT 06492
  
  
 ---------------------------------------------------------------
 Warning -- This program may not be used in any manner that
 competes with the business of Gaussian, Inc. or will provide
 assistance to any competitor of Gaussian, Inc.  The licensee
 of this program is prohibited from giving any competitor of
 Gaussian, Inc. access to this program.  By using this program,
 the user acknowledges that Gaussian, Inc. is engaged in the
 business of creating and licensing software in the field of
 computational chemistry and represents and warrants to the
 licensee that it is not a competitor of Gaussian, Inc. and that
 it will not use this program in any manner prohibited above.
 ---------------------------------------------------------------
  

 Cite this work as:
 Gaussian 16, Revision A.03,
 M. J. Frisch, G. W. Trucks, H. B. Schlegel, G. E. Scuseria, 
 M. A. Robb, J. R. Cheeseman, G. Scalmani, V. Barone, 
 G. A. Petersson, H. Nakatsuji, X. Li, M. Caricato, A. V. Marenich, 
 J. Bloino, B. G. Janesko, R. Gomperts, B. Mennucci, H. P. Hratchian, 
 J. V. Ortiz, A. F. Izmaylov, J. L. Sonnenberg, D. Williams-Young, 
 F. Ding, F. Lipparini, F. Egidi, J. Goings, B. Peng, A. Petrone, 
 T. Henderson, D. Ranasinghe, V. G. Zakrzewski, J. Gao, N. Rega, 
 G. Zheng, W. Liang, M. Hada, M. Ehara, K. Toyota, R. Fukuda, 
 J. Hasegawa, M. Ishida, T. Nakajima, Y. Honda, O. Kitao, H. Nakai, 
 T. Vreven, K. Throssell, J. A. Montgomery, Jr., J. E. Peralta, 
 F. Ogliaro, M. J. Bearpark, J. J. Heyd, E. N. Brothers, K. N. Kudin, 
 V. N. Staroverov, T. A. Keith, R. Kobayashi, J. Normand, 
 K. Raghavachari, A. P. Rendell, J. C. Burant, S. S. Iyengar, 
 J. Tomasi, M. Cossi, J. M. Millam, M. Klene, C. Adamo, R. Cammi, 
 J. W. Ochterski, R. L. Martin, K. Morokuma, O. Farkas, 
 J. B. Foresman, and D. J. Fox, Gaussian, Inc., Wallingford CT, 2016.
 
 ******************************************
 Gaussian 16:  ES64L-G16RevA.03 25-Dec-2016
                21-Mar-2022 
 ******************************************
 %nprocshared=12
 Will use up to   12 processors via shared memory.
 %chk=checkpoint.chk
 %mem=12GB
 ----------------------------------------------------------------------
 # Opt=(TS, CalcFC, noeigentest, Z-matrix, MaxStep=10) geom=allcheckpoi
 nt guess=read Field=read NoSymm B3LYP/Def2TZVP
 ----------------------------------------------------------------------
 1/5=1,8=10,10=4,11=1,18=40,26=3,29=7,38=1/1,3;
 2/12=2,15=1,29=3,40=1/2;
 3/5=44,7=101,11=2,14=-6,25=1,30=1,71=2,74=-5,116=-2,140=1/1,2,3;
 4/5=1/1;
 5/5=2,38=6/2;
 8/6=4,10=90,11=11/1;
 11/6=1,8=1,9=11,15=111,16=1,31=1/1,2,10;
 10/6=1,13=1,31=1/2;
 6/7=2,8=2,9=2,10=2,28=1/1;
 7/10=1,18=20,25=1,30=1/1,2,3,16;
 1/5=1,8=10,10=4,11=1,18=40,26=3/3(2);
 2/15=1,29=3/2;
 99//99;
 2/15=1,29=3/2;
 3/5=44,7=101,11=2,14=-2,25=1,30=1,71=1,74=-5/1,2,3;
 4/5=5,16=3,69=1/1;
 5/5=2,38=5/2;
 7/30=1/1,2,3,16;
 1/5=1,8=10,11=1,18=40,26=3/3(-5);
 2/15=1,29=3/2;
 6/7=2,8=2,9=2,10=2,19=2,28=1/1;
 99/9=1/99;
 Structure from the checkpoint file:  "checkpoint.chk"
 -----------------
 ts_zmat_initalOpt
 -----------------
 Charge =  0 Multiplicity = 1
 Z-Matrix found in chk file.
 H
 C,1,R2
 C,2,R3,1,A3
 C,2,R4,1,A4,3,D4,0
 H,3,R5,2,A5,1,D5,0
 O,3,R6,2,A6,5,D6,0
 C,4,R7,2,A7,1,D7,0
 H,4,R8,2,A8,7,D8,0
 C,7,R9,4,A9,2,D9,0
 H,7,R10,4,A10,9,D10,0
 H,9,R11,7,A11,4,D11,0
 H,9,R12,7,A12,11,D12,0
      Variables:
 R2=1.08133858
 R3=1.40991489
 R4=1.40014433
 R5=1.09679392
 R6=1.26023036
 R7=1.3875994
 R8=1.08567487
 R9=1.39239521
 R10=1.08286561
 R11=1.08270365
 R12=1.08122927
 A3=116.53873741
 A4=119.68682049
 A5=115.64841367
 A6=128.18214383
 A7=120.78960617
 A8=118.18367396
 A9=117.20002217
 A10=120.90212058
 A11=120.76785127
 A12=118.41223862
 D4=155.53739197
 D5=12.15576224
 D6=171.33112602
 D7=-177.34447805
 D8=169.15695871
 D9=-21.14745931
 D10=170.50488149
 D11=163.60939869
 D12=152.03530586
 Recover connectivity data from disk.

 GradGradGradGradGradGradGradGradGradGradGradGradGradGradGradGradGradGrad
 Berny optimization.
 Initialization pass.
                       ----------------------------
                       !    Initial Parameters    !
                       ! (Angstroms and Degrees)  !
 ----------------------                            ----------------------
 !      Name          Value   Derivative information (Atomic Units)     !
 ------------------------------------------------------------------------
 !       R2          1.0813   calculate D2E/DX2 analytically            !
 !       R3          1.4099   calculate D2E/DX2 analytically            !
 !       R4          1.4001   calculate D2E/DX2 analytically            !
 !       R5          1.0968   calculate D2E/DX2 analytically            !
 !       R6          1.2602   calculate D2E/DX2 analytically            !
 !       R7          1.3876   calculate D2E/DX2 analytically            !
 !       R8          1.0857   calculate D2E/DX2 analytically            !
 !       R9          1.3924   calculate D2E/DX2 analytically            !
 !       R10         1.0829   calculate D2E/DX2 analytically            !
 !       R11         1.0827   calculate D2E/DX2 analytically            !
 !       R12         1.0812   calculate D2E/DX2 analytically            !
 !       A3        116.5387   calculate D2E/DX2 analytically            !
 !       A4        119.6868   calculate D2E/DX2 analytically            !
 !       A5        115.6484   calculate D2E/DX2 analytically            !
 !       A6        128.1821   calculate D2E/DX2 analytically            !
 !       A7        120.7896   calculate D2E/DX2 analytically            !
 !       A8        118.1837   calculate D2E/DX2 analytically            !
 !       A9        117.2      calculate D2E/DX2 analytically            !
 !       A10       120.9021   calculate D2E/DX2 analytically            !
 !       A11       120.7679   calculate D2E/DX2 analytically            !
 !       A12       118.4122   calculate D2E/DX2 analytically            !
 !       D4        155.5374   calculate D2E/DX2 analytically            !
 !       D5         12.1558   calculate D2E/DX2 analytically            !
 !       D6        171.3311   calculate D2E/DX2 analytically            !
 !       D7       -177.3445   calculate D2E/DX2 analytically            !
 !       D8        169.157    calculate D2E/DX2 analytically            !
 !       D9        -21.1475   calculate D2E/DX2 analytically            !
 !       D10       170.5049   calculate D2E/DX2 analytically            !
 !       D11       163.6094   calculate D2E/DX2 analytically            !
 !       D12       152.0353   calculate D2E/DX2 analytically            !
 ------------------------------------------------------------------------
 Trust Radius=1.00D-01 FncErr=1.00D-07 GrdErr=1.00D-06 EigMax=2.50D+02 EigMin=1.00D-04
 Number of steps in this run=     40 maximum allowed number of steps=    100.
 Search for a saddle point of order  1.
 GradGradGradGradGradGradGradGradGradGradGradGradGradGradGradGradGradGrad

 ---------------------------------------------------------------------------------------------------
                            Z-MATRIX (ANGSTROMS AND DEGREES)
   CD    Cent   Atom    N1       Length/X        N2       Alpha/Y        N3        Beta/Z          J
 ---------------------------------------------------------------------------------------------------
      1      1  H 
      2      2  C        1   1.081339(     1)
      3      3  C        2   1.409915(     2)      1  116.539(    12)
      4      4  C        2   1.400144(     3)      1  119.687(    13)      3  155.537(    22)      0
      5      5  H        3   1.096794(     4)      2  115.648(    14)      1   12.156(    23)      0
      6      6  O        3   1.260230(     5)      2  128.182(    15)      5  171.331(    24)      0
      7      7  C        4   1.387599(     6)      2  120.790(    16)      1 -177.344(    25)      0
      8      8  H        4   1.085675(     7)      2  118.184(    17)      7  169.157(    26)      0
      9      9  C        7   1.392395(     8)      4  117.200(    18)      2  -21.147(    27)      0
     10     10  H        7   1.082866(     9)      4  120.902(    19)      9  170.505(    28)      0
     11     11  H        9   1.082704(    10)      7  120.768(    20)      4  163.609(    29)      0
     12     12  H        9   1.081229(    11)      7  118.412(    21)     11  152.035(    30)      0
 ---------------------------------------------------------------------------------------------------
                         Z-Matrix orientation:                         
 ---------------------------------------------------------------------
 Center     Atomic      Atomic             Coordinates (Angstroms)
 Number     Number       Type             X           Y           Z
 ---------------------------------------------------------------------
      1          1           0        0.000000    0.000000    0.000000
      2          6           0        0.000000    0.000000    1.081339
      3          6           0        1.261356    0.000000    1.711292
      4          6           0       -1.107178    0.503698    1.774772
      5          1           0        2.117937    0.208196    1.058698
      6          8           0        1.516515   -0.060249    2.943950
      7          6           0       -1.109194    0.565289    3.161003
      8          1           0       -1.883214    1.006470    1.205847
      9          6           0       -0.223405   -0.270085    3.836497
     10          1           0       -1.659160    1.338693    3.682520
     11          1           0        0.018953   -0.094860    4.877077
     12          1           0       -0.136823   -1.297927    3.512303
 ---------------------------------------------------------------------
                    Distance matrix (angstroms):
                    1          2          3          4          5
     1  H    0.000000
     2  C    1.081339   0.000000
     3  C    2.125921   1.409915   0.000000
     4  C    2.151597   1.400144   2.422332   0.000000
     5  H    2.376940   2.128266   1.096794   3.316843   0.000000
     6  O    3.312143   2.402659   1.260230   2.927247   1.996984
     7  C    3.397323   2.423812   2.835615   1.387599   3.868019
     8  H    2.452253   2.138920   3.340176   1.085675   4.082660
     9  C    3.852475   2.777365   2.606522   2.372868   3.664260
    10  H    4.255099   3.363191   3.769251   2.154392   4.735919
    11  H    4.878036   3.796971   3.402169   3.354211   4.367791
    12  H    3.746947   2.759153   2.623577   2.684484   3.656847
                    6          7          8          9         10
     6  O    0.000000
     7  C    2.707906   0.000000
     8  H    3.964474   2.148577   0.000000
     9  C    1.966721   1.392395   3.362274   0.000000
    10  H    3.547878   1.082866   2.508881   2.161775   0.000000
    11  H    2.445581   2.157179   4.278913   1.082704   2.509602
    12  H    2.142055   2.130843   3.698631   1.081229   3.049303
                   11         12
    11  H    0.000000
    12  H    1.825991   0.000000
 Symmetry turned off by external request.
 Stoichiometry    C5H6O
 Framework group  C1[X(C5H6O)]
 Deg. of freedom    30
 Full point group                 C1      NOp   1
 Rotational constants (GHZ):           5.5424329           4.6779007           2.7097306
 Standard basis: def2TZVP (5D, 7F)
 The following finite field(s) will be applied:
 An electric field of              0.0040  0.0020  0.0023
   222 basis functions,   354 primitive gaussians,   252 cartesian basis functions
    22 alpha electrons       22 beta electrons
       nuclear repulsion energy       217.9338754397 Hartrees.
 NAtoms=   12 NActive=   12 NUniq=   12 SFac= 1.00D+00 NAtFMM=   60 NAOKFM=F Big=F
 Integral buffers will be    131072 words long.
 Raffenetti 2 integral format.
 Two-electron integral symmetry is turned off.
 One-electron integrals computed using PRISM.
   1 Symmetry operations used in ECPInt.
 ECPInt:  NShTT=    4095 NPrTT=   12396 LenC2=    4075 LenP2D=   10363.
 LDataN:  DoStor=T MaxTD1= 6 Len=  172
 NBasis=   222 RedAO= T EigKep=  1.15D-04  NBF=   222
 NBsUse=   222 1.00D-06 EigRej= -1.00D+00 NBFU=   222
 The nuclear repulsion energy is now       218.4470498069 hartrees.
 Initial guess from the checkpoint file:  "checkpoint.chk"
 B after Tr=     0.000000    0.000000    0.000000
         Rot=    1.000000   -0.000000    0.000000   -0.000000 Ang=   0.00 deg.
 Keep R1 ints in memory in canonical form, NReq=319363861.
 Requested convergence on RMS density matrix=1.00D-08 within 128 cycles.
 Requested convergence on MAX density matrix=1.00D-06.
 Requested convergence on             energy=1.00D-06.
 No special actions if energy rises.
 SCF Done:  E(RB3LYP) =  -269.394132288     A.U. after   10 cycles
            NFock= 10  Conv=0.92D-08     -V/T= 2.0050
 DoSCS=F DFT=T ScalE2(SS,OS)=  1.000000  1.000000
 Range of M.O.s used for correlation:     1   222
 NBasis=   222 NAE=    22 NBE=    22 NFC=     0 NFV=     0
 NROrb=    222 NOA=    22 NOB=    22 NVA=   200 NVB=   200

 **** Warning!!: The largest alpha MO coefficient is  0.19516552D+02

   1 Symmetry operations used in ECPInt.
 ECPInt:  NShTT=    4095 NPrTT=   12396 LenC2=    4075 LenP2D=   10363.
 LDataN:  DoStor=T MaxTD1= 7 Len=  274
 Symmetrizing basis deriv contribution to polar:
 IMax=3 JMax=2 DiffMx= 0.00D+00
 G2DrvN: will do    13 centers at a time, making    1 passes.
 Calling FoFCou, ICntrl=  3107 FMM=F I1Cent=   0 AccDes= 0.00D+00.
 End of G2Drv F.D. properties file   721 does not exist.
 End of G2Drv F.D. properties file   722 does not exist.
 End of G2Drv F.D. properties file   788 does not exist.
          IDoAtm=111111111111
          Differentiating once with respect to nuclear coordinates.
 Keep R1 ints in memory in canonical form, NReq=319333990.
          There are    39 degrees of freedom in the 1st order CPHF.  IDoFFX=6 NUNeed=     0.
     33 vectors produced by pass  0 Test12= 1.13D-14 2.56D-09 XBig12= 1.74D-01 2.62D-01.
 AX will form    33 AO Fock derivatives at one time.
     33 vectors produced by pass  1 Test12= 1.13D-14 2.56D-09 XBig12= 2.67D-02 4.01D-02.
     33 vectors produced by pass  2 Test12= 1.13D-14 2.56D-09 XBig12= 3.47D-04 4.21D-03.
     33 vectors produced by pass  3 Test12= 1.13D-14 2.56D-09 XBig12= 1.63D-06 1.62D-04.
     33 vectors produced by pass  4 Test12= 1.13D-14 2.56D-09 XBig12= 3.68D-09 7.82D-06.
     30 vectors produced by pass  5 Test12= 1.13D-14 2.56D-09 XBig12= 7.11D-12 3.35D-07.
      7 vectors produced by pass  6 Test12= 1.13D-14 2.56D-09 XBig12= 1.06D-14 1.35D-08.
 InvSVY:  IOpt=1 It=  1 EMax= 1.55D-15
 Solved reduced A of dimension   202 with    33 vectors.
 End of Minotr F.D. properties file   721 does not exist.
 End of Minotr F.D. properties file   722 does not exist.
 End of Minotr F.D. properties file   788 does not exist.

 **********************************************************************

            Population analysis using the SCF density.

 **********************************************************************

 Alpha  occ. eigenvalues --  -19.15451 -10.26384 -10.23257 -10.20521 -10.18058
 Alpha  occ. eigenvalues --  -10.17799  -1.05873  -0.83844  -0.76737  -0.67760
 Alpha  occ. eigenvalues --   -0.61870  -0.53771  -0.52023  -0.48129  -0.47081
 Alpha  occ. eigenvalues --   -0.45386  -0.40710  -0.39261  -0.38587  -0.33808
 Alpha  occ. eigenvalues --   -0.29960  -0.22557
 Alpha virt. eigenvalues --   -0.07973  -0.00961   0.03724   0.04410   0.06129
 Alpha virt. eigenvalues --    0.06890   0.08748   0.10257   0.11872   0.14344
 Alpha virt. eigenvalues --    0.16775   0.18903   0.19267   0.20994   0.21252
 Alpha virt. eigenvalues --    0.22000   0.23793   0.26200   0.27133   0.28026
 Alpha virt. eigenvalues --    0.29614   0.32337   0.32898   0.35037   0.37195
 Alpha virt. eigenvalues --    0.38767   0.39427   0.41364   0.41854   0.42861
 Alpha virt. eigenvalues --    0.43359   0.44425   0.44592   0.46924   0.48875
 Alpha virt. eigenvalues --    0.51743   0.52780   0.54185   0.55853   0.57171
 Alpha virt. eigenvalues --    0.60867   0.64759   0.67805   0.68567   0.74399
 Alpha virt. eigenvalues --    0.78808   0.81298   0.85962   0.86285   0.88491
 Alpha virt. eigenvalues --    0.91563   0.92922   0.95260   0.95794   0.97037
 Alpha virt. eigenvalues --    1.00328   1.02826   1.06270   1.09810   1.11088
 Alpha virt. eigenvalues --    1.13981   1.16287   1.18480   1.22439   1.22529
 Alpha virt. eigenvalues --    1.28117   1.30468   1.33393   1.38358   1.38946
 Alpha virt. eigenvalues --    1.42044   1.43034   1.45490   1.46624   1.50312
 Alpha virt. eigenvalues --    1.52313   1.56689   1.58985   1.62348   1.63981
 Alpha virt. eigenvalues --    1.65968   1.67569   1.72754   1.76937   1.77634
 Alpha virt. eigenvalues --    1.80185   1.81849   1.84701   1.87466   1.90648
 Alpha virt. eigenvalues --    1.93513   1.96075   2.04454   2.05705   2.09324
 Alpha virt. eigenvalues --    2.13768   2.14802   2.18937   2.19657   2.25024
 Alpha virt. eigenvalues --    2.26960   2.31201   2.37064   2.40332   2.43581
 Alpha virt. eigenvalues --    2.48677   2.50904   2.52081   2.53597   2.55136
 Alpha virt. eigenvalues --    2.57861   2.60458   2.62098   2.64550   2.67042
 Alpha virt. eigenvalues --    2.69430   2.69950   2.75855   2.77426   2.78556
 Alpha virt. eigenvalues --    2.80885   2.82860   2.83383   2.85532   2.88359
 Alpha virt. eigenvalues --    2.90688   2.93938   2.95563   2.97216   3.00841
 Alpha virt. eigenvalues --    3.01863   3.03676   3.05556   3.11062   3.12582
 Alpha virt. eigenvalues --    3.14099   3.16714   3.18811   3.21898   3.22683
 Alpha virt. eigenvalues --    3.24048   3.26860   3.27972   3.34204   3.35187
 Alpha virt. eigenvalues --    3.38528   3.40745   3.42670   3.44575   3.47316
 Alpha virt. eigenvalues --    3.48674   3.51366   3.57188   3.62262   3.62469
 Alpha virt. eigenvalues --    3.67558   3.84513   3.88938   3.90961   3.93200
 Alpha virt. eigenvalues --    3.96308   4.01571   4.02870   4.07575   4.10568
 Alpha virt. eigenvalues --    4.15162   4.17017   4.25093   4.29661   4.31592
 Alpha virt. eigenvalues --    4.37821   4.43139   4.47071   4.53436   4.63833
 Alpha virt. eigenvalues --    4.66023   4.71579   4.80405   4.84818   4.85991
 Alpha virt. eigenvalues --    5.04558   5.13948   5.23802   5.27844   5.50303
 Alpha virt. eigenvalues --    5.60219   5.97694   6.20034   6.32471   6.49265
 Alpha virt. eigenvalues --    6.71405   6.77027   6.95894   7.07055  22.05096
 Alpha virt. eigenvalues --   22.32970  22.49897  22.68944  22.86564  43.79766
          Condensed to atoms (all electrons):
               1          2          3          4          5          6
     1  H    0.553039   0.410991  -0.037951  -0.047957  -0.000492   0.005715
     2  C    0.410991   5.225391   0.420724   0.471191  -0.103024  -0.127148
     3  C   -0.037951   0.420724   4.670216  -0.018202   0.415124   0.502214
     4  C   -0.047957   0.471191  -0.018202   4.882164   0.001733  -0.010202
     5  H   -0.000492  -0.103024   0.415124   0.001733   0.630188  -0.036898
     6  O    0.005715  -0.127148   0.502214  -0.010202  -0.036898   7.999944
     7  C    0.009391  -0.031462  -0.056294   0.481115  -0.004875  -0.027386
     8  H   -0.006970  -0.047028   0.002842   0.419784  -0.000802  -0.000835
     9  C    0.000074  -0.000281  -0.047912  -0.086604   0.003331   0.067469
    10  H   -0.000191   0.007814  -0.002646  -0.052671   0.000041   0.000886
    11  H    0.000016  -0.000659   0.001356   0.010665  -0.000046  -0.002194
    12  H    0.000075   0.030376  -0.011147  -0.033618  -0.001550  -0.050693
               7          8          9         10         11         12
     1  H    0.009391  -0.006970   0.000074  -0.000191   0.000016   0.000075
     2  C   -0.031462  -0.047028  -0.000281   0.007814  -0.000659   0.030376
     3  C   -0.056294   0.002842  -0.047912  -0.002646   0.001356  -0.011147
     4  C    0.481115   0.419784  -0.086604  -0.052671   0.010665  -0.033618
     5  H   -0.004875  -0.000802   0.003331   0.000041  -0.000046  -0.001550
     6  O   -0.027386  -0.000835   0.067469   0.000886  -0.002194  -0.050693
     7  C    5.004766  -0.043303   0.506683   0.418019  -0.044416  -0.024002
     8  H   -0.043303   0.538178   0.010779  -0.005115  -0.000245  -0.000012
     9  C    0.506683   0.010779   4.846644  -0.042401   0.396534   0.429240
    10  H    0.418019  -0.005115  -0.042401   0.571299  -0.006871   0.006405
    11  H   -0.044416  -0.000245   0.396534  -0.006871   0.563242  -0.032356
    12  H   -0.024002  -0.000012   0.429240   0.006405  -0.032356   0.546671
 Mulliken charges:
               1
     1  H    0.114261
     2  C   -0.256885
     3  C    0.161675
     4  C   -0.017398
     5  H    0.097271
     6  O   -0.320873
     7  C   -0.188236
     8  H    0.132725
     9  C   -0.083555
    10  H    0.105432
    11  H    0.114973
    12  H    0.140610
 Sum of Mulliken charges =  -0.00000
 Mulliken charges with hydrogens summed into heavy atoms:
               1
     2  C   -0.142625
     3  C    0.258946
     4  C    0.115327
     6  O   -0.320873
     7  C   -0.082804
     9  C    0.172028
 APT charges:
               1
     1  H    0.085239
     2  C   -0.419283
     3  C   -0.379958
     4  C   -0.432782
     5  H    0.273844
     6  O    0.159479
     7  C   -0.516482
     8  H    0.297547
     9  C   -0.753722
    10  H    0.681422
    11  H    0.839876
    12  H    0.164820
 Sum of APT charges =  -0.00000
 APT charges with hydrogens summed into heavy atoms:
               1
     2  C   -0.334044
     3  C   -0.106114
     4  C   -0.135235
     6  O    0.159479
     7  C    0.164940
     9  C    0.250974
 Electronic spatial extent (au):  <R**2>=           1423.1688
 Charge=             -0.0000 electrons
 Dipole moment (field-independent basis, Debye):
    X=             -1.5564    Y=              0.1578    Z=             -0.9015  Tot=              1.8055
 Quadrupole moment (field-independent basis, Debye-Ang):
   XX=            -37.5902   YY=            -36.4331   ZZ=            -36.2201
   XY=             -1.6260   XZ=             -5.9098   YZ=             -0.4286
 Traceless Quadrupole moment (field-independent basis, Debye-Ang):
   XX=             -0.8424   YY=              0.3147   ZZ=              0.5277
   XY=             -1.6260   XZ=             -5.9098   YZ=             -0.4286
 Octapole moment (field-independent basis, Debye-Ang**2):
  XXX=             -7.1142  YYY=            -15.5047  ZZZ=           -245.9014  XYY=             -2.9673
  XXY=             -0.4575  XXZ=            -99.7093  XZZ=            -21.1556  YZZ=             -6.7255
  YYZ=            -85.8058  XYZ=             -3.8963
 Hexadecapole moment (field-independent basis, Debye-Ang**3):
 XXXX=           -295.3627 YYYY=            -80.7096 ZZZZ=          -1420.8793 XXXY=             20.1369
 XXXZ=            -10.2342 YYYX=             24.5456 YYYZ=            -30.3829 ZZZX=            -56.4021
 ZZZY=            -30.6577 XXYY=            -58.7308 XXZZ=           -356.4979 YYZZ=           -265.5682
 XXYZ=              0.6404 YYXZ=             -2.9216 ZZXY=             -4.0973
 N-N= 2.184470498069D+02 E-N=-1.064294431262D+03  KE= 2.680623528699D+02
  Exact polarizability:   0.000   0.000   0.000   0.000   0.000   0.000
 Approx polarizability: 133.048 -15.211  68.212  -4.823  -2.381 130.297
   1 Symmetry operations used in ECPInt.
 ECPInt:  NShTT=    4095 NPrTT=   12396 LenC2=    4075 LenP2D=   10363.
 LDataN:  DoStor=T MaxTD1= 8 Len=  415
 Calling FoFJK, ICntrl=    100147 FMM=F ISym2X=0 I1Cent= 0 IOpClX= 0 NMat=1 NMatS=1 NMatT=0.
 -------------------------------------------------------------------
 Center     Atomic                   Forces (Hartrees/Bohr)
 Number     Number              X              Y              Z
 -------------------------------------------------------------------
      1        1          -0.000177469   -0.000286955    0.000066389
      2        6           0.001133221    0.000282908    0.000101545
      3        6          -0.001625655    0.000073473   -0.001668469
      4        6          -0.000311967    0.000086563   -0.000164222
      5        1          -0.000002471    0.000029620   -0.000298571
      6        8           0.001956255    0.000159281    0.001503288
      7        6           0.000879868   -0.000002204    0.000560455
      8        1          -0.000011998   -0.000311157    0.000021823
      9        6          -0.001441637    0.000088733   -0.000243669
     10        1          -0.000230668   -0.000131467   -0.000050407
     11        1          -0.000176170   -0.000046118    0.000166249
     12        1           0.000008692    0.000057323    0.000005590
 -------------------------------------------------------------------
 Cartesian Forces:  Max     0.001956255 RMS     0.000681649
 -----------------------------------------------------------------------------------------------
                       Internal Coordinate Forces (Hartree/Bohr or radian)
  Cent   Atom   N1       Length/X         N2         Alpha/Y        N3         Beta/Z          J
 -----------------------------------------------------------------------------------------------
      1  H 
      2  C        1  -0.000066(     1)
      3  C        2   0.000086(     2)      1  -0.005814(    12)
      4  C        2   0.001069(     3)      1  -0.005347(    13)      3   0.000506(    22)     0
      5  H        3   0.000181(     4)      2  -0.000492(    14)      1  -0.000402(    23)     0
      6  O        3   0.001859(     5)      2   0.003856(    15)      5  -0.000351(    24)     0
      7  C        4   0.000438(     6)      2   0.004529(    16)      1  -0.002490(    25)     0
      8  H        4  -0.000147(     7)      2  -0.000052(    17)      7   0.000496(    26)     0
      9  C        7  -0.001118(     8)      4   0.001510(    18)      2  -0.001951(    27)     0
     10  H        7  -0.000001(     9)      4  -0.000132(    19)      9   0.000461(    28)     0
     11  H        9   0.000113(    10)      7  -0.000146(    20)      4   0.000396(    29)     0
     12  H        9  -0.000055(    11)      7   0.000001(    21)     11   0.000032(    30)     0
 -----------------------------------------------------------------------------------------------
 Internal  Forces:  Max     0.005814388 RMS     0.001980201

 GradGradGradGradGradGradGradGradGradGradGradGradGradGradGradGradGradGrad
 Berny optimization.
 Search for a saddle point.
 Step number   1 out of a maximum of   40
 All quantities printed in internal units (Hartrees-Bohrs-Radians)
 Swapping is turned off.
 Second derivative matrix not updated -- analytic derivatives used.
 ITU=  0
     Eigenvalues ---   -0.92991   0.02335   0.02917   0.04479   0.04888
     Eigenvalues ---    0.05750   0.11241   0.11960   0.14308   0.15378
     Eigenvalues ---    0.18015   0.20273   0.22889   0.25779   0.29693
     Eigenvalues ---    0.32284   0.34093   0.34964   0.35311   0.35766
     Eigenvalues ---    0.36330   0.38753   0.41320   0.43928   0.49252
     Eigenvalues ---    0.52646   0.57737   0.70936   0.98182   1.92702
 Eigenvectors required to have negative eigenvalues:
                          A7        A4        A3        D12       R6
   1                    0.39669  -0.39115  -0.35616   0.28346  -0.27209
                          R9        A9        R3        D11       R7
   1                   -0.26807   0.26599   0.21817   0.21377   0.20483
 RFO step:  Lambda0=5.773976073D-05 Lambda=-9.16876184D-05.
 Linear search not attempted -- option 19 set.
 Variable       Old X    -DE/DX   Delta X   Delta X   Delta X     New X
                                 (Linear)    (Quad)   (Total)
    R2        2.04343  -0.00007   0.00000  -0.00037  -0.00037   2.04307
    R3        2.66435   0.00009   0.00000  -0.00591  -0.00591   2.65844
    R4        2.64589   0.00107   0.00000   0.00243   0.00243   2.64832
    R5        2.07264   0.00018   0.00000  -0.00009  -0.00009   2.07255
    R6        2.38149   0.00186   0.00000   0.00678   0.00678   2.38827
    R7        2.62218   0.00044   0.00000  -0.00248  -0.00248   2.61970
    R8        2.05163  -0.00015   0.00000  -0.00059  -0.00059   2.05104
    R9        2.63125  -0.00112   0.00000   0.00159   0.00159   2.63284
   R10        2.04632  -0.00000   0.00000  -0.00024  -0.00024   2.04608
   R11        2.04601   0.00011   0.00000   0.00038   0.00038   2.04639
   R12        2.04323  -0.00006   0.00000   0.00020   0.00020   2.04343
    A3        2.03398  -0.00581   0.00000   0.00283   0.00283   2.03682
    A4        2.08893  -0.00535   0.00000   0.00028   0.00028   2.08921
    A5        2.01845  -0.00049   0.00000   0.00022   0.00022   2.01867
    A6        2.23720   0.00386   0.00000   0.00195   0.00195   2.23915
    A7        2.10818   0.00453   0.00000  -0.00176  -0.00176   2.10642
    A8        2.06269  -0.00005   0.00000   0.00031   0.00031   2.06301
    A9        2.04553   0.00151   0.00000  -0.00192  -0.00192   2.04361
   A10        2.11014  -0.00013   0.00000   0.00251   0.00251   2.11265
   A11        2.10780  -0.00015   0.00000  -0.00135  -0.00135   2.10644
   A12        2.06668   0.00000   0.00000  -0.00150  -0.00150   2.06518
    D4        2.71464   0.00051   0.00000   0.01469   0.01469   2.72933
    D5        0.21216  -0.00040   0.00000   0.00288   0.00288   0.21503
    D6        2.99029  -0.00035   0.00000  -0.00189  -0.00189   2.98841
    D7       -3.09525  -0.00249   0.00000  -0.01013  -0.01013  -3.10537
    D8        2.95235   0.00050   0.00000   0.00382   0.00382   2.95617
    D9       -0.36909  -0.00195   0.00000  -0.00004  -0.00004  -0.36913
   D10        2.97587   0.00046   0.00000   0.01481   0.01481   2.99068
   D11        2.85552   0.00040   0.00000   0.00734   0.00734   2.86286
   D12        2.65352   0.00003   0.00000  -0.00951  -0.00951   2.64400
         Item               Value     Threshold  Converged?
 Maximum Force            0.005814     0.000450     NO 
 RMS     Force            0.001980     0.000300     NO 
 Maximum Displacement     0.014811     0.001800     NO 
 RMS     Displacement     0.005273     0.001200     NO 
 Predicted change in Energy=-1.700755D-05
 GradGradGradGradGradGradGradGradGradGradGradGradGradGradGradGradGradGrad

 ---------------------------------------------------------------------------------------------------
                            Z-MATRIX (ANGSTROMS AND DEGREES)
   CD    Cent   Atom    N1       Length/X        N2       Alpha/Y        N3        Beta/Z          J
 ---------------------------------------------------------------------------------------------------
      1      1  H 
      2      2  C        1   1.081144(     1)
      3      3  C        2   1.406786(     2)      1  116.701(    12)
      4      4  C        2   1.401428(     3)      1  119.703(    13)      3  156.379(    22)      0
      5      5  H        3   1.096747(     4)      2  115.661(    14)      1   12.321(    23)      0
      6      6  O        3   1.263816(     5)      2  128.294(    15)      5  171.223(    24)      0
      7      7  C        4   1.386285(     6)      2  120.689(    16)      1 -177.925(    25)      0
      8      8  H        4   1.085365(     7)      2  118.202(    17)      7  169.376(    26)      0
      9      9  C        7   1.393238(     8)      4  117.090(    18)      2  -21.150(    27)      0
     10     10  H        7   1.082740(     9)      4  121.046(    19)      9  171.353(    28)      0
     11     11  H        9   1.082905(    10)      7  120.690(    20)      4  164.030(    29)      0
     12     12  H        9   1.081334(    11)      7  118.326(    21)     11  151.490(    30)      0
 ---------------------------------------------------------------------------------------------------
                         Z-Matrix orientation:                         
 ---------------------------------------------------------------------
 Center     Atomic      Atomic             Coordinates (Angstroms)
 Number     Number       Type             X           Y           Z
 ---------------------------------------------------------------------
      1          1           0        0.000000    0.000000    0.000000
      2          6           0        0.000000    0.000000    1.081144
      3          6           0        1.256772    0.000000    1.713260
      4          6           0       -1.115303    0.487744    1.775555
      5          1           0        2.115042    0.210943    1.063852
      6          8           0        1.511592   -0.061309    2.949601
      7          6           0       -1.120221    0.537010    3.160956
      8          1           0       -1.895953    0.984327    1.208098
      9          6           0       -0.226171   -0.297221    3.828672
     10          1           0       -1.688495    1.291050    3.690874
     11          1           0        0.008183   -0.133175    4.873110
     12          1           0       -0.132314   -1.321235    3.494200
 ---------------------------------------------------------------------
                    Distance matrix (angstroms):
                    1          2          3          4          5
     1  H    0.000000
     2  C    1.081144   0.000000
     3  C    2.124791   1.406786   0.000000
     4  C    2.152763   1.401428   2.422502   0.000000
     5  H    2.376906   2.125606   1.096747   3.319378   0.000000
     6  O    3.314939   2.404122   1.263816   2.929236   1.998580
     7  C    3.396309   2.422580   2.834484   1.386285   3.869250
     8  H    2.454188   2.140013   3.341222   1.085365   4.087421
     9  C    3.846846   2.772797   2.600467   2.371079   3.658379
    10  H    4.259152   3.365786   3.775231   2.154599   4.747080
    11  H    4.874936   3.794312   3.400200   3.352999   4.366660
    12  H    3.737995   2.754271   2.616672   2.681867   3.647571
                    6          7          8          9         10
     6  O    0.000000
     7  C    2.707231   0.000000
     8  H    3.967058   2.148373   0.000000
     9  C    1.961693   1.393238   3.361242   0.000000
    10  H    3.552312   1.082740   2.510238   2.163328   0.000000
    11  H    2.442394   2.157293   4.278651   1.082905   2.510939
    12  H    2.141596   2.130747   3.694902   1.081334   3.047033
                   11         12
    11  H    0.000000
    12  H    1.825546   0.000000
 Symmetry turned off by external request.
 Stoichiometry    C5H6O
 Framework group  C1[X(C5H6O)]
 Deg. of freedom    30
 Full point group                 C1      NOp   1
 Rotational constants (GHZ):           5.5477771           4.6812273           2.7114987
 Standard basis: def2TZVP (5D, 7F)
 The following finite field(s) will be applied:
 An electric field of              0.0040  0.0020  0.0023
   222 basis functions,   354 primitive gaussians,   252 cartesian basis functions
    22 alpha electrons       22 beta electrons
       nuclear repulsion energy       217.9692913909 Hartrees.
 NAtoms=   12 NActive=   12 NUniq=   12 SFac= 1.00D+00 NAtFMM=   60 NAOKFM=F Big=F
 Integral buffers will be    131072 words long.
 Raffenetti 2 integral format.
 Two-electron integral symmetry is turned off.
 One-electron integrals computed using PRISM.
   1 Symmetry operations used in ECPInt.
 ECPInt:  NShTT=    4095 NPrTT=   12396 LenC2=    4075 LenP2D=   10365.
 LDataN:  DoStor=T MaxTD1= 6 Len=  172
 NBasis=   222 RedAO= T EigKep=  1.13D-04  NBF=   222
 NBsUse=   222 1.00D-06 EigRej= -1.00D+00 NBFU=   222
 The nuclear repulsion energy is now       218.4784746889 hartrees.
 Initial guess from the checkpoint file:  "checkpoint.chk"
 B after Tr=     0.003720    0.012155   -0.001864
         Rot=    0.999981   -0.004093    0.001357   -0.004466 Ang=  -0.71 deg.
 Keep R1 ints in memory in canonical form, NReq=319363861.
 Requested convergence on RMS density matrix=1.00D-08 within 128 cycles.
 Requested convergence on MAX density matrix=1.00D-06.
 Requested convergence on             energy=1.00D-06.
 No special actions if energy rises.
 SCF Done:  E(RB3LYP) =  -269.394149868     A.U. after   11 cycles
            NFock= 11  Conv=0.34D-08     -V/T= 2.0050
   1 Symmetry operations used in ECPInt.
 ECPInt:  NShTT=    4095 NPrTT=   12396 LenC2=    4075 LenP2D=   10365.
 LDataN:  DoStor=T MaxTD1= 7 Len=  274
 Calling FoFJK, ICntrl=      2127 FMM=F ISym2X=0 I1Cent= 0 IOpClX= 0 NMat=1 NMatS=1 NMatT=0.
 -------------------------------------------------------------------
 Center     Atomic                   Forces (Hartrees/Bohr)
 Number     Number              X              Y              Z
 -------------------------------------------------------------------
      1        1           0.000022947   -0.000090826   -0.000000663
      2        6          -0.000008482   -0.000482891   -0.000004969
      3        6           0.000006145    0.000607547   -0.000070514
      4        6          -0.000024441   -0.000009239    0.000015240
      5        1           0.000001999   -0.000000599   -0.000000220
      6        8          -0.000015109   -0.000020904    0.000069607
      7        6          -0.000011039    0.000011762   -0.000016985
      8        1          -0.000001424   -0.000000091    0.000001006
      9        6           0.000047113   -0.000007057    0.000007065
     10        1          -0.000009158   -0.000003368   -0.000001416
     11        1          -0.000001171    0.000001069    0.000000430
     12        1          -0.000007382   -0.000005404    0.000001418
 -------------------------------------------------------------------
 Cartesian Forces:  Max     0.000607547 RMS     0.000131832
 -----------------------------------------------------------------------------------------------
                       Internal Coordinate Forces (Hartree/Bohr or radian)
  Cent   Atom   N1       Length/X         N2         Alpha/Y        N3         Beta/Z          J
 -----------------------------------------------------------------------------------------------
      1  H 
      2  C        1   0.000001(     1)
      3  C        2  -0.000007(     2)      1   0.000077(    12)
      4  C        2   0.000005(     3)      1   0.000083(    13)      3   0.000076(    22)     0
      5  H        3   0.000002(     4)      2   0.000002(    14)      1   0.000030(    23)     0
      6  O        3   0.000066(     5)      2  -0.000070(    15)      5   0.000031(    24)     0
      7  C        4  -0.000010(     6)      2  -0.000066(    16)      1   0.000047(    25)     0
      8  H        4   0.000000(     7)      2   0.000003(    17)      7   0.000001(    26)     0
      9  C        7   0.000036(     8)      4  -0.000020(    18)      2   0.000045(    27)     0
     10  H        7   0.000002(     9)      4  -0.000006(    19)      9   0.000016(    28)     0
     11  H        9   0.000000(    10)      7  -0.000003(    20)      4  -0.000013(    29)     0
     12  H        9   0.000004(    11)      7  -0.000006(    21)     11  -0.000014(    30)     0
 -----------------------------------------------------------------------------------------------
 Internal  Forces:  Max     0.000083016 RMS     0.000036935

 GradGradGradGradGradGradGradGradGradGradGradGradGradGradGradGradGradGrad
 Berny optimization.
 Search for a saddle point.
 Step number   2 out of a maximum of   40
 All quantities printed in internal units (Hartrees-Bohrs-Radians)
 Swapping is turned off.
 Update second derivatives using D2CorN and points    1    2
 ITU=  0  0
     Eigenvalues ---   -0.93128   0.02247   0.02914   0.04483   0.04868
     Eigenvalues ---    0.05746   0.11235   0.11969   0.14302   0.15378
     Eigenvalues ---    0.18018   0.20274   0.22891   0.25778   0.29693
     Eigenvalues ---    0.32284   0.34093   0.34964   0.35311   0.35766
     Eigenvalues ---    0.36330   0.38753   0.41333   0.43931   0.49253
     Eigenvalues ---    0.52646   0.57740   0.70915   0.98186   1.92739
 Eigenvectors required to have negative eigenvalues:
                          A7        A4        A3        D12       R6
   1                    0.39667  -0.39111  -0.35632   0.28400  -0.27243
                          R9        A9        R3        D11       R7
   1                   -0.26801   0.26590   0.21837   0.21292   0.20482
 RFO step:  Lambda0=2.216832695D-08 Lambda=-1.42230338D-07.
 Linear search not attempted -- option 19 set.
 Variable       Old X    -DE/DX   Delta X   Delta X   Delta X     New X
                                 (Linear)    (Quad)   (Total)
    R2        2.04307   0.00000   0.00000  -0.00000  -0.00000   2.04306
    R3        2.65844  -0.00001   0.00000   0.00005   0.00005   2.65849
    R4        2.64832   0.00001   0.00000  -0.00005  -0.00005   2.64826
    R5        2.07255   0.00000   0.00000   0.00002   0.00002   2.07257
    R6        2.38827   0.00007   0.00000   0.00005   0.00005   2.38832
    R7        2.61970  -0.00001   0.00000   0.00006   0.00006   2.61975
    R8        2.05104   0.00000   0.00000   0.00000   0.00000   2.05105
    R9        2.63284   0.00004   0.00000  -0.00001  -0.00001   2.63283
   R10        2.04608   0.00000   0.00000   0.00001   0.00001   2.04609
   R11        2.04639   0.00000   0.00000   0.00000   0.00000   2.04640
   R12        2.04343   0.00000   0.00000  -0.00001  -0.00001   2.04342
    A3        2.03682   0.00008   0.00000   0.00006   0.00006   2.03687
    A4        2.08921   0.00008   0.00000   0.00025   0.00025   2.08946
    A5        2.01867   0.00000   0.00000  -0.00001  -0.00001   2.01866
    A6        2.23915  -0.00007   0.00000  -0.00002  -0.00002   2.23913
    A7        2.10642  -0.00007   0.00000  -0.00000  -0.00000   2.10642
    A8        2.06301   0.00000   0.00000   0.00002   0.00002   2.06303
    A9        2.04361  -0.00002   0.00000   0.00011   0.00011   2.04372
   A10        2.11265  -0.00001   0.00000  -0.00006  -0.00006   2.11259
   A11        2.10644  -0.00000   0.00000  -0.00002  -0.00002   2.10642
   A12        2.06518  -0.00001   0.00000   0.00002   0.00002   2.06520
    D4        2.72933   0.00008   0.00000   0.00151   0.00151   2.73084
    D5        0.21503   0.00003   0.00000   0.00108   0.00108   0.21611
    D6        2.98841   0.00003   0.00000   0.00004   0.00004   2.98844
    D7       -3.10537   0.00005   0.00000  -0.00083  -0.00083  -3.10621
    D8        2.95617   0.00000   0.00000  -0.00001  -0.00001   2.95616
    D9       -0.36913   0.00004   0.00000  -0.00043  -0.00043  -0.36956
   D10        2.99068   0.00002   0.00000   0.00030   0.00030   2.99099
   D11        2.86286  -0.00001   0.00000   0.00006   0.00006   2.86291
   D12        2.64400  -0.00001   0.00000   0.00006   0.00006   2.64406
         Item               Value     Threshold  Converged?
 Maximum Force            0.000083     0.000450     YES
 RMS     Force            0.000037     0.000300     YES
 Maximum Displacement     0.001507     0.001800     YES
 RMS     Displacement     0.000388     0.001200     YES
 Predicted change in Energy=-6.003101D-08
 Optimization completed.
    -- Stationary point found.
                       ----------------------------
                       !   Optimized Parameters   !
                       ! (Angstroms and Degrees)  !
 ----------------------                            ----------------------
 !      Name          Value   Derivative information (Atomic Units)     !
 ------------------------------------------------------------------------
 !       R2          1.0811   -DE/DX =    0.0                           !
 !       R3          1.4068   -DE/DX =    0.0                           !
 !       R4          1.4014   -DE/DX =    0.0                           !
 !       R5          1.0967   -DE/DX =    0.0                           !
 !       R6          1.2638   -DE/DX =    0.0001                        !
 !       R7          1.3863   -DE/DX =    0.0                           !
 !       R8          1.0854   -DE/DX =    0.0                           !
 !       R9          1.3932   -DE/DX =    0.0                           !
 !       R10         1.0827   -DE/DX =    0.0                           !
 !       R11         1.0829   -DE/DX =    0.0                           !
 !       R12         1.0813   -DE/DX =    0.0                           !
 !       A3        116.7009   -DE/DX =    0.0001                        !
 !       A4        119.7029   -DE/DX =    0.0001                        !
 !       A5        115.6613   -DE/DX =    0.0                           !
 !       A6        128.2936   -DE/DX =   -0.0001                        !
 !       A7        120.689    -DE/DX =   -0.0001                        !
 !       A8        118.2017   -DE/DX =    0.0                           !
 !       A9        117.0902   -DE/DX =    0.0                           !
 !       A10       121.0458   -DE/DX =    0.0                           !
 !       A11       120.6903   -DE/DX =    0.0                           !
 !       A12       118.3261   -DE/DX =    0.0                           !
 !       D4        156.3793   -DE/DX =    0.0001                        !
 !       D5         12.3206   -DE/DX =    0.0                           !
 !       D6        171.2231   -DE/DX =    0.0                           !
 !       D7       -177.9248   -DE/DX =    0.0                           !
 !       D8        169.376    -DE/DX =    0.0                           !
 !       D9        -21.1497   -DE/DX =    0.0                           !
 !       D10       171.3535   -DE/DX =    0.0                           !
 !       D11       164.0298   -DE/DX =    0.0                           !
 !       D12       151.4902   -DE/DX =    0.0                           !
 ------------------------------------------------------------------------
 GradGradGradGradGradGradGradGradGradGradGradGradGradGradGradGradGradGrad

 ---------------------------------------------------------------------------------------------------
                            Z-MATRIX (ANGSTROMS AND DEGREES)
   CD    Cent   Atom    N1       Length/X        N2       Alpha/Y        N3        Beta/Z          J
 ---------------------------------------------------------------------------------------------------
      1      1  H 
      2      2  C        1   1.081144(     1)
      3      3  C        2   1.406786(     2)      1  116.701(    12)
      4      4  C        2   1.401428(     3)      1  119.703(    13)      3  156.379(    22)      0
      5      5  H        3   1.096747(     4)      2  115.661(    14)      1   12.321(    23)      0
      6      6  O        3   1.263816(     5)      2  128.294(    15)      5  171.223(    24)      0
      7      7  C        4   1.386285(     6)      2  120.689(    16)      1 -177.925(    25)      0
      8      8  H        4   1.085365(     7)      2  118.202(    17)      7  169.376(    26)      0
      9      9  C        7   1.393238(     8)      4  117.090(    18)      2  -21.150(    27)      0
     10     10  H        7   1.082740(     9)      4  121.046(    19)      9  171.353(    28)      0
     11     11  H        9   1.082905(    10)      7  120.690(    20)      4  164.030(    29)      0
     12     12  H        9   1.081334(    11)      7  118.326(    21)     11  151.490(    30)      0
 ---------------------------------------------------------------------------------------------------
                         Z-Matrix orientation:                         
 ---------------------------------------------------------------------
 Center     Atomic      Atomic             Coordinates (Angstroms)
 Number     Number       Type             X           Y           Z
 ---------------------------------------------------------------------
      1          1           0        0.000000    0.000000    0.000000
      2          6           0        0.000000    0.000000    1.081144
      3          6           0        1.256772    0.000000    1.713260
      4          6           0       -1.115303    0.487744    1.775555
      5          1           0        2.115042    0.210943    1.063852
      6          8           0        1.511592   -0.061309    2.949601
      7          6           0       -1.120221    0.537010    3.160956
      8          1           0       -1.895953    0.984327    1.208098
      9          6           0       -0.226171   -0.297221    3.828672
     10          1           0       -1.688495    1.291050    3.690874
     11          1           0        0.008183   -0.133175    4.873110
     12          1           0       -0.132314   -1.321235    3.494200
 ---------------------------------------------------------------------
                    Distance matrix (angstroms):
                    1          2          3          4          5
     1  H    0.000000
     2  C    1.081144   0.000000
     3  C    2.124791   1.406786   0.000000
     4  C    2.152763   1.401428   2.422502   0.000000
     5  H    2.376906   2.125606   1.096747   3.319378   0.000000
     6  O    3.314939   2.404122   1.263816   2.929236   1.998580
     7  C    3.396309   2.422580   2.834484   1.386285   3.869250
     8  H    2.454188   2.140013   3.341222   1.085365   4.087421
     9  C    3.846846   2.772797   2.600467   2.371079   3.658379
    10  H    4.259152   3.365786   3.775231   2.154599   4.747080
    11  H    4.874936   3.794312   3.400200   3.352999   4.366660
    12  H    3.737995   2.754271   2.616672   2.681867   3.647571
                    6          7          8          9         10
     6  O    0.000000
     7  C    2.707231   0.000000
     8  H    3.967058   2.148373   0.000000
     9  C    1.961693   1.393238   3.361242   0.000000
    10  H    3.552312   1.082740   2.510238   2.163328   0.000000
    11  H    2.442394   2.157293   4.278651   1.082905   2.510939
    12  H    2.141596   2.130747   3.694902   1.081334   3.047033
                   11         12
    11  H    0.000000
    12  H    1.825546   0.000000
 Symmetry turned off by external request.
 Stoichiometry    C5H6O
 Framework group  C1[X(C5H6O)]
 Deg. of freedom    30
 Full point group                 C1      NOp   1
 Rotational constants (GHZ):           5.5477771           4.6812273           2.7114987

 **********************************************************************

            Population analysis using the SCF density.

 **********************************************************************

 Alpha  occ. eigenvalues --  -19.15478 -10.26331 -10.23343 -10.20491 -10.18014
 Alpha  occ. eigenvalues --  -10.17785  -1.05723  -0.83848  -0.76751  -0.67788
 Alpha  occ. eigenvalues --   -0.61862  -0.53764  -0.52026  -0.48107  -0.47050
 Alpha  occ. eigenvalues --   -0.45365  -0.40674  -0.39211  -0.38573  -0.33875
 Alpha  occ. eigenvalues --   -0.29956  -0.22527
 Alpha virt. eigenvalues --   -0.08002  -0.00889   0.03739   0.04441   0.06160
 Alpha virt. eigenvalues --    0.06924   0.08757   0.10259   0.11879   0.14365
 Alpha virt. eigenvalues --    0.16734   0.18920   0.19301   0.21071   0.21221
 Alpha virt. eigenvalues --    0.22045   0.23822   0.26164   0.27194   0.28032
 Alpha virt. eigenvalues --    0.29635   0.32349   0.32890   0.35008   0.37171
 Alpha virt. eigenvalues --    0.38754   0.39439   0.41387   0.41807   0.42873
 Alpha virt. eigenvalues --    0.43383   0.44407   0.44598   0.46944   0.48896
 Alpha virt. eigenvalues --    0.51763   0.52842   0.54495   0.55863   0.57106
 Alpha virt. eigenvalues --    0.60841   0.64759   0.67787   0.68753   0.74543
 Alpha virt. eigenvalues --    0.78648   0.81351   0.85882   0.86596   0.88385
 Alpha virt. eigenvalues --    0.91522   0.92909   0.95282   0.95748   0.97099
 Alpha virt. eigenvalues --    1.00345   1.02899   1.06329   1.09929   1.11044
 Alpha virt. eigenvalues --    1.14069   1.16295   1.18385   1.22457   1.22554
 Alpha virt. eigenvalues --    1.28110   1.30717   1.33513   1.38444   1.38976
 Alpha virt. eigenvalues --    1.42162   1.43034   1.45467   1.46596   1.50279
 Alpha virt. eigenvalues --    1.52321   1.56784   1.59060   1.62410   1.64056
 Alpha virt. eigenvalues --    1.66044   1.67528   1.72654   1.77086   1.77607
 Alpha virt. eigenvalues --    1.80244   1.81970   1.84783   1.87848   1.90645
 Alpha virt. eigenvalues --    1.93484   1.96145   2.04655   2.05583   2.09201
 Alpha virt. eigenvalues --    2.13529   2.14776   2.19139   2.19691   2.25001
 Alpha virt. eigenvalues --    2.26915   2.31206   2.37220   2.40755   2.43774
 Alpha virt. eigenvalues --    2.48624   2.50830   2.52113   2.53907   2.55320
 Alpha virt. eigenvalues --    2.57703   2.60481   2.62056   2.64597   2.67185
 Alpha virt. eigenvalues --    2.69482   2.69999   2.75828   2.77521   2.78325
 Alpha virt. eigenvalues --    2.80867   2.82852   2.83518   2.85540   2.88153
 Alpha virt. eigenvalues --    2.90654   2.94074   2.95339   2.97336   3.00758
 Alpha virt. eigenvalues --    3.01941   3.03811   3.05553   3.11100   3.12708
 Alpha virt. eigenvalues --    3.14259   3.16953   3.18934   3.21950   3.22659
 Alpha virt. eigenvalues --    3.24258   3.27012   3.28083   3.34014   3.35329
 Alpha virt. eigenvalues --    3.38717   3.40863   3.42696   3.44276   3.47139
 Alpha virt. eigenvalues --    3.48814   3.51325   3.57194   3.62370   3.62588
 Alpha virt. eigenvalues --    3.67814   3.84766   3.88823   3.91078   3.93163
 Alpha virt. eigenvalues --    3.96286   4.01700   4.03172   4.07685   4.10588
 Alpha virt. eigenvalues --    4.15094   4.17223   4.25330   4.29545   4.31759
 Alpha virt. eigenvalues --    4.37894   4.43133   4.47699   4.53514   4.63965
 Alpha virt. eigenvalues --    4.66044   4.71544   4.80496   4.84879   4.86245
 Alpha virt. eigenvalues --    5.04913   5.14194   5.23905   5.28068   5.49865
 Alpha virt. eigenvalues --    5.59863   5.97036   6.19391   6.31815   6.49428
 Alpha virt. eigenvalues --    6.71516   6.76923   6.95693   7.07124  22.05230
 Alpha virt. eigenvalues --   22.33154  22.49690  22.68890  22.86843  43.79886
          Condensed to atoms (all electrons):
               1          2          3          4          5          6
     1  H    0.552202   0.410885  -0.037511  -0.047798  -0.000765   0.005662
     2  C    0.410885   5.223160   0.425471   0.469588  -0.102067  -0.126535
     3  C   -0.037511   0.425471   4.669842  -0.019836   0.415653   0.498263
     4  C   -0.047798   0.469588  -0.019836   4.879932   0.001817  -0.010430
     5  H   -0.000765  -0.102067   0.415653   0.001817   0.628126  -0.036883
     6  O    0.005662  -0.126535   0.498263  -0.010430  -0.036883   8.002521
     7  C    0.009343  -0.033367  -0.055296   0.486007  -0.004681  -0.026646
     8  H   -0.006830  -0.046908   0.002901   0.419953  -0.000779  -0.000818
     9  C    0.000096  -0.000678  -0.047802  -0.087203   0.003508   0.070785
    10  H   -0.000185   0.007858  -0.002561  -0.052176   0.000045   0.000942
    11  H    0.000017  -0.000534   0.001335   0.010520  -0.000057  -0.002519
    12  H    0.000086   0.030773  -0.011023  -0.033813  -0.001544  -0.051276
               7          8          9         10         11         12
     1  H    0.009343  -0.006830   0.000096  -0.000185   0.000017   0.000086
     2  C   -0.033367  -0.046908  -0.000678   0.007858  -0.000534   0.030773
     3  C   -0.055296   0.002901  -0.047802  -0.002561   0.001335  -0.011023
     4  C    0.486007   0.419953  -0.087203  -0.052176   0.010520  -0.033813
     5  H   -0.004681  -0.000779   0.003508   0.000045  -0.000057  -0.001544
     6  O   -0.026646  -0.000818   0.070785   0.000942  -0.002519  -0.051276
     7  C    5.005002  -0.043207   0.503852   0.417806  -0.044101  -0.024654
     8  H   -0.043207   0.537516   0.010717  -0.005190  -0.000243  -0.000021
     9  C    0.503852   0.010717   4.843628  -0.042029   0.396361   0.429667
    10  H    0.417806  -0.005190  -0.042029   0.569381  -0.006741   0.006353
    11  H   -0.044101  -0.000243   0.396361  -0.006741   0.562821  -0.032236
    12  H   -0.024654  -0.000021   0.429667   0.006353  -0.032236   0.547227
 Mulliken charges:
               1
     1  H    0.114799
     2  C   -0.257646
     3  C    0.160565
     4  C   -0.016560
     5  H    0.097625
     6  O   -0.323066
     7  C   -0.190057
     8  H    0.132908
     9  C   -0.080902
    10  H    0.106496
    11  H    0.115378
    12  H    0.140461
 Sum of Mulliken charges =  -0.00000
 Mulliken charges with hydrogens summed into heavy atoms:
               1
     2  C   -0.142847
     3  C    0.258189
     4  C    0.116349
     6  O   -0.323066
     7  C   -0.083561
     9  C    0.174936
 Electronic spatial extent (au):  <R**2>=           1422.3474
 Charge=             -0.0000 electrons
 Dipole moment (field-independent basis, Debye):
    X=             -1.5896    Y=              0.1238    Z=             -0.8865  Tot=              1.8243
 Quadrupole moment (field-independent basis, Debye-Ang):
   XX=            -37.5059   YY=            -36.4950   ZZ=            -36.1355
   XY=             -1.6129   XZ=             -6.0327   YZ=             -0.5491
 Traceless Quadrupole moment (field-independent basis, Debye-Ang):
   XX=             -0.7937   YY=              0.2171   ZZ=              0.5766
   XY=             -1.6129   XZ=             -6.0327   YZ=             -0.5491
 Octapole moment (field-independent basis, Debye-Ang**2):
  XXX=             -6.7107  YYY=            -14.2297  ZZZ=           -245.4719  XYY=             -2.6573
  XXY=              0.1020  XXZ=            -99.4121  XZZ=            -21.5430  YZZ=             -6.7389
  YYZ=            -85.9729  XYZ=             -3.9202
 Hexadecapole moment (field-independent basis, Debye-Ang**3):
 XXXX=           -295.7703 YYYY=            -79.4139 ZZZZ=          -1417.7027 XXXY=             19.0589
 XXXZ=             -9.3932 YYYX=             23.9444 YYYZ=            -26.3939 ZZZX=            -57.8014
 ZZZY=            -28.3680 XXYY=            -58.8854 XXZZ=           -355.3765 YYZZ=           -265.7778
 XXYZ=              2.4463 YYXZ=             -2.1210 ZZXY=             -4.5857
 N-N= 2.184784746889D+02 E-N=-1.064357729513D+03  KE= 2.680566439332D+02
 1\1\GINC-BHC0108\FTS\RB3LYP\def2TZVP\C5H6O1\DHANAWAY\21-Mar-2022\1\\# 
 Opt=(TS, CalcFC, noeigentest, Z-matrix, MaxStep=10) geom=allcheckpoint
  guess=read Field=read NoSymm B3LYP/Def2TZVP\\ts_zmat_initalOpt\\0,1\H
 \C,1,R2\C,2,R3,1,A3\C,2,R4,1,A4,3,D4,0\H,3,R5,2,A5,1,D5,0\O,3,R6,2,A6,
 5,D6,0\C,4,R7,2,A7,1,D7,0\H,4,R8,2,A8,7,D8,0\C,7,R9,4,A9,2,D9,0\H,7,R1
 0,4,A10,9,D10,0\H,9,R11,7,A11,4,D11,0\H,9,R12,7,A12,11,D12,0\\R2=1.081
 14393\R3=1.40678639\R4=1.40142814\R5=1.09674731\R6=1.26381613\R7=1.386
 2852\R8=1.0853651\R9=1.39323799\R10=1.08273994\R11=1.08290483\R12=1.08
 133438\A3=116.70092904\A4=119.70288885\A5=115.66127462\A6=128.29362879
 \A7=120.68903424\A8=118.20167316\A9=117.09023924\A10=121.04576301\A11=
 120.6903197\A12=118.3260587\D4=156.379309\D5=12.32057171\D6=171.223098
 19\D7=-177.9248458\D8=169.37604673\D9=-21.14971143\D10=171.35347718\D1
 1=164.02975245\D12=151.49021355\\Version=ES64L-G16RevA.03\HF=-269.3941
 499\RMSD=3.379e-09\RMSF=1.318e-04\Dipole=-0.6254053,0.0486984,-0.34875
 9\Quadrupole=-0.5901271,0.1614291,0.428698,-1.1991782,-4.4851829,-0.40
 82603\PG=C01 [X(C5H6O1)]\\@


 IF YOU WANT TO LEARN FROM THE THEORETICAL PHYSICISTS ABOUT THE
 METHODS WHICH THEY USE, I ADVISE YOU TO FOLLOW THIS PRINCIPLE VERY STRICTLY:
 DON'T LISTEN TO THEIR WORDS; PAY ATTENTION, INSTEAD, TO THEIR ACTIONS.
 -- A.EINSTEIN, 1934
 Job cpu time:       0 days  0 hours 38 minutes 17.4 seconds.
 Elapsed time:       0 days  0 hours  3 minutes 29.1 seconds.
 File lengths (MBytes):  RWF=     53 Int=      0 D2E=      0 Chk=     32 Scr=      1
 Normal termination of Gaussian 16 at Mon Mar 21 08:09:57 2022.
