 Entering Gaussian System, Link 0=g16
 Input=ts_zmat_field_N75.gjf
 Output=ts_zmat_field_N75.out
 Initial command:
 /software/gaussian/g16-a03/l1.exe "/local_scratch/11174546/Gau-15577.inp" -scrdir="/local_scratch/11174546/"
 Entering Link 1 = /software/gaussian/g16-a03/l1.exe PID=     15578.
  
 Copyright (c) 1988,1990,1992,1993,1995,1998,2003,2009,2016,
            Gaussian, Inc.  All Rights Reserved.
  
 This is part of the Gaussian(R) 16 program.  It is based on
 the Gaussian(R) 09 system (copyright 2009, Gaussian, Inc.),
 the Gaussian(R) 03 system (copyright 2003, Gaussian, Inc.),
 the Gaussian(R) 98 system (copyright 1998, Gaussian, Inc.),
 the Gaussian(R) 94 system (copyright 1995, Gaussian, Inc.),
 the Gaussian 92(TM) system (copyright 1992, Gaussian, Inc.),
 the Gaussian 90(TM) system (copyright 1990, Gaussian, Inc.),
 the Gaussian 88(TM) system (copyright 1988, Gaussian, Inc.),
 the Gaussian 86(TM) system (copyright 1986, Carnegie Mellon
 University), and the Gaussian 82(TM) system (copyright 1983,
 Carnegie Mellon University). Gaussian is a federally registered
 trademark of Gaussian, Inc.
  
 This software contains proprietary and confidential information,
 including trade secrets, belonging to Gaussian, Inc.
  
 This software is provided under written license and may be
 used, copied, transmitted, or stored only in accord with that
 written license.
  
 The following legend is applicable only to US Government
 contracts under FAR:
  
                    RESTRICTED RIGHTS LEGEND
  
 Use, reproduction and disclosure by the US Government is
 subject to restrictions as set forth in subparagraphs (a)
 and (c) of the Commercial Computer Software - Restricted
 Rights clause in FAR 52.227-19.
  
 Gaussian, Inc.
 340 Quinnipiac St., Bldg. 40, Wallingford CT 06492
  
  
 ---------------------------------------------------------------
 Warning -- This program may not be used in any manner that
 competes with the business of Gaussian, Inc. or will provide
 assistance to any competitor of Gaussian, Inc.  The licensee
 of this program is prohibited from giving any competitor of
 Gaussian, Inc. access to this program.  By using this program,
 the user acknowledges that Gaussian, Inc. is engaged in the
 business of creating and licensing software in the field of
 computational chemistry and represents and warrants to the
 licensee that it is not a competitor of Gaussian, Inc. and that
 it will not use this program in any manner prohibited above.
 ---------------------------------------------------------------
  

 Cite this work as:
 Gaussian 16, Revision A.03,
 M. J. Frisch, G. W. Trucks, H. B. Schlegel, G. E. Scuseria, 
 M. A. Robb, J. R. Cheeseman, G. Scalmani, V. Barone, 
 G. A. Petersson, H. Nakatsuji, X. Li, M. Caricato, A. V. Marenich, 
 J. Bloino, B. G. Janesko, R. Gomperts, B. Mennucci, H. P. Hratchian, 
 J. V. Ortiz, A. F. Izmaylov, J. L. Sonnenberg, D. Williams-Young, 
 F. Ding, F. Lipparini, F. Egidi, J. Goings, B. Peng, A. Petrone, 
 T. Henderson, D. Ranasinghe, V. G. Zakrzewski, J. Gao, N. Rega, 
 G. Zheng, W. Liang, M. Hada, M. Ehara, K. Toyota, R. Fukuda, 
 J. Hasegawa, M. Ishida, T. Nakajima, Y. Honda, O. Kitao, H. Nakai, 
 T. Vreven, K. Throssell, J. A. Montgomery, Jr., J. E. Peralta, 
 F. Ogliaro, M. J. Bearpark, J. J. Heyd, E. N. Brothers, K. N. Kudin, 
 V. N. Staroverov, T. A. Keith, R. Kobayashi, J. Normand, 
 K. Raghavachari, A. P. Rendell, J. C. Burant, S. S. Iyengar, 
 J. Tomasi, M. Cossi, J. M. Millam, M. Klene, C. Adamo, R. Cammi, 
 J. W. Ochterski, R. L. Martin, K. Morokuma, O. Farkas, 
 J. B. Foresman, and D. J. Fox, Gaussian, Inc., Wallingford CT, 2016.
 
 ******************************************
 Gaussian 16:  ES64L-G16RevA.03 25-Dec-2016
                10-Jun-2022 
 ******************************************
 %nprocshared=12
 Will use up to   12 processors via shared memory.
 %chk=checkpoint.chk
 %mem=12GB
 ----------------------------------------------------------------------
 # Opt=(TS, CalcFC, noeigentest, Z-matrix, MaxStep=10) geom=allcheckpoi
 nt guess=read Field=read NoSymm B3LYP/Def2TZVP freq=noraman pop=none
 ----------------------------------------------------------------------
 1/5=1,8=10,10=4,11=1,18=40,26=3,29=7,38=1/1,3;
 2/12=2,15=1,29=3,40=1/2;
 3/5=44,7=101,11=2,14=-6,25=1,30=1,71=2,74=-5,116=-2,140=1/1,2,3;
 4/5=1/1;
 5/5=2,38=6/2;
 8/6=4,10=90,11=11/1;
 11/6=1,8=1,9=11,15=111,16=1,31=1/1,2,10;
 10/6=1,13=1,31=1/2;
 7/10=1,18=20,25=1,30=1/1,2,3,16;
 1/5=1,8=10,10=4,11=1,18=40,26=3/3(2);
 2/15=1,29=3/2;
 99//99;
 2/15=1,29=3/2;
 3/5=44,7=101,11=2,14=-2,25=1,30=1,71=1,74=-5/1,2,3;
 4/5=5,16=3,69=1/1;
 5/5=2,38=5/2;
 7/30=1/1,2,3,16;
 1/5=1,8=10,11=1,18=40,26=3/3(-5);
 2/15=1,29=3/2;
 99/9=1/99;
 Structure from the checkpoint file:  "checkpoint.chk"
 -----------------
 ts_zmat_initalOpt
 -----------------
 Charge =  0 Multiplicity = 1
 Z-Matrix found in chk file.
 H
 C,1,R2
 C,2,R3,1,A3
 C,2,R4,1,A4,3,D4,0
 H,3,R5,2,A5,1,D5,0
 O,3,R6,2,A6,5,D6,0
 C,4,R7,2,A7,1,D7,0
 H,4,R8,2,A8,7,D8,0
 C,7,R9,4,A9,2,D9,0
 H,7,R10,4,A10,9,D10,0
 H,9,R11,7,A11,4,D11,0
 H,9,R12,7,A12,11,D12,0
      Variables:
 R2=1.08114393
 R3=1.40678639
 R4=1.40142814
 R5=1.09674731
 R6=1.26381613
 R7=1.3862852
 R8=1.0853651
 R9=1.39323799
 R10=1.08273994
 R11=1.08290483
 R12=1.08133438
 A3=116.70092904
 A4=119.70288885
 A5=115.66127461
 A6=128.29362879
 A7=120.68903424
 A8=118.20167315
 A9=117.09023925
 A10=121.04576301
 A11=120.69031971
 A12=118.32605871
 D4=156.37930902
 D5=12.32057174
 D6=171.22309818
 D7=-177.92484581
 D8=169.37604672
 D9=-21.14971144
 D10=171.35347719
 D11=164.02975246
 D12=151.49021358
 Recover connectivity data from disk.

 GradGradGradGradGradGradGradGradGradGradGradGradGradGradGradGradGradGrad
 Berny optimization.
 Initialization pass.
                       ----------------------------
                       !    Initial Parameters    !
                       ! (Angstroms and Degrees)  !
 ----------------------                            ----------------------
 !      Name          Value   Derivative information (Atomic Units)     !
 ------------------------------------------------------------------------
 !       R2          1.0811   calculate D2E/DX2 analytically            !
 !       R3          1.4068   calculate D2E/DX2 analytically            !
 !       R4          1.4014   calculate D2E/DX2 analytically            !
 !       R5          1.0967   calculate D2E/DX2 analytically            !
 !       R6          1.2638   calculate D2E/DX2 analytically            !
 !       R7          1.3863   calculate D2E/DX2 analytically            !
 !       R8          1.0854   calculate D2E/DX2 analytically            !
 !       R9          1.3932   calculate D2E/DX2 analytically            !
 !       R10         1.0827   calculate D2E/DX2 analytically            !
 !       R11         1.0829   calculate D2E/DX2 analytically            !
 !       R12         1.0813   calculate D2E/DX2 analytically            !
 !       A3        116.7009   calculate D2E/DX2 analytically            !
 !       A4        119.7029   calculate D2E/DX2 analytically            !
 !       A5        115.6613   calculate D2E/DX2 analytically            !
 !       A6        128.2936   calculate D2E/DX2 analytically            !
 !       A7        120.689    calculate D2E/DX2 analytically            !
 !       A8        118.2017   calculate D2E/DX2 analytically            !
 !       A9        117.0902   calculate D2E/DX2 analytically            !
 !       A10       121.0458   calculate D2E/DX2 analytically            !
 !       A11       120.6903   calculate D2E/DX2 analytically            !
 !       A12       118.3261   calculate D2E/DX2 analytically            !
 !       D4        156.3793   calculate D2E/DX2 analytically            !
 !       D5         12.3206   calculate D2E/DX2 analytically            !
 !       D6        171.2231   calculate D2E/DX2 analytically            !
 !       D7       -177.9248   calculate D2E/DX2 analytically            !
 !       D8        169.376    calculate D2E/DX2 analytically            !
 !       D9        -21.1497   calculate D2E/DX2 analytically            !
 !       D10       171.3535   calculate D2E/DX2 analytically            !
 !       D11       164.0298   calculate D2E/DX2 analytically            !
 !       D12       151.4902   calculate D2E/DX2 analytically            !
 ------------------------------------------------------------------------
 Trust Radius=1.00D-01 FncErr=1.00D-07 GrdErr=1.00D-06 EigMax=2.50D+02 EigMin=1.00D-04
 Number of steps in this run=     40 maximum allowed number of steps=    100.
 Search for a saddle point of order  1.
 GradGradGradGradGradGradGradGradGradGradGradGradGradGradGradGradGradGrad

 ---------------------------------------------------------------------------------------------------
                            Z-MATRIX (ANGSTROMS AND DEGREES)
   CD    Cent   Atom    N1       Length/X        N2       Alpha/Y        N3        Beta/Z          J
 ---------------------------------------------------------------------------------------------------
      1      1  H 
      2      2  C        1   1.081144(     1)
      3      3  C        2   1.406786(     2)      1  116.701(    12)
      4      4  C        2   1.401428(     3)      1  119.703(    13)      3  156.379(    22)      0
      5      5  H        3   1.096747(     4)      2  115.661(    14)      1   12.321(    23)      0
      6      6  O        3   1.263816(     5)      2  128.294(    15)      5  171.223(    24)      0
      7      7  C        4   1.386285(     6)      2  120.689(    16)      1 -177.925(    25)      0
      8      8  H        4   1.085365(     7)      2  118.202(    17)      7  169.376(    26)      0
      9      9  C        7   1.393238(     8)      4  117.090(    18)      2  -21.150(    27)      0
     10     10  H        7   1.082740(     9)      4  121.046(    19)      9  171.353(    28)      0
     11     11  H        9   1.082905(    10)      7  120.690(    20)      4  164.030(    29)      0
     12     12  H        9   1.081334(    11)      7  118.326(    21)     11  151.490(    30)      0
 ---------------------------------------------------------------------------------------------------
                         Z-Matrix orientation:                         
 ---------------------------------------------------------------------
 Center     Atomic      Atomic             Coordinates (Angstroms)
 Number     Number       Type             X           Y           Z
 ---------------------------------------------------------------------
      1          1           0        0.000000    0.000000    0.000000
      2          6           0        0.000000    0.000000    1.081144
      3          6           0        1.256772    0.000000    1.713260
      4          6           0       -1.115303    0.487744    1.775555
      5          1           0        2.115042    0.210943    1.063852
      6          8           0        1.511592   -0.061309    2.949601
      7          6           0       -1.120221    0.537010    3.160956
      8          1           0       -1.895953    0.984327    1.208098
      9          6           0       -0.226171   -0.297221    3.828672
     10          1           0       -1.688495    1.291050    3.690874
     11          1           0        0.008183   -0.133175    4.873110
     12          1           0       -0.132314   -1.321235    3.494200
 ---------------------------------------------------------------------
                    Distance matrix (angstroms):
                    1          2          3          4          5
     1  H    0.000000
     2  C    1.081144   0.000000
     3  C    2.124791   1.406786   0.000000
     4  C    2.152763   1.401428   2.422502   0.000000
     5  H    2.376906   2.125606   1.096747   3.319378   0.000000
     6  O    3.314939   2.404122   1.263816   2.929236   1.998580
     7  C    3.396309   2.422580   2.834484   1.386285   3.869250
     8  H    2.454188   2.140013   3.341222   1.085365   4.087421
     9  C    3.846846   2.772797   2.600467   2.371079   3.658379
    10  H    4.259152   3.365786   3.775231   2.154599   4.747080
    11  H    4.874936   3.794312   3.400200   3.352999   4.366660
    12  H    3.737995   2.754271   2.616672   2.681867   3.647571
                    6          7          8          9         10
     6  O    0.000000
     7  C    2.707231   0.000000
     8  H    3.967058   2.148373   0.000000
     9  C    1.961693   1.393238   3.361242   0.000000
    10  H    3.552312   1.082740   2.510238   2.163328   0.000000
    11  H    2.442394   2.157293   4.278651   1.082905   2.510939
    12  H    2.141596   2.130747   3.694902   1.081334   3.047033
                   11         12
    11  H    0.000000
    12  H    1.825546   0.000000
 Symmetry turned off by external request.
 Stoichiometry    C5H6O
 Framework group  C1[X(C5H6O)]
 Deg. of freedom    30
 Full point group                 C1      NOp   1
 Rotational constants (GHZ):           5.5477771           4.6812273           2.7114987
 Standard basis: def2TZVP (5D, 7F)
 The following finite field(s) will be applied:
 An electric field of              0.0059  0.0030  0.0034
   222 basis functions,   354 primitive gaussians,   252 cartesian basis functions
    22 alpha electrons       22 beta electrons
       nuclear repulsion energy       217.9692913837 Hartrees.
 NAtoms=   12 NActive=   12 NUniq=   12 SFac= 1.00D+00 NAtFMM=   60 NAOKFM=F Big=F
 Integral buffers will be    131072 words long.
 Raffenetti 2 integral format.
 Two-electron integral symmetry is turned off.
 One-electron integrals computed using PRISM.
   1 Symmetry operations used in ECPInt.
 ECPInt:  NShTT=    4095 NPrTT=   12396 LenC2=    4075 LenP2D=   10365.
 LDataN:  DoStor=T MaxTD1= 6 Len=  172
 NBasis=   222 RedAO= T EigKep=  1.13D-04  NBF=   222
 NBsUse=   222 1.00D-06 EigRej= -1.00D+00 NBFU=   222
 The nuclear repulsion energy is now       218.7330663306 hartrees.
 Initial guess from the checkpoint file:  "checkpoint.chk"
 B after Tr=     0.000000   -0.000000   -0.000000
         Rot=    1.000000    0.000000    0.000000   -0.000000 Ang=   0.00 deg.
 Keep R1 ints in memory in canonical form, NReq=319363861.
 Requested convergence on RMS density matrix=1.00D-08 within 128 cycles.
 Requested convergence on MAX density matrix=1.00D-06.
 Requested convergence on             energy=1.00D-06.
 No special actions if energy rises.
 SCF Done:  E(RB3LYP) =  -269.395924646     A.U. after   10 cycles
            NFock= 10  Conv=0.88D-08     -V/T= 2.0050
 DoSCS=F DFT=T ScalE2(SS,OS)=  1.000000  1.000000
 Range of M.O.s used for correlation:     1   222
 NBasis=   222 NAE=    22 NBE=    22 NFC=     0 NFV=     0
 NROrb=    222 NOA=    22 NOB=    22 NVA=   200 NVB=   200

 **** Warning!!: The largest alpha MO coefficient is  0.19376369D+02

   1 Symmetry operations used in ECPInt.
 ECPInt:  NShTT=    4095 NPrTT=   12396 LenC2=    4075 LenP2D=   10365.
 LDataN:  DoStor=T MaxTD1= 7 Len=  274
 Symmetrizing basis deriv contribution to polar:
 IMax=3 JMax=2 DiffMx= 0.00D+00
 G2DrvN: will do    13 centers at a time, making    1 passes.
 Calling FoFCou, ICntrl=  3107 FMM=F I1Cent=   0 AccDes= 0.00D+00.
 End of G2Drv F.D. properties file   721 does not exist.
 End of G2Drv F.D. properties file   722 does not exist.
 End of G2Drv F.D. properties file   788 does not exist.
          IDoAtm=111111111111
          Differentiating once with respect to nuclear coordinates.
 Keep R1 ints in memory in canonical form, NReq=319333990.
          There are    39 degrees of freedom in the 1st order CPHF.  IDoFFX=6 NUNeed=     0.
     33 vectors produced by pass  0 Test12= 1.13D-14 2.56D-09 XBig12= 1.76D-01 2.65D-01.
 AX will form    33 AO Fock derivatives at one time.
     33 vectors produced by pass  1 Test12= 1.13D-14 2.56D-09 XBig12= 2.87D-02 4.10D-02.
     33 vectors produced by pass  2 Test12= 1.13D-14 2.56D-09 XBig12= 3.78D-04 4.44D-03.
     33 vectors produced by pass  3 Test12= 1.13D-14 2.56D-09 XBig12= 1.72D-06 1.67D-04.
     33 vectors produced by pass  4 Test12= 1.13D-14 2.56D-09 XBig12= 3.90D-09 7.74D-06.
     30 vectors produced by pass  5 Test12= 1.13D-14 2.56D-09 XBig12= 7.94D-12 3.80D-07.
      7 vectors produced by pass  6 Test12= 1.13D-14 2.56D-09 XBig12= 1.17D-14 1.45D-08.
 InvSVY:  IOpt=1 It=  1 EMax= 2.11D-15
 Solved reduced A of dimension   202 with    33 vectors.
 End of Minotr F.D. properties file   721 does not exist.
 End of Minotr F.D. properties file   722 does not exist.
 End of Minotr F.D. properties file   788 does not exist.
   1 Symmetry operations used in ECPInt.
 ECPInt:  NShTT=    4095 NPrTT=   12396 LenC2=    4075 LenP2D=   10365.
 LDataN:  DoStor=T MaxTD1= 8 Len=  415
 Calling FoFJK, ICntrl=    100147 FMM=F ISym2X=0 I1Cent= 0 IOpClX= 0 NMat=1 NMatS=1 NMatT=0.
 -------------------------------------------------------------------
 Center     Atomic                   Forces (Hartrees/Bohr)
 Number     Number              X              Y              Z
 -------------------------------------------------------------------
      1        1          -0.000158522   -0.000307224    0.000045649
      2        6           0.001123931   -0.000053831    0.000093750
      3        6          -0.001622393    0.000412909   -0.001697288
      4        6          -0.000348922    0.000067914   -0.000141855
      5        1           0.000019827    0.000032761   -0.000303759
      6        8           0.002000318    0.000193171    0.001567016
      7        6           0.000851829    0.000010716    0.000552873
      8        1          -0.000035423   -0.000291707    0.000001073
      9        6          -0.001436120    0.000067827   -0.000257730
     10        1          -0.000233529   -0.000136073   -0.000052305
     11        1          -0.000164754   -0.000043257    0.000186793
     12        1           0.000003758    0.000046795    0.000005784
 -------------------------------------------------------------------
 Cartesian Forces:  Max     0.002000318 RMS     0.000691364
 -----------------------------------------------------------------------------------------------
                       Internal Coordinate Forces (Hartree/Bohr or radian)
  Cent   Atom   N1       Length/X         N2         Alpha/Y        N3         Beta/Z          J
 -----------------------------------------------------------------------------------------------
      1  H 
      2  C        1  -0.000046(     1)
      3  C        2   0.000160(     2)      1  -0.005893(    12)
      4  C        2   0.001134(     3)      1  -0.005469(    13)      3   0.000526(    22)     0
      5  H        3   0.000202(     4)      2  -0.000474(    14)      1  -0.000471(    23)     0
      6  O        3   0.001927(     5)      2   0.003947(    15)      5  -0.000419(    24)     0
      7  C        4   0.000437(     6)      2   0.004550(    16)      1  -0.002520(    25)     0
      8  H        4  -0.000109(     7)      2  -0.000050(    17)      7   0.000492(    26)     0
      9  C        7  -0.001099(     8)      4   0.001498(    18)      2  -0.001963(    27)     0
     10  H        7   0.000002(     9)      4  -0.000137(    19)      9   0.000468(    28)     0
     11  H        9   0.000138(    10)      7  -0.000144(    20)      4   0.000373(    29)     0
     12  H        9  -0.000046(    11)      7  -0.000003(    21)     11   0.000021(    30)     0
 -----------------------------------------------------------------------------------------------
 Internal  Forces:  Max     0.005893118 RMS     0.002011662

 GradGradGradGradGradGradGradGradGradGradGradGradGradGradGradGradGradGrad
 Berny optimization.
 Search for a saddle point.
 Step number   1 out of a maximum of   40
 All quantities printed in internal units (Hartrees-Bohrs-Radians)
 Swapping is turned off.
 Second derivative matrix not updated -- analytic derivatives used.
 ITU=  0
     Eigenvalues ---   -0.99105   0.02333   0.02903   0.04493   0.04814
     Eigenvalues ---    0.05753   0.11289   0.11984   0.14366   0.15442
     Eigenvalues ---    0.18038   0.20275   0.22952   0.25711   0.29675
     Eigenvalues ---    0.32271   0.34155   0.35043   0.35297   0.35850
     Eigenvalues ---    0.36279   0.38788   0.41633   0.43995   0.49169
     Eigenvalues ---    0.52574   0.57164   0.70799   0.98339   1.92017
 Eigenvectors required to have negative eigenvalues:
                          A7        A4        A3        D12       R6
   1                    0.40112  -0.39818  -0.36576   0.27546  -0.27043
                          R9        A9        R3        A6        D11
   1                   -0.26527   0.26188   0.21430   0.21250   0.20953
 RFO step:  Lambda0=5.741715591D-05 Lambda=-9.60607052D-05.
 Linear search not attempted -- option 19 set.
 Variable       Old X    -DE/DX   Delta X   Delta X   Delta X     New X
                                 (Linear)    (Quad)   (Total)
    R2        2.04307  -0.00005   0.00000  -0.00030  -0.00030   2.04277
    R3        2.65844   0.00016   0.00000  -0.00572  -0.00572   2.65272
    R4        2.64832   0.00113   0.00000   0.00254   0.00254   2.65086
    R5        2.07255   0.00020   0.00000  -0.00000  -0.00000   2.07255
    R6        2.38827   0.00193   0.00000   0.00698   0.00698   2.39525
    R7        2.61970   0.00044   0.00000  -0.00243  -0.00243   2.61726
    R8        2.05104  -0.00011   0.00000  -0.00047  -0.00047   2.05057
    R9        2.63284  -0.00110   0.00000   0.00160   0.00160   2.63444
   R10        2.04608   0.00000   0.00000  -0.00021  -0.00021   2.04587
   R11        2.04639   0.00014   0.00000   0.00045   0.00045   2.04684
   R12        2.04343  -0.00005   0.00000   0.00020   0.00020   2.04363
    A3        2.03682  -0.00589   0.00000   0.00309   0.00309   2.03990
    A4        2.08921  -0.00547   0.00000  -0.00004  -0.00004   2.08917
    A5        2.01867  -0.00047   0.00000   0.00022   0.00022   2.01889
    A6        2.23915   0.00395   0.00000   0.00196   0.00196   2.24110
    A7        2.10642   0.00455   0.00000  -0.00174  -0.00174   2.10468
    A8        2.06301  -0.00005   0.00000   0.00034   0.00034   2.06335
    A9        2.04361   0.00150   0.00000  -0.00178  -0.00178   2.04183
   A10        2.11265  -0.00014   0.00000   0.00239   0.00239   2.11504
   A11        2.10644  -0.00014   0.00000  -0.00135  -0.00135   2.10510
   A12        2.06518  -0.00000   0.00000  -0.00143  -0.00143   2.06375
    D4        2.72933   0.00053   0.00000   0.01606   0.01606   2.74539
    D5        0.21503  -0.00047   0.00000   0.00314   0.00314   0.21818
    D6        2.98841  -0.00042   0.00000  -0.00204  -0.00204   2.98637
    D7       -3.10537  -0.00252   0.00000  -0.01084  -0.01084  -3.11622
    D8        2.95617   0.00049   0.00000   0.00384   0.00384   2.96001
    D9       -0.36913  -0.00196   0.00000  -0.00020  -0.00020  -0.36933
   D10        2.99068   0.00047   0.00000   0.01523   0.01523   3.00591
   D11        2.86286   0.00037   0.00000   0.00709   0.00709   2.86995
   D12        2.64400   0.00002   0.00000  -0.00902  -0.00902   2.63499
         Item               Value     Threshold  Converged?
 Maximum Force            0.005893     0.000450     NO 
 RMS     Force            0.002012     0.000300     NO 
 Maximum Displacement     0.016059     0.001800     NO 
 RMS     Displacement     0.005459     0.001200     NO 
 Predicted change in Energy=-1.936031D-05
 GradGradGradGradGradGradGradGradGradGradGradGradGradGradGradGradGradGrad

 ---------------------------------------------------------------------------------------------------
                            Z-MATRIX (ANGSTROMS AND DEGREES)
   CD    Cent   Atom    N1       Length/X        N2       Alpha/Y        N3        Beta/Z          J
 ---------------------------------------------------------------------------------------------------
      1      1  H 
      2      2  C        1   1.080987(     1)
      3      3  C        2   1.403757(     2)      1  116.878(    12)
      4      4  C        2   1.402774(     3)      1  119.700(    13)      3  157.299(    22)      0
      5      5  H        3   1.096746(     4)      2  115.674(    14)      1   12.501(    23)      0
      6      6  O        3   1.267512(     5)      2  128.406(    15)      5  171.106(    24)      0
      7      7  C        4   1.384997(     6)      2  120.589(    16)      1 -178.546(    25)      0
      8      8  H        4   1.085116(     7)      2  118.221(    17)      7  169.596(    26)      0
      9      9  C        7   1.394086(     8)      4  116.988(    18)      2  -21.161(    27)      0
     10     10  H        7   1.082627(     9)      4  121.183(    19)      9  172.226(    28)      0
     11     11  H        9   1.083140(    10)      7  120.613(    20)      4  164.436(    29)      0
     12     12  H        9   1.081442(    11)      7  118.244(    21)     11  150.974(    30)      0
 ---------------------------------------------------------------------------------------------------
                         Z-Matrix orientation:                         
 ---------------------------------------------------------------------
 Center     Atomic      Atomic             Coordinates (Angstroms)
 Number     Number       Type             X           Y           Z
 ---------------------------------------------------------------------
      1          1           0        0.000000    0.000000    0.000000
      2          6           0        0.000000    0.000000    1.080987
      3          6           0        1.252114    0.000000    1.715609
      4          6           0       -1.124097    0.470234    1.776013
      5          1           0        2.112228    0.213955    1.069638
      6          8           0        1.506312   -0.062488    2.955797
      7          6           0       -1.132418    0.506506    3.160510
      8          1           0       -1.909586    0.960063    1.209841
      9          6           0       -0.229708   -0.325872    3.820613
     10          1           0       -1.719790    1.239731    3.698523
     11          1           0       -0.003714   -0.173278    4.868866
     12          1           0       -0.127308   -1.345637    3.475486
 ---------------------------------------------------------------------
                    Distance matrix (angstroms):
                    1          2          3          4          5
     1  H    0.000000
     2  C    1.080987   0.000000
     3  C    2.123936   1.403757   0.000000
     4  C    2.153819   1.402774   2.423045   0.000000
     5  H    2.377269   2.123066   1.096746   3.322415   0.000000
     6  O    3.318074   2.405783   1.267512   2.931678   2.000287
     7  C    3.395253   2.421433   2.833775   1.384997   3.871054
     8  H    2.456004   2.141225   3.342734   1.085116   4.092837
     9  C    3.841359   2.768485   2.594808   2.369410   3.652935
    10  H    4.263060   3.368398   3.781679   2.154767   4.758950
    11  H    4.871950   3.791842   3.398553   3.351881   4.365924
    12  H    3.729068   2.749649   2.609733   2.679400   3.638124
                    6          7          8          9         10
     6  O    0.000000
     7  C    2.707131   0.000000
     8  H    3.970180   2.148211   0.000000
     9  C    1.957305   1.394086   3.360320   0.000000
    10  H    3.557408   1.082627   2.511528   2.164802   0.000000
    11  H    2.439731   2.157443   4.278466   1.083140   2.512213
    12  H    2.141323   2.130702   3.691329   1.081442   3.044646
                   11         12
    11  H    0.000000
    12  H    1.825160   0.000000
 Symmetry turned off by external request.
 Stoichiometry    C5H6O
 Framework group  C1[X(C5H6O)]
 Deg. of freedom    30
 Full point group                 C1      NOp   1
 Rotational constants (GHZ):           5.5529563           4.6828243           2.7125475
 Standard basis: def2TZVP (5D, 7F)
 The following finite field(s) will be applied:
 An electric field of              0.0059  0.0030  0.0034
   222 basis functions,   354 primitive gaussians,   252 cartesian basis functions
    22 alpha electrons       22 beta electrons
       nuclear repulsion energy       217.9858848243 Hartrees.
 NAtoms=   12 NActive=   12 NUniq=   12 SFac= 1.00D+00 NAtFMM=   60 NAOKFM=F Big=F
 Integral buffers will be    131072 words long.
 Raffenetti 2 integral format.
 Two-electron integral symmetry is turned off.
 One-electron integrals computed using PRISM.
   1 Symmetry operations used in ECPInt.
 ECPInt:  NShTT=    4095 NPrTT=   12396 LenC2=    4074 LenP2D=   10363.
 LDataN:  DoStor=T MaxTD1= 6 Len=  172
 NBasis=   222 RedAO= T EigKep=  1.11D-04  NBF=   222
 NBsUse=   222 1.00D-06 EigRej= -1.00D+00 NBFU=   222
 The nuclear repulsion energy is now       218.7431847959 hartrees.
 Initial guess from the checkpoint file:  "checkpoint.chk"
 B after Tr=     0.004391    0.012287   -0.001769
         Rot=    0.999978   -0.004298    0.001543   -0.004836 Ang=  -0.76 deg.
 Keep R1 ints in memory in canonical form, NReq=319363861.
 Requested convergence on RMS density matrix=1.00D-08 within 128 cycles.
 Requested convergence on MAX density matrix=1.00D-06.
 Requested convergence on             energy=1.00D-06.
 No special actions if energy rises.
 SCF Done:  E(RB3LYP) =  -269.395944647     A.U. after   11 cycles
            NFock= 11  Conv=0.36D-08     -V/T= 2.0050
   1 Symmetry operations used in ECPInt.
 ECPInt:  NShTT=    4095 NPrTT=   12396 LenC2=    4074 LenP2D=   10363.
 LDataN:  DoStor=T MaxTD1= 7 Len=  274
 Calling FoFJK, ICntrl=      2127 FMM=F ISym2X=0 I1Cent= 0 IOpClX= 0 NMat=1 NMatS=1 NMatT=0.
 -------------------------------------------------------------------
 Center     Atomic                   Forces (Hartrees/Bohr)
 Number     Number              X              Y              Z
 -------------------------------------------------------------------
      1        1           0.000079186   -0.000095076   -0.000000648
      2        6          -0.000062178   -0.000867172   -0.000003852
      3        6           0.000004953    0.000998301   -0.000075423
      4        6          -0.000026232   -0.000009383    0.000017033
      5        1           0.000002016   -0.000000349   -0.000000038
      6        8          -0.000013417   -0.000022621    0.000072695
      7        6          -0.000013524    0.000012107   -0.000018259
      8        1          -0.000001473    0.000000045    0.000001207
      9        6           0.000049496   -0.000007173    0.000006485
     10        1          -0.000009458   -0.000003647   -0.000001599
     11        1          -0.000001129    0.000000947    0.000000390
     12        1          -0.000008241   -0.000005979    0.000002010
 -------------------------------------------------------------------
 Cartesian Forces:  Max     0.000998301 RMS     0.000222609
 -----------------------------------------------------------------------------------------------
                       Internal Coordinate Forces (Hartree/Bohr or radian)
  Cent   Atom   N1       Length/X         N2         Alpha/Y        N3         Beta/Z          J
 -----------------------------------------------------------------------------------------------
      1  H 
      2  C        1   0.000001(     1)
      3  C        2  -0.000007(     2)      1   0.000070(    12)
      4  C        2   0.000008(     3)      1   0.000080(    13)      3   0.000080(    22)     0
      5  H        3   0.000002(     4)      2   0.000003(    14)      1   0.000033(    23)     0
      6  O        3   0.000070(     5)      2  -0.000068(    15)      5   0.000034(    24)     0
      7  C        4  -0.000011(     6)      2  -0.000066(    16)      1   0.000044(    25)     0
      8  H        4   0.000000(     7)      2   0.000004(    17)      7   0.000001(    26)     0
      9  C        7   0.000037(     8)      4  -0.000021(    18)      2   0.000044(    27)     0
     10  H        7   0.000002(     9)      4  -0.000006(    19)      9   0.000017(    28)     0
     11  H        9   0.000000(    10)      7  -0.000003(    20)      4  -0.000015(    29)     0
     12  H        9   0.000004(    11)      7  -0.000007(    21)     11  -0.000016(    30)     0
 -----------------------------------------------------------------------------------------------
 Internal  Forces:  Max     0.000080496 RMS     0.000036820

 GradGradGradGradGradGradGradGradGradGradGradGradGradGradGradGradGradGrad
 Berny optimization.
 Search for a saddle point.
 Step number   2 out of a maximum of   40
 All quantities printed in internal units (Hartrees-Bohrs-Radians)
 Swapping is turned off.
 Update second derivatives using D2CorN and points    1    2
 ITU=  0  0
     Eigenvalues ---   -0.99229   0.02238   0.02902   0.04493   0.04794
     Eigenvalues ---    0.05748   0.11284   0.11995   0.14359   0.15443
     Eigenvalues ---    0.18040   0.20276   0.22953   0.25710   0.29675
     Eigenvalues ---    0.32271   0.34155   0.35043   0.35297   0.35850
     Eigenvalues ---    0.36279   0.38788   0.41643   0.43998   0.49170
     Eigenvalues ---    0.52574   0.57166   0.70777   0.98340   1.92049
 Eigenvectors required to have negative eigenvalues:
                          A7        A4        A3        D12       R6
   1                    0.40110  -0.39812  -0.36590   0.27592  -0.27075
                          R9        A9        R3        A6        D11
   1                   -0.26523   0.26180   0.21447   0.21239   0.20881
 RFO step:  Lambda0=2.111782266D-08 Lambda=-1.61928405D-07.
 Linear search not attempted -- option 19 set.
 Variable       Old X    -DE/DX   Delta X   Delta X   Delta X     New X
                                 (Linear)    (Quad)   (Total)
    R2        2.04277   0.00000   0.00000  -0.00000  -0.00000   2.04277
    R3        2.65272  -0.00001   0.00000   0.00004   0.00004   2.65276
    R4        2.65086   0.00001   0.00000  -0.00004  -0.00004   2.65081
    R5        2.07255   0.00000   0.00000   0.00002   0.00002   2.07257
    R6        2.39525   0.00007   0.00000   0.00005   0.00005   2.39531
    R7        2.61726  -0.00001   0.00000   0.00005   0.00005   2.61732
    R8        2.05057   0.00000   0.00000   0.00000   0.00000   2.05058
    R9        2.63444   0.00004   0.00000  -0.00001  -0.00001   2.63443
   R10        2.04587   0.00000   0.00000   0.00001   0.00001   2.04588
   R11        2.04684   0.00000   0.00000   0.00000   0.00000   2.04684
   R12        2.04363   0.00000   0.00000  -0.00001  -0.00001   2.04362
    A3        2.03990   0.00007   0.00000   0.00005   0.00005   2.03996
    A4        2.08917   0.00008   0.00000   0.00026   0.00026   2.08943
    A5        2.01889   0.00000   0.00000  -0.00001  -0.00001   2.01887
    A6        2.24110  -0.00007   0.00000  -0.00001  -0.00001   2.24109
    A7        2.10468  -0.00007   0.00000  -0.00001  -0.00001   2.10467
    A8        2.06335   0.00000   0.00000   0.00002   0.00002   2.06337
    A9        2.04183  -0.00002   0.00000   0.00011   0.00011   2.04193
   A10        2.11504  -0.00001   0.00000  -0.00006  -0.00006   2.11498
   A11        2.10510  -0.00000   0.00000  -0.00002  -0.00002   2.10508
   A12        2.06375  -0.00001   0.00000   0.00002   0.00002   2.06377
    D4        2.74539   0.00008   0.00000   0.00163   0.00163   2.74702
    D5        0.21818   0.00003   0.00000   0.00117   0.00117   0.21935
    D6        2.98637   0.00003   0.00000   0.00004   0.00004   2.98640
    D7       -3.11622   0.00004   0.00000  -0.00094  -0.00094  -3.11716
    D8        2.96001   0.00000   0.00000  -0.00000  -0.00000   2.96000
    D9       -0.36933   0.00004   0.00000  -0.00043  -0.00043  -0.36976
   D10        3.00591   0.00002   0.00000   0.00032   0.00032   3.00623
   D11        2.86995  -0.00002   0.00000   0.00006   0.00006   2.87000
   D12        2.63499  -0.00002   0.00000   0.00006   0.00006   2.63504
         Item               Value     Threshold  Converged?
 Maximum Force            0.000080     0.000450     YES
 RMS     Force            0.000037     0.000300     YES
 Maximum Displacement     0.001627     0.001800     YES
 RMS     Displacement     0.000420     0.001200     YES
 Predicted change in Energy=-7.040529D-08
 Optimization completed.
    -- Stationary point found.
                       ----------------------------
                       !   Optimized Parameters   !
                       ! (Angstroms and Degrees)  !
 ----------------------                            ----------------------
 !      Name          Value   Derivative information (Atomic Units)     !
 ------------------------------------------------------------------------
 !       R2          1.081    -DE/DX =    0.0                           !
 !       R3          1.4038   -DE/DX =    0.0                           !
 !       R4          1.4028   -DE/DX =    0.0                           !
 !       R5          1.0967   -DE/DX =    0.0                           !
 !       R6          1.2675   -DE/DX =    0.0001                        !
 !       R7          1.385    -DE/DX =    0.0                           !
 !       R8          1.0851   -DE/DX =    0.0                           !
 !       R9          1.3941   -DE/DX =    0.0                           !
 !       R10         1.0826   -DE/DX =    0.0                           !
 !       R11         1.0831   -DE/DX =    0.0                           !
 !       R12         1.0814   -DE/DX =    0.0                           !
 !       A3        116.8777   -DE/DX =    0.0001                        !
 !       A4        119.7004   -DE/DX =    0.0001                        !
 !       A5        115.6738   -DE/DX =    0.0                           !
 !       A6        128.4058   -DE/DX =   -0.0001                        !
 !       A7        120.5893   -DE/DX =   -0.0001                        !
 !       A8        118.221    -DE/DX =    0.0                           !
 !       A9        116.988    -DE/DX =    0.0                           !
 !       A10       121.1827   -DE/DX =    0.0                           !
 !       A11       120.6131   -DE/DX =    0.0                           !
 !       A12       118.2439   -DE/DX =    0.0                           !
 !       D4        157.2994   -DE/DX =    0.0001                        !
 !       D5         12.5007   -DE/DX =    0.0                           !
 !       D6        171.1063   -DE/DX =    0.0                           !
 !       D7       -178.5461   -DE/DX =    0.0                           !
 !       D8        169.5958   -DE/DX =    0.0                           !
 !       D9        -21.161    -DE/DX =    0.0                           !
 !       D10       172.2261   -DE/DX =    0.0                           !
 !       D11       164.4359   -DE/DX =    0.0                           !
 !       D12       150.9735   -DE/DX =    0.0                           !
 ------------------------------------------------------------------------
 GradGradGradGradGradGradGradGradGradGradGradGradGradGradGradGradGradGrad

 ---------------------------------------------------------------------------------------------------
                            Z-MATRIX (ANGSTROMS AND DEGREES)
   CD    Cent   Atom    N1       Length/X        N2       Alpha/Y        N3        Beta/Z          J
 ---------------------------------------------------------------------------------------------------
      1      1  H 
      2      2  C        1   1.080987(     1)
      3      3  C        2   1.403757(     2)      1  116.878(    12)
      4      4  C        2   1.402774(     3)      1  119.700(    13)      3  157.299(    22)      0
      5      5  H        3   1.096746(     4)      2  115.674(    14)      1   12.501(    23)      0
      6      6  O        3   1.267512(     5)      2  128.406(    15)      5  171.106(    24)      0
      7      7  C        4   1.384997(     6)      2  120.589(    16)      1 -178.546(    25)      0
      8      8  H        4   1.085116(     7)      2  118.221(    17)      7  169.596(    26)      0
      9      9  C        7   1.394086(     8)      4  116.988(    18)      2  -21.161(    27)      0
     10     10  H        7   1.082627(     9)      4  121.183(    19)      9  172.226(    28)      0
     11     11  H        9   1.083140(    10)      7  120.613(    20)      4  164.436(    29)      0
     12     12  H        9   1.081442(    11)      7  118.244(    21)     11  150.974(    30)      0
 ---------------------------------------------------------------------------------------------------
                         Z-Matrix orientation:                         
 ---------------------------------------------------------------------
 Center     Atomic      Atomic             Coordinates (Angstroms)
 Number     Number       Type             X           Y           Z
 ---------------------------------------------------------------------
      1          1           0        0.000000    0.000000    0.000000
      2          6           0        0.000000    0.000000    1.080987
      3          6           0        1.252114    0.000000    1.715609
      4          6           0       -1.124097    0.470234    1.776013
      5          1           0        2.112228    0.213955    1.069638
      6          8           0        1.506312   -0.062488    2.955797
      7          6           0       -1.132418    0.506506    3.160510
      8          1           0       -1.909586    0.960063    1.209841
      9          6           0       -0.229708   -0.325872    3.820613
     10          1           0       -1.719790    1.239731    3.698523
     11          1           0       -0.003714   -0.173278    4.868866
     12          1           0       -0.127308   -1.345637    3.475486
 ---------------------------------------------------------------------
                    Distance matrix (angstroms):
                    1          2          3          4          5
     1  H    0.000000
     2  C    1.080987   0.000000
     3  C    2.123936   1.403757   0.000000
     4  C    2.153819   1.402774   2.423045   0.000000
     5  H    2.377269   2.123066   1.096746   3.322415   0.000000
     6  O    3.318074   2.405783   1.267512   2.931678   2.000287
     7  C    3.395253   2.421433   2.833775   1.384997   3.871054
     8  H    2.456004   2.141225   3.342734   1.085116   4.092837
     9  C    3.841359   2.768485   2.594808   2.369410   3.652935
    10  H    4.263060   3.368398   3.781679   2.154767   4.758950
    11  H    4.871950   3.791842   3.398553   3.351881   4.365924
    12  H    3.729068   2.749649   2.609733   2.679400   3.638124
                    6          7          8          9         10
     6  O    0.000000
     7  C    2.707131   0.000000
     8  H    3.970180   2.148211   0.000000
     9  C    1.957305   1.394086   3.360320   0.000000
    10  H    3.557408   1.082627   2.511528   2.164802   0.000000
    11  H    2.439731   2.157443   4.278466   1.083140   2.512213
    12  H    2.141323   2.130702   3.691329   1.081442   3.044646
                   11         12
    11  H    0.000000
    12  H    1.825160   0.000000
 Symmetry turned off by external request.
 Stoichiometry    C5H6O
 Framework group  C1[X(C5H6O)]
 Deg. of freedom    30
 Full point group                 C1      NOp   1
 Rotational constants (GHZ):           5.5529563           4.6828243           2.7125475
 1\1\GINC-BHC0105\FTS\RB3LYP\def2TZVP\C5H6O1\DHANAWAY\10-Jun-2022\1\\# 
 Opt=(TS, CalcFC, noeigentest, Z-matrix, MaxStep=10) geom=allcheckpoint
  guess=read Field=read NoSymm B3LYP/Def2TZVP freq=noraman pop=none\\ts
 _zmat_initalOpt\\0,1\H\C,1,R2\C,2,R3,1,A3\C,2,R4,1,A4,3,D4,0\H,3,R5,2,
 A5,1,D5,0\O,3,R6,2,A6,5,D6,0\C,4,R7,2,A7,1,D7,0\H,4,R8,2,A8,7,D8,0\C,7
 ,R9,4,A9,2,D9,0\H,7,R10,4,A10,9,D10,0\H,9,R11,7,A11,4,D11,0\H,9,R12,7,
 A12,11,D12,0\\R2=1.08098703\R3=1.40375739\R4=1.40277401\R5=1.09674553\
 R6=1.26751229\R7=1.38499695\R8=1.08511567\R9=1.39408649\R10=1.08262736
 \R11=1.08314044\R12=1.08144235\A3=116.87774772\A4=119.70044343\A5=115.
 67383705\A6=128.40575807\A7=120.58928278\A8=118.22102717\A9=116.987970
 81\A10=121.18268972\A11=120.61310599\A12=118.24394882\D4=157.29939339\
 D5=12.5006868\D6=171.10625443\D7=-178.54607267\D8=169.59582234\D9=-21.
 16101302\D10=172.22606038\D11=164.43593027\D12=150.97354017\\Version=E
 S64L-G16RevA.03\HF=-269.3959446\RMSD=3.573e-09\RMSF=2.226e-04\Dipole=-
 0.7707481,0.006635,-0.4179406\PG=C01 [X(C5H6O1)]\\@


 IT'S WHAT A FELLER THINKS HE KNOWS THAT HURTS HIM...
                    ------
           KIN HUBBARD
 Job cpu time:       0 days  0 hours 35 minutes 31.8 seconds.
 Elapsed time:       0 days  0 hours  3 minutes  8.9 seconds.
 File lengths (MBytes):  RWF=     53 Int=      0 D2E=      0 Chk=     32 Scr=      1
 Normal termination of Gaussian 16 at Fri Jun 10 23:20:14 2022.
 Link1:  Proceeding to internal job step number  2.
 --------------------------------------------------------------------
 #N Geom=AllCheck Guess=TCheck SCRF=Check GenChk RB3LYP/def2TZVP Freq
 --------------------------------------------------------------------
 1/5=1,8=10,10=4,11=1,29=7,30=1,38=1,40=1/1,3;
 2/12=2,15=1,40=1/2;
 3/5=44,7=101,11=2,14=-4,25=1,30=1,70=2,71=2,74=-5,116=1,140=1/1,2,3;
 4/5=101/1;
 5/5=2,38=6,98=1/2;
 8/6=4,10=90,11=11/1;
 11/6=1,8=1,9=11,15=111,16=1,31=1/1,2,10;
 10/6=1,31=1/2;
 7/8=1,10=1,25=1,30=1/1,2,3,16;
 1/5=1,8=10,10=4,11=1,30=1/3;
 99//99;
 Structure from the checkpoint file:  "checkpoint.chk"
 -----------------
 ts_zmat_initalOpt
 -----------------
 Charge =  0 Multiplicity = 1
 Z-Matrix found in chk file.
 H
 C,1,R2
 C,2,R3,1,A3
 C,2,R4,1,A4,3,D4,0
 H,3,R5,2,A5,1,D5,0
 O,3,R6,2,A6,5,D6,0
 C,4,R7,2,A7,1,D7,0
 H,4,R8,2,A8,7,D8,0
 C,7,R9,4,A9,2,D9,0
 H,7,R10,4,A10,9,D10,0
 H,9,R11,7,A11,4,D11,0
 H,9,R12,7,A12,11,D12,0
      Variables:
 R2=1.08098703
 R3=1.40375739
 R4=1.40277401
 R5=1.09674553
 R6=1.26751229
 R7=1.38499695
 R8=1.08511567
 R9=1.39408649
 R10=1.08262736
 R11=1.08314044
 R12=1.08144235
 A3=116.87774772
 A4=119.70044343
 A5=115.67383705
 A6=128.40575807
 A7=120.58928278
 A8=118.22102717
 A9=116.98797081
 A10=121.18268972
 A11=120.61310599
 A12=118.24394882
 D4=157.29939339
 D5=12.5006868
 D6=171.10625443
 D7=-178.54607267
 D8=169.59582234
 D9=-21.16101302
 D10=172.22606038
 D11=164.43593027
 D12=150.97354017
 Recover connectivity data from disk.

 GradGradGradGradGradGradGradGradGradGradGradGradGradGradGradGradGradGrad
 Berny optimization.
 Initialization pass.
                       ----------------------------
                       !    Initial Parameters    !
                       ! (Angstroms and Degrees)  !
 ----------------------                            ----------------------
 !      Name          Value   Derivative information (Atomic Units)     !
 ------------------------------------------------------------------------
 !       R2          1.081    calculate D2E/DX2 analytically            !
 !       R3          1.4038   calculate D2E/DX2 analytically            !
 !       R4          1.4028   calculate D2E/DX2 analytically            !
 !       R5          1.0967   calculate D2E/DX2 analytically            !
 !       R6          1.2675   calculate D2E/DX2 analytically            !
 !       R7          1.385    calculate D2E/DX2 analytically            !
 !       R8          1.0851   calculate D2E/DX2 analytically            !
 !       R9          1.3941   calculate D2E/DX2 analytically            !
 !       R10         1.0826   calculate D2E/DX2 analytically            !
 !       R11         1.0831   calculate D2E/DX2 analytically            !
 !       R12         1.0814   calculate D2E/DX2 analytically            !
 !       A3        116.8777   calculate D2E/DX2 analytically            !
 !       A4        119.7004   calculate D2E/DX2 analytically            !
 !       A5        115.6738   calculate D2E/DX2 analytically            !
 !       A6        128.4058   calculate D2E/DX2 analytically            !
 !       A7        120.5893   calculate D2E/DX2 analytically            !
 !       A8        118.221    calculate D2E/DX2 analytically            !
 !       A9        116.988    calculate D2E/DX2 analytically            !
 !       A10       121.1827   calculate D2E/DX2 analytically            !
 !       A11       120.6131   calculate D2E/DX2 analytically            !
 !       A12       118.2439   calculate D2E/DX2 analytically            !
 !       D4        157.2994   calculate D2E/DX2 analytically            !
 !       D5         12.5007   calculate D2E/DX2 analytically            !
 !       D6        171.1063   calculate D2E/DX2 analytically            !
 !       D7       -178.5461   calculate D2E/DX2 analytically            !
 !       D8        169.5958   calculate D2E/DX2 analytically            !
 !       D9        -21.161    calculate D2E/DX2 analytically            !
 !       D10       172.2261   calculate D2E/DX2 analytically            !
 !       D11       164.4359   calculate D2E/DX2 analytically            !
 !       D12       150.9735   calculate D2E/DX2 analytically            !
 ------------------------------------------------------------------------
 Trust Radius=1.00D-01 FncErr=1.00D-07 GrdErr=1.00D-07 EigMax=2.50D+02 EigMin=1.00D-04
 Number of steps in this run=      2 maximum allowed number of steps=      2.
 Search for a saddle point of order  1.
 GradGradGradGradGradGradGradGradGradGradGradGradGradGradGradGradGradGrad

                          Input orientation:                          
 ---------------------------------------------------------------------
 Center     Atomic      Atomic             Coordinates (Angstroms)
 Number     Number       Type             X           Y           Z
 ---------------------------------------------------------------------
      1          1           0        0.000000    0.000000    0.000000
      2          6           0        0.000000    0.000000    1.080987
      3          6           0        1.252114    0.000000    1.715609
      4          6           0       -1.124097    0.470234    1.776013
      5          1           0        2.112228    0.213955    1.069638
      6          8           0        1.506312   -0.062488    2.955797
      7          6           0       -1.132418    0.506506    3.160510
      8          1           0       -1.909586    0.960063    1.209841
      9          6           0       -0.229708   -0.325872    3.820613
     10          1           0       -1.719790    1.239731    3.698523
     11          1           0       -0.003714   -0.173278    4.868866
     12          1           0       -0.127308   -1.345637    3.475486
 ---------------------------------------------------------------------
                    Distance matrix (angstroms):
                    1          2          3          4          5
     1  H    0.000000
     2  C    1.080987   0.000000
     3  C    2.123936   1.403757   0.000000
     4  C    2.153819   1.402774   2.423045   0.000000
     5  H    2.377269   2.123066   1.096746   3.322415   0.000000
     6  O    3.318074   2.405783   1.267512   2.931678   2.000287
     7  C    3.395253   2.421433   2.833775   1.384997   3.871054
     8  H    2.456004   2.141225   3.342734   1.085116   4.092837
     9  C    3.841359   2.768485   2.594808   2.369410   3.652935
    10  H    4.263060   3.368398   3.781679   2.154767   4.758950
    11  H    4.871950   3.791842   3.398553   3.351881   4.365924
    12  H    3.729068   2.749649   2.609733   2.679400   3.638124
                    6          7          8          9         10
     6  O    0.000000
     7  C    2.707131   0.000000
     8  H    3.970180   2.148211   0.000000
     9  C    1.957305   1.394086   3.360320   0.000000
    10  H    3.557408   1.082627   2.511528   2.164802   0.000000
    11  H    2.439731   2.157443   4.278466   1.083140   2.512213
    12  H    2.141323   2.130702   3.691329   1.081442   3.044646
                   11         12
    11  H    0.000000
    12  H    1.825160   0.000000
 Symmetry turned off by external request.
 Stoichiometry    C5H6O
 Framework group  C1[X(C5H6O)]
 Deg. of freedom    30
 Full point group                 C1      NOp   1
 Rotational constants (GHZ):           5.5529563           4.6828243           2.7125475
 Standard basis: def2TZVP (5D, 7F)
 The following finite field(s) will be applied:
 An electric field of              0.0059  0.0030  0.0034
   222 basis functions,   354 primitive gaussians,   252 cartesian basis functions
    22 alpha electrons       22 beta electrons
       nuclear repulsion energy       217.9858848243 Hartrees.
 NAtoms=   12 NActive=   12 NUniq=   12 SFac= 1.00D+00 NAtFMM=   60 NAOKFM=F Big=F
 Integral buffers will be    131072 words long.
 Raffenetti 2 integral format.
 Two-electron integral symmetry is turned off.
 One-electron integrals computed using PRISM.
   1 Symmetry operations used in ECPInt.
 ECPInt:  NShTT=    4095 NPrTT=   12396 LenC2=    4074 LenP2D=   10363.
 LDataN:  DoStor=T MaxTD1= 6 Len=  172
 NBasis=   222 RedAO= T EigKep=  1.11D-04  NBF=   222
 NBsUse=   222 1.00D-06 EigRej= -1.00D+00 NBFU=   222
 The nuclear repulsion energy is now       218.7431847959 hartrees.
 Initial guess from the checkpoint file:  "checkpoint.chk"
 B after Tr=     0.000000    0.000000    0.000000
         Rot=    1.000000    0.000000    0.000000    0.000000 Ang=   0.00 deg.
 Keep R1 ints in memory in canonical form, NReq=319363861.
 Requested convergence on RMS density matrix=1.00D-08 within 128 cycles.
 Requested convergence on MAX density matrix=1.00D-06.
 Requested convergence on             energy=1.00D-06.
 No special actions if energy rises.
 SCF Done:  E(RB3LYP) =  -269.395944647     A.U. after    1 cycles
            NFock=  1  Conv=0.18D-08     -V/T= 2.0050
 DoSCS=F DFT=T ScalE2(SS,OS)=  1.000000  1.000000
 Range of M.O.s used for correlation:     1   222
 NBasis=   222 NAE=    22 NBE=    22 NFC=     0 NFV=     0
 NROrb=    222 NOA=    22 NOB=    22 NVA=   200 NVB=   200

 **** Warning!!: The largest alpha MO coefficient is  0.19118544D+02

   1 Symmetry operations used in ECPInt.
 ECPInt:  NShTT=    4095 NPrTT=   12396 LenC2=    4074 LenP2D=   10363.
 LDataN:  DoStor=T MaxTD1= 7 Len=  274
 Symmetrizing basis deriv contribution to polar:
 IMax=3 JMax=2 DiffMx= 0.00D+00
 G2DrvN: will do    13 centers at a time, making    1 passes.
 Calling FoFCou, ICntrl=  3107 FMM=F I1Cent=   0 AccDes= 0.00D+00.
 End of G2Drv F.D. properties file   721 does not exist.
 End of G2Drv F.D. properties file   722 does not exist.
 End of G2Drv F.D. properties file   788 does not exist.
          IDoAtm=111111111111
          Differentiating once with respect to electric field.
                with respect to dipole field.
          Differentiating once with respect to nuclear coordinates.
 Keep R1 ints in memory in canonical form, NReq=319333990.
          There are    39 degrees of freedom in the 1st order CPHF.  IDoFFX=6 NUNeed=     3.
     36 vectors produced by pass  0 Test12= 1.13D-14 2.56D-09 XBig12= 1.15D+02 6.52D+00.
 AX will form    36 AO Fock derivatives at one time.
     36 vectors produced by pass  1 Test12= 1.13D-14 2.56D-09 XBig12= 3.80D+01 9.14D-01.
     36 vectors produced by pass  2 Test12= 1.13D-14 2.56D-09 XBig12= 3.03D-01 6.22D-02.
     36 vectors produced by pass  3 Test12= 1.13D-14 2.56D-09 XBig12= 1.32D-03 5.12D-03.
     36 vectors produced by pass  4 Test12= 1.13D-14 2.56D-09 XBig12= 2.96D-06 2.67D-04.
     31 vectors produced by pass  5 Test12= 1.13D-14 2.56D-09 XBig12= 4.23D-09 8.58D-06.
      7 vectors produced by pass  6 Test12= 1.13D-14 2.56D-09 XBig12= 6.42D-12 3.14D-07.
      3 vectors produced by pass  7 Test12= 1.13D-14 2.56D-09 XBig12= 8.99D-15 1.30D-08.
 InvSVY:  IOpt=1 It=  1 EMax= 7.11D-15
 Solved reduced A of dimension   221 with    39 vectors.
 Isotropic polarizability for W=    0.000000       65.08 Bohr**3.
 End of Minotr F.D. properties file   721 does not exist.
 End of Minotr F.D. properties file   722 does not exist.
 End of Minotr F.D. properties file   788 does not exist.
   1 Symmetry operations used in ECPInt.
 ECPInt:  NShTT=    4095 NPrTT=   12396 LenC2=    4074 LenP2D=   10363.
 LDataN:  DoStor=T MaxTD1= 8 Len=  415
 Calling FoFJK, ICntrl=    100127 FMM=F ISym2X=0 I1Cent= 0 IOpClX= 0 NMat=1 NMatS=1 NMatT=0.
 Full mass-weighted force constant matrix:
 Low frequencies --- -534.1290  -11.4278   -0.0011   -0.0005   -0.0002    9.2810
 Low frequencies ---   14.4750  244.4766  374.8410
 ******    1 imaginary frequencies (negative Signs) ****** 
 Diagonal vibrational polarizability:
        7.8909621       6.5676418       8.3315671
 Harmonic frequencies (cm**-1), IR intensities (KM/Mole), Raman scattering
 activities (A**4/AMU), depolarization ratios for plane and unpolarized
 incident light, reduced masses (AMU), force constants (mDyne/A),
 and normal coordinates:
                      1                      2                      3
                      A                      A                      A
 Frequencies --   -534.1213               244.4632               374.8358
 Red. masses --      5.6635                 2.8817                 2.5626
 Frc consts  --      0.9519                 0.1015                 0.2121
 IR Inten    --     44.4921                 4.9430                10.2873
  Atom  AN      X      Y      Z        X      Y      Z        X      Y      Z
     1   1     0.03   0.01  -0.03    -0.08  -0.37   0.08    -0.01  -0.09  -0.03
     2   6     0.07  -0.00  -0.03    -0.05  -0.16   0.08    -0.02  -0.11  -0.03
     3   6    -0.11  -0.05  -0.03    -0.02  -0.07   0.04    -0.04   0.19   0.03
     4   6    -0.01   0.05   0.06     0.03   0.11   0.02     0.02  -0.09  -0.01
     5   1     0.10  -0.24   0.24    -0.05  -0.22  -0.05    -0.08   0.68   0.13
     6   8    -0.31   0.01   0.18     0.04   0.20   0.03    -0.11  -0.07   0.02
     7   6     0.01  -0.01  -0.07     0.04   0.06   0.03     0.19   0.13  -0.00
     8   1     0.08   0.19   0.06     0.11   0.22  -0.00    -0.03  -0.16  -0.01
     9   6     0.43   0.04  -0.19    -0.04  -0.15  -0.17    -0.02  -0.06  -0.00
    10   1    -0.20  -0.30   0.08     0.14   0.07   0.13     0.40   0.33  -0.04
    11   1     0.45   0.11  -0.20    -0.04  -0.49  -0.12     0.01  -0.15   0.00
    12   1    -0.16  -0.15   0.12    -0.03  -0.03  -0.53    -0.21  -0.07  -0.04
                      4                      5                      6
                      A                      A                      A
 Frequencies --    422.9627               573.4625               589.7891
 Red. masses --      4.3168                 2.8024                 3.5545
 Frc consts  --      0.4550                 0.5430                 0.7285
 IR Inten    --      4.7451                23.4989                 4.0650
  Atom  AN      X      Y      Z        X      Y      Z        X      Y      Z
     1   1    -0.02   0.07  -0.17     0.02   0.04  -0.07    -0.13  -0.00   0.03
     2   6     0.03  -0.06  -0.17     0.01   0.23  -0.07     0.14  -0.00   0.03
     3   6    -0.03  -0.06  -0.10    -0.01  -0.13   0.01     0.17  -0.00  -0.15
     4   6     0.22   0.10   0.02    -0.08  -0.13  -0.03     0.11  -0.12   0.16
     5   1     0.03  -0.07  -0.03     0.10  -0.58   0.01     0.27  -0.04  -0.04
     6   8    -0.19   0.16  -0.06    -0.04   0.09   0.04    -0.14  -0.00  -0.09
     7   6     0.08  -0.12   0.03     0.19   0.08  -0.00    -0.13   0.14   0.15
     8   1     0.34   0.44   0.15    -0.37  -0.49   0.05     0.06  -0.38   0.01
     9   6    -0.09  -0.10   0.25    -0.03  -0.06   0.04    -0.07   0.04  -0.04
    10   1     0.10  -0.04  -0.04     0.19   0.08  -0.00    -0.42  -0.05   0.08
    11   1    -0.18   0.12   0.25    -0.13  -0.20   0.08     0.10  -0.34  -0.02
    12   1     0.08  -0.15   0.45    -0.02  -0.03  -0.08    -0.25   0.14  -0.38
                      7                      8                      9
                      A                      A                      A
 Frequencies --    719.5291               795.3374               882.8314
 Red. masses --      1.2609                 1.3786                 2.0660
 Frc consts  --      0.3846                 0.5138                 0.9487
 IR Inten    --     47.5707                26.6300                21.5590
  Atom  AN      X      Y      Z        X      Y      Z        X      Y      Z
     1   1     0.04   0.24   0.02     0.15   0.81  -0.07     0.07   0.58   0.19
     2   6     0.02   0.03   0.02    -0.02  -0.05  -0.07     0.01  -0.05   0.19
     3   6     0.04  -0.03  -0.00    -0.07  -0.07   0.03     0.09  -0.04  -0.06
     4   6    -0.03  -0.06   0.01     0.02  -0.08   0.02    -0.09   0.01  -0.00
     5   1     0.04  -0.04  -0.01    -0.14   0.17   0.02     0.03   0.08  -0.11
     6   8    -0.01   0.03  -0.00     0.04   0.02   0.02    -0.04   0.04  -0.05
     7   6    -0.08  -0.05   0.03     0.01   0.04   0.01     0.10   0.06  -0.08
     8   1     0.15   0.20  -0.00     0.15   0.17   0.06    -0.01   0.01  -0.11
     9   6    -0.02  -0.01  -0.04     0.01   0.05  -0.01    -0.05  -0.08  -0.03
    10   1     0.57   0.57  -0.10    -0.18  -0.06  -0.08    -0.13  -0.30   0.15
    11   1     0.34   0.17  -0.15    -0.07  -0.22   0.05    -0.05   0.38  -0.10
    12   1    -0.14  -0.05   0.05     0.04   0.13  -0.24    -0.10  -0.23   0.38
                     10                     11                     12
                      A                      A                      A
 Frequencies --    951.8660               961.5613               982.6356
 Red. masses --      1.6309                 1.4483                 1.4195
 Frc consts  --      0.8706                 0.7890                 0.8075
 IR Inten    --     43.6917                 7.5122                 6.4077
  Atom  AN      X      Y      Z        X      Y      Z        X      Y      Z
     1   1     0.01  -0.12  -0.08    -0.02  -0.24  -0.08    -0.10  -0.35   0.04
     2   6     0.02  -0.02  -0.07     0.00   0.05  -0.08     0.03   0.08   0.04
     3   6    -0.02   0.12  -0.02    -0.00  -0.13   0.02     0.05  -0.07  -0.04
     4   6    -0.06  -0.09   0.03     0.01   0.01  -0.00    -0.09  -0.09   0.03
     5   1     0.12  -0.48  -0.01    -0.15   0.64   0.06    -0.04   0.38  -0.01
     6   8     0.07  -0.01   0.03     0.04   0.04   0.03    -0.02   0.00   0.00
     7   6     0.01   0.08  -0.01    -0.02   0.05   0.03     0.03  -0.00  -0.03
     8   1     0.22   0.51   0.15    -0.05  -0.09  -0.01     0.28   0.58   0.10
     9   6    -0.05  -0.05   0.02    -0.04  -0.05   0.00     0.02   0.04  -0.01
    10   1    -0.29  -0.14  -0.04    -0.21  -0.14   0.08     0.01  -0.01  -0.04
    11   1     0.30   0.09  -0.07     0.50   0.19  -0.15    -0.46  -0.13   0.12
    12   1    -0.32  -0.12   0.12    -0.23  -0.12   0.13     0.09   0.06  -0.04
                     13                     14                     15
                      A                      A                      A
 Frequencies --   1019.4852              1043.0415              1100.3433
 Red. masses --      3.5632                 1.7531                 1.3415
 Frc consts  --      2.1820                 1.1237                 0.9570
 IR Inten    --     10.2942                 6.4252                19.6803
  Atom  AN      X      Y      Z        X      Y      Z        X      Y      Z
     1   1    -0.13  -0.20   0.18     0.32  -0.09   0.14     0.09  -0.07  -0.02
     2   6     0.01   0.14   0.16     0.04   0.03   0.13    -0.01   0.00  -0.02
     3   6    -0.24   0.01   0.05    -0.04  -0.01   0.02     0.02   0.01   0.07
     4   6     0.26  -0.12   0.12    -0.03   0.01  -0.11    -0.01  -0.03  -0.02
     5   1    -0.42  -0.10  -0.21    -0.15  -0.00  -0.12     0.05  -0.06   0.07
     6   8     0.01   0.00  -0.06    -0.05   0.00  -0.07    -0.06  -0.02  -0.03
     7   6     0.05  -0.02  -0.09     0.02  -0.01  -0.03     0.06  -0.00   0.05
     8   1     0.34  -0.13   0.02     0.12   0.12  -0.23     0.08   0.18   0.04
     9   6    -0.06   0.00  -0.13     0.03  -0.01   0.15    -0.08   0.03  -0.04
    10   1    -0.14  -0.00  -0.33    -0.17   0.02  -0.26     0.03  -0.21   0.30
    11   1    -0.07   0.36  -0.18     0.56  -0.41   0.09     0.30   0.31  -0.18
    12   1    -0.04  -0.07   0.11    -0.04   0.12  -0.28     0.68   0.19  -0.23
                     16                     17                     18
                      A                      A                      A
 Frequencies --   1118.0924              1182.1477              1246.3848
 Red. masses --      1.5769                 1.2215                 1.3503
 Frc consts  --      1.1614                 1.0058                 1.2359
 IR Inten    --      2.0257                14.6098                 2.7094
  Atom  AN      X      Y      Z        X      Y      Z        X      Y      Z
     1   1     0.48  -0.09  -0.02     0.65  -0.11  -0.00     0.19  -0.02  -0.01
     2   6     0.10   0.00  -0.02     0.06  -0.03  -0.00     0.03  -0.01  -0.01
     3   6    -0.10   0.00   0.01    -0.02  -0.01   0.02    -0.01  -0.01  -0.03
     4   6    -0.03  -0.02  -0.04    -0.02   0.03   0.04    -0.02   0.02   0.04
     5   1    -0.15  -0.04  -0.07    -0.07   0.03  -0.04    -0.01   0.04  -0.01
     6   8     0.01   0.00  -0.04    -0.01   0.01  -0.05     0.00  -0.01   0.01
     7   6    -0.07   0.08   0.10     0.03  -0.05   0.00    -0.06   0.10  -0.00
     8   1     0.22  -0.05  -0.42    -0.37   0.06   0.56    -0.15  -0.02   0.17
     9   6     0.05  -0.04  -0.01    -0.03   0.05  -0.03     0.03  -0.11  -0.00
    10   1     0.16  -0.02   0.51     0.03  -0.03  -0.02    -0.23   0.34  -0.51
    11   1    -0.30   0.01   0.07    -0.08   0.06  -0.03    -0.04   0.06   0.00
    12   1     0.04  -0.13   0.24    -0.25   0.03  -0.05     0.64  -0.10   0.17
                     19                     20                     21
                      A                      A                      A
 Frequencies --   1340.6058              1407.0145              1438.7325
 Red. masses --      1.3990                 1.8195                 1.8258
 Frc consts  --      1.4814                 2.1222                 2.2268
 IR Inten    --     48.6068                56.2289                62.2236
  Atom  AN      X      Y      Z        X      Y      Z        X      Y      Z
     1   1     0.06  -0.03   0.02     0.35  -0.08  -0.05    -0.26   0.04   0.01
     2   6    -0.05   0.01   0.01    -0.14   0.02  -0.04    -0.05   0.01   0.01
     3   6    -0.02  -0.02   0.09     0.12   0.02   0.04     0.08   0.00   0.14
     4   6    -0.00  -0.00  -0.00     0.00   0.01  -0.03     0.08  -0.05  -0.14
     5   1     0.49   0.01   0.78    -0.17  -0.06  -0.40    -0.18  -0.07  -0.26
     6   8     0.01   0.02  -0.12    -0.03  -0.01   0.02    -0.03   0.00  -0.06
     7   6     0.01  -0.00   0.04     0.07  -0.04   0.16    -0.05   0.05   0.03
     8   1     0.09   0.03  -0.10     0.20  -0.02  -0.33    -0.19   0.18   0.43
     9   6     0.03  -0.01  -0.02     0.03  -0.00  -0.05     0.04   0.02  -0.05
    10   1    -0.15   0.04  -0.19    -0.32   0.08  -0.43    -0.07  -0.02   0.14
    11   1    -0.09   0.01   0.00    -0.19   0.26  -0.05     0.04  -0.41   0.03
    12   1    -0.13  -0.07   0.09    -0.23  -0.03  -0.06     0.03  -0.20   0.52
                     22                     23                     24
                      A                      A                      A
 Frequencies --   1495.8257              1552.1609              1613.2779
 Red. masses --      1.7026                 2.2438                 5.3468
 Frc consts  --      2.2445                 3.1850                 8.1990
 IR Inten    --      8.6893                23.7605               120.0840
  Atom  AN      X      Y      Z        X      Y      Z        X      Y      Z
     1   1    -0.57   0.10  -0.01    -0.27   0.03  -0.07     0.09  -0.04  -0.16
     2   6     0.16  -0.03  -0.01     0.15  -0.04  -0.06    -0.05   0.00  -0.14
     3   6    -0.03  -0.01   0.09    -0.03  -0.00   0.06     0.16  -0.01   0.30
     4   6    -0.05   0.02  -0.07    -0.13   0.07   0.10    -0.06   0.02   0.31
     5   1    -0.16  -0.02  -0.09    -0.13  -0.02  -0.09    -0.27  -0.09  -0.38
     6   8    -0.01   0.00  -0.05    -0.00   0.00  -0.03    -0.05   0.01  -0.15
     7   6     0.00   0.00   0.08     0.10  -0.09   0.05    -0.09   0.07  -0.30
     8   1    -0.16   0.07   0.10     0.08  -0.09  -0.34     0.26  -0.19  -0.30
     9   6     0.05  -0.06   0.03    -0.09   0.10  -0.09     0.09  -0.07   0.10
    10   1    -0.12   0.08  -0.14    -0.08   0.02  -0.31     0.20  -0.07   0.18
    11   1    -0.21   0.48  -0.00     0.17  -0.49  -0.06    -0.04   0.07   0.11
    12   1    -0.19   0.07  -0.41     0.14  -0.07   0.51    -0.07   0.01  -0.24
                     25                     26                     27
                      A                      A                      A
 Frequencies --   3024.6454              3136.7901              3156.7366
 Red. masses --      1.0851                 1.0568                 1.0876
 Frc consts  --      5.8488                 6.1263                 6.3854
 IR Inten    --     48.9551                21.0417                 3.1513
  Atom  AN      X      Y      Z        X      Y      Z        X      Y      Z
     1   1    -0.00   0.00   0.06    -0.00  -0.00   0.00    -0.00  -0.00  -0.14
     2   6     0.00  -0.00  -0.00    -0.00   0.00   0.00     0.00  -0.00   0.01
     3   6    -0.07  -0.02   0.04     0.00   0.00   0.00    -0.00  -0.00   0.00
     4   6     0.00   0.00  -0.00     0.00  -0.00  -0.00    -0.06   0.04  -0.04
     5   1     0.79   0.19  -0.58    -0.00  -0.00  -0.00     0.01   0.00  -0.00
     6   8     0.00  -0.00   0.00    -0.00   0.00  -0.00    -0.00  -0.00  -0.00
     7   6    -0.00   0.00  -0.00     0.00  -0.00  -0.00     0.01  -0.02  -0.01
     8   1     0.00   0.00   0.00    -0.00   0.00  -0.00     0.68  -0.42   0.49
     9   6     0.00   0.00  -0.00     0.02  -0.05   0.04    -0.00   0.00   0.00
    10   1    -0.00  -0.00  -0.00    -0.04   0.05   0.04    -0.17   0.22   0.16
    11   1    -0.00  -0.00  -0.00    -0.14  -0.11  -0.64    -0.01  -0.00  -0.03
    12   1    -0.00  -0.00  -0.00    -0.08   0.69   0.25     0.01  -0.05  -0.02
                     28                     29                     30
                      A                      A                      A
 Frequencies --   3179.5011              3201.9147              3219.4128
 Red. masses --      1.0931                 1.0918                 1.1174
 Frc consts  --      6.5109                 6.5948                 6.8238
 IR Inten    --      4.6386                 3.2243                 8.5928
  Atom  AN      X      Y      Z        X      Y      Z        X      Y      Z
     1   1     0.00   0.00   0.11     0.00   0.00   0.98     0.00   0.00  -0.04
     2   6    -0.00   0.00  -0.01    -0.00  -0.00  -0.09    -0.00   0.00   0.00
     3   6     0.00   0.00  -0.00     0.01   0.00  -0.00    -0.00  -0.00   0.00
     4   6     0.02  -0.01   0.02    -0.01   0.01  -0.01     0.00  -0.00   0.00
     5   1    -0.00  -0.00   0.00    -0.04  -0.01   0.03     0.00  -0.00  -0.00
     6   8    -0.00  -0.00   0.00     0.00  -0.00   0.00    -0.00   0.00   0.00
     7   6     0.04  -0.05  -0.04    -0.00   0.00   0.00     0.01  -0.01  -0.01
     8   1    -0.22   0.14  -0.16     0.12  -0.08   0.08    -0.01   0.01  -0.01
     9   6    -0.00   0.02   0.01    -0.00  -0.00  -0.00    -0.01  -0.06  -0.08
    10   1    -0.50   0.62   0.46     0.02  -0.03  -0.02    -0.11   0.14   0.10
    11   1    -0.02  -0.02  -0.10     0.01   0.01   0.04     0.16   0.10   0.71
    12   1     0.02  -0.17  -0.06    -0.00   0.04   0.01    -0.08   0.60   0.20

 -------------------
 - Thermochemistry -
 -------------------
 Temperature   298.150 Kelvin.  Pressure   1.00000 Atm.
 Atom     1 has atomic number  1 and mass   1.00783
 Atom     2 has atomic number  6 and mass  12.00000
 Atom     3 has atomic number  6 and mass  12.00000
 Atom     4 has atomic number  6 and mass  12.00000
 Atom     5 has atomic number  1 and mass   1.00783
 Atom     6 has atomic number  8 and mass  15.99491
 Atom     7 has atomic number  6 and mass  12.00000
 Atom     8 has atomic number  1 and mass   1.00783
 Atom     9 has atomic number  6 and mass  12.00000
 Atom    10 has atomic number  1 and mass   1.00783
 Atom    11 has atomic number  1 and mass   1.00783
 Atom    12 has atomic number  1 and mass   1.00783
 Molecular mass:    82.04186 amu.
 Principal axes and moments of inertia in atomic units:
                           1         2         3
     Eigenvalues --   325.00547 385.39588 665.33073
           X            0.94745   0.24980   0.19982
           Y           -0.16558  -0.15152   0.97449
           Z           -0.27371   0.95637   0.10219
 This molecule is an asymmetric top.
 Rotational symmetry number  1.
 Rotational temperatures (Kelvin)      0.26650     0.22474     0.13018
 Rotational constants (GHZ):           5.55296     4.68282     2.71255
    1 imaginary frequencies ignored.
 Zero-point vibrational energy     251068.6 (Joules/Mol)
                                   60.00683 (Kcal/Mol)
 Warning -- explicit consideration of   5 degrees of freedom as
           vibrations may cause significant error
 Vibrational temperatures:    351.73   539.31   608.55   825.08   848.57
          (Kelvin)           1035.24  1144.31  1270.20  1369.52  1383.47
                             1413.79  1466.81  1500.70  1583.15  1608.69
                             1700.85  1793.27  1928.83  2024.38  2070.02
                             2152.16  2233.21  2321.15  4351.79  4513.14
                             4541.84  4574.59  4606.84  4632.02
 
 Zero-point correction=                           0.095627 (Hartree/Particle)
 Thermal correction to Energy=                    0.100466
 Thermal correction to Enthalpy=                  0.101410
 Thermal correction to Gibbs Free Energy=         0.067607
 Sum of electronic and zero-point Energies=           -269.300318
 Sum of electronic and thermal Energies=              -269.295478
 Sum of electronic and thermal Enthalpies=            -269.294534
 Sum of electronic and thermal Free Energies=         -269.328338
 
                     E (Thermal)             CV                S
                      KCal/Mol        Cal/Mol-Kelvin    Cal/Mol-Kelvin
 Total                   63.044             18.186             71.146
 Electronic               0.000              0.000              0.000
 Translational            0.889              2.981             39.128
 Rotational               0.889              2.981             25.925
 Vibrational             61.266             12.225              6.093
 Vibration     1          0.660              1.772              1.770
 Vibration     2          0.746              1.524              1.060
 Vibration     3          0.785              1.420              0.882
 Vibration     4          0.930              1.089              0.498
 Vibration     5          0.947              1.054              0.468
                       Q            Log10(Q)             Ln(Q)
 Total Bot       0.799840D-31        -31.096997        -71.603482
 Total V=0       0.773243D+13         12.888316         29.676444
 Vib (Bot)       0.264992D-43        -43.576767       -100.339215
 Vib (Bot)    1  0.800442D+00         -0.096670         -0.222591
 Vib (Bot)    2  0.484093D+00         -0.315071         -0.725479
 Vib (Bot)    3  0.414199D+00         -0.382791         -0.881408
 Vib (Bot)    4  0.267460D+00         -0.572741         -1.318785
 Vib (Bot)    5  0.255829D+00         -0.592050         -1.363245
 Vib (V=0)       0.256180D+01          0.408545          0.940711
 Vib (V=0)    1  0.144377D+01          0.159499          0.367260
 Vib (V=0)    2  0.119595D+01          0.077713          0.178941
 Vib (V=0)    3  0.114928D+01          0.060425          0.139133
 Vib (V=0)    4  0.106704D+01          0.028181          0.064889
 Vib (V=0)    5  0.106165D+01          0.025981          0.059823
 Electronic      0.100000D+01          0.000000          0.000000
 Translational   0.292084D+08          7.465507         17.189966
 Rotational      0.103339D+06          5.014263         11.545768
 -------------------------------------------------------------------
 Center     Atomic                   Forces (Hartrees/Bohr)
 Number     Number              X              Y              Z
 -------------------------------------------------------------------
      1        1           0.000079183   -0.000095078   -0.000000626
      2        6          -0.000062158   -0.000867183   -0.000003886
      3        6           0.000004905    0.000998301   -0.000075513
      4        6          -0.000026200   -0.000009387    0.000017002
      5        1           0.000002027   -0.000000340   -0.000000040
      6        8          -0.000013406   -0.000022614    0.000072788
      7        6          -0.000013518    0.000012103   -0.000018213
      8        1          -0.000001494    0.000000061    0.000001196
      9        6           0.000049514   -0.000007209    0.000006516
     10        1          -0.000009473   -0.000003640   -0.000001597
     11        1          -0.000001134    0.000000948    0.000000362
     12        1          -0.000008246   -0.000005962    0.000002011
 -------------------------------------------------------------------
 Cartesian Forces:  Max     0.000998301 RMS     0.000222611
 -----------------------------------------------------------------------------------------------
                       Internal Coordinate Forces (Hartree/Bohr or radian)
  Cent   Atom   N1       Length/X         N2         Alpha/Y        N3         Beta/Z          J
 -----------------------------------------------------------------------------------------------
      1  H 
      2  C        1   0.000001(     1)
      3  C        2  -0.000007(     2)      1   0.000070(    12)
      4  C        2   0.000008(     3)      1   0.000080(    13)      3   0.000080(    22)     0
      5  H        3   0.000002(     4)      2   0.000003(    14)      1   0.000033(    23)     0
      6  O        3   0.000070(     5)      2  -0.000068(    15)      5   0.000034(    24)     0
      7  C        4  -0.000011(     6)      2  -0.000066(    16)      1   0.000044(    25)     0
      8  H        4   0.000000(     7)      2   0.000004(    17)      7   0.000001(    26)     0
      9  C        7   0.000037(     8)      4  -0.000021(    18)      2   0.000044(    27)     0
     10  H        7   0.000002(     9)      4  -0.000006(    19)      9   0.000017(    28)     0
     11  H        9   0.000000(    10)      7  -0.000003(    20)      4  -0.000015(    29)     0
     12  H        9   0.000004(    11)      7  -0.000007(    21)     11  -0.000016(    30)     0
 -----------------------------------------------------------------------------------------------
 Internal  Forces:  Max     0.000080487 RMS     0.000036833

 GradGradGradGradGradGradGradGradGradGradGradGradGradGradGradGradGradGrad
 Berny optimization.
 Search for a saddle point.
 Step number   1 out of a maximum of    2
 All quantities printed in internal units (Hartrees-Bohrs-Radians)
 Swapping is turned off.
 Second derivative matrix not updated -- analytic derivatives used.
 ITU=  0
     Eigenvalues ---   -1.05587   0.02154   0.02927   0.04541   0.04777
     Eigenvalues ---    0.05693   0.11341   0.12032   0.14561   0.15571
     Eigenvalues ---    0.18069   0.20330   0.23283   0.25701   0.29665
     Eigenvalues ---    0.32290   0.34187   0.35086   0.35286   0.35892
     Eigenvalues ---    0.36239   0.38871   0.41951   0.44129   0.49019
     Eigenvalues ---    0.52499   0.56569   0.70796   0.98760   1.91741
 Eigenvectors required to have negative eigenvalues:
                          A4        A7        A3        D12       R6
   1                    0.40570  -0.40401   0.37687  -0.26896   0.26777
                          R9        A9        A6        R3        D11
   1                    0.26326  -0.25406  -0.22204  -0.21109  -0.20494
 Angle between quadratic step and forces=  72.56 degrees.
 Linear search not attempted -- option 19 set.
 Variable       Old X    -DE/DX   Delta X   Delta X   Delta X     New X
                                 (Linear)    (Quad)   (Total)
    R2        2.04277   0.00000   0.00000  -0.00000  -0.00000   2.04277
    R3        2.65272  -0.00001   0.00000   0.00004   0.00004   2.65276
    R4        2.65086   0.00001   0.00000  -0.00004  -0.00004   2.65081
    R5        2.07255   0.00000   0.00000   0.00002   0.00002   2.07257
    R6        2.39525   0.00007   0.00000   0.00006   0.00006   2.39531
    R7        2.61726  -0.00001   0.00000   0.00005   0.00005   2.61732
    R8        2.05057   0.00000   0.00000   0.00000   0.00000   2.05058
    R9        2.63444   0.00004   0.00000  -0.00001  -0.00001   2.63443
   R10        2.04587   0.00000   0.00000   0.00001   0.00001   2.04588
   R11        2.04684   0.00000   0.00000   0.00000   0.00000   2.04684
   R12        2.04363   0.00000   0.00000  -0.00001  -0.00001   2.04362
    A3        2.03990   0.00007   0.00000   0.00005   0.00005   2.03995
    A4        2.08917   0.00008   0.00000   0.00028   0.00028   2.08944
    A5        2.01889   0.00000   0.00000  -0.00002  -0.00002   2.01887
    A6        2.24110  -0.00007   0.00000  -0.00000  -0.00000   2.24110
    A7        2.10468  -0.00007   0.00000  -0.00001  -0.00001   2.10467
    A8        2.06335   0.00000   0.00000   0.00002   0.00002   2.06337
    A9        2.04183  -0.00002   0.00000   0.00010   0.00010   2.04193
   A10        2.11504  -0.00001   0.00000  -0.00006  -0.00006   2.11498
   A11        2.10510  -0.00000   0.00000  -0.00002  -0.00002   2.10508
   A12        2.06375  -0.00001   0.00000   0.00002   0.00002   2.06377
    D4        2.74539   0.00008   0.00000   0.00171   0.00171   2.74710
    D5        0.21818   0.00003   0.00000   0.00122   0.00122   0.21939
    D6        2.98637   0.00003   0.00000   0.00003   0.00003   2.98639
    D7       -3.11622   0.00004   0.00000  -0.00101  -0.00101  -3.11723
    D8        2.96001   0.00000   0.00000  -0.00001  -0.00001   2.96000
    D9       -0.36933   0.00004   0.00000  -0.00042  -0.00042  -0.36975
   D10        3.00591   0.00002   0.00000   0.00029   0.00029   3.00620
   D11        2.86995  -0.00002   0.00000   0.00004   0.00004   2.86998
   D12        2.63499  -0.00002   0.00000   0.00007   0.00007   2.63506
         Item               Value     Threshold  Converged?
 Maximum Force            0.000080     0.000450     YES
 RMS     Force            0.000037     0.000300     YES
 Maximum Displacement     0.001707     0.001800     YES
 RMS     Displacement     0.000439     0.001200     YES
 Predicted change in Energy=-7.273409D-08
 Optimization completed.
    -- Stationary point found.
                       ----------------------------
                       !   Optimized Parameters   !
                       ! (Angstroms and Degrees)  !
 ----------------------                            ----------------------
 !      Name          Value   Derivative information (Atomic Units)     !
 ------------------------------------------------------------------------
 !       R2          1.081    -DE/DX =    0.0                           !
 !       R3          1.4038   -DE/DX =    0.0                           !
 !       R4          1.4028   -DE/DX =    0.0                           !
 !       R5          1.0967   -DE/DX =    0.0                           !
 !       R6          1.2675   -DE/DX =    0.0001                        !
 !       R7          1.385    -DE/DX =    0.0                           !
 !       R8          1.0851   -DE/DX =    0.0                           !
 !       R9          1.3941   -DE/DX =    0.0                           !
 !       R10         1.0826   -DE/DX =    0.0                           !
 !       R11         1.0831   -DE/DX =    0.0                           !
 !       R12         1.0814   -DE/DX =    0.0                           !
 !       A3        116.8777   -DE/DX =    0.0001                        !
 !       A4        119.7004   -DE/DX =    0.0001                        !
 !       A5        115.6738   -DE/DX =    0.0                           !
 !       A6        128.4058   -DE/DX =   -0.0001                        !
 !       A7        120.5893   -DE/DX =   -0.0001                        !
 !       A8        118.221    -DE/DX =    0.0                           !
 !       A9        116.988    -DE/DX =    0.0                           !
 !       A10       121.1827   -DE/DX =    0.0                           !
 !       A11       120.6131   -DE/DX =    0.0                           !
 !       A12       118.2439   -DE/DX =    0.0                           !
 !       D4        157.2994   -DE/DX =    0.0001                        !
 !       D5         12.5007   -DE/DX =    0.0                           !
 !       D6        171.1063   -DE/DX =    0.0                           !
 !       D7       -178.5461   -DE/DX =    0.0                           !
 !       D8        169.5958   -DE/DX =    0.0                           !
 !       D9        -21.161    -DE/DX =    0.0                           !
 !       D10       172.2261   -DE/DX =    0.0                           !
 !       D11       164.4359   -DE/DX =    0.0                           !
 !       D12       150.9735   -DE/DX =    0.0                           !
 ------------------------------------------------------------------------
 GradGradGradGradGradGradGradGradGradGradGradGradGradGradGradGradGradGrad


 ----------------------------------------------------------------------

 Electric dipole moment (input orientation):
 (Debye = 10**-18 statcoulomb cm , SI units = C m)
                  (au)            (Debye)         (10**-30 SI)
   Tot        0.876796D+00      0.222859D+01      0.743378D+01
   x         -0.770748D+00     -0.195905D+01     -0.653467D+01
   y          0.663424D-02      0.168625D-01      0.562474D-01
   z         -0.417940D+00     -0.106230D+01     -0.354345D+01

 Dipole polarizability, Alpha (input orientation).
 (esu units = cm**3 , SI units = C**2 m**2 J**-1)
 Alpha(0;0):
               (au)            (10**-24 esu)      (10**-40 SI)
   iso        0.650763D+02      0.964331D+01      0.107296D+02
   aniso      0.360198D+02      0.533758D+01      0.593886D+01
   xx         0.737185D+02      0.109240D+02      0.121545D+02
   yx        -0.729913D+01     -0.108162D+01     -0.120346D+01
   yy         0.440333D+02      0.652506D+01      0.726011D+01
   zx        -0.625285D+01     -0.926577D+00     -0.103096D+01
   zy        -0.211251D+01     -0.313041D+00     -0.348305D+00
   zz         0.774770D+02      0.114809D+02      0.127742D+02

 ----------------------------------------------------------------------

 Dipole orientation:
     1          0.00000000         -0.00000000          0.00000000
     6         -1.79569834         -0.01545652         -0.97372250
     6         -1.72195053         -0.03518846         -3.62534078
     6         -3.95888598         -0.90440511          0.27425244
     1          0.12776418         -0.43757473         -4.46920024
     8         -3.55364681          0.06299473         -5.16562535
     6         -6.26595204         -0.99267305         -0.95852109
     1         -3.72181529         -1.81523060          2.09607506
     6         -6.55637488          0.56311136         -3.06457719
     1         -7.68257006         -2.38090659         -0.45694170
     1         -8.09281366          0.25784891         -4.38204436
     1         -5.89949614          2.49417524         -2.93838029

 Electric dipole moment (dipole orientation):
 (Debye = 10**-18 statcoulomb cm , SI units = C m)
                  (au)            (Debye)         (10**-30 SI)
   Tot        0.876796D+00      0.222859D+01      0.743378D+01
   x          0.000000D+00      0.000000D+00      0.000000D+00
   y          0.000000D+00      0.000000D+00      0.000000D+00
   z          0.876796D+00      0.222859D+01      0.743378D+01

 Dipole polarizability, Alpha (dipole orientation).
 (esu units = cm**3 , SI units = C**2 m**2 J**-1)
 Alpha(0;0):
               (au)            (10**-24 esu)      (10**-40 SI)
   iso        0.650763D+02      0.964331D+01      0.107296D+02
   aniso      0.360198D+02      0.533758D+01      0.593886D+01
   xx         0.818481D+02      0.121286D+02      0.134949D+02
   yx         0.177920D+01      0.263650D+00      0.293350D+00
   yy         0.439377D+02      0.651089D+01      0.724434D+01
   zx        -0.181592D+01     -0.269091D+00     -0.299404D+00
   zy        -0.723947D+01     -0.107278D+01     -0.119363D+01
   zz         0.694430D+02      0.102904D+02      0.114496D+02

 ----------------------------------------------------------------------
 1\1\GINC-BHC0105\Freq\RB3LYP\def2TZVP\C5H6O1\DHANAWAY\10-Jun-2022\1\\#
 N Geom=AllCheck Guess=TCheck SCRF=Check GenChk RB3LYP/def2TZVP Freq\\t
 s_zmat_initalOpt\\0,1\H\C,1,R2\C,2,R3,1,A3\C,2,R4,1,A4,3,D4,0\H,3,R5,2
 ,A5,1,D5,0\O,3,R6,2,A6,5,D6,0\C,4,R7,2,A7,1,D7,0\H,4,R8,2,A8,7,D8,0\C,
 7,R9,4,A9,2,D9,0\H,7,R10,4,A10,9,D10,0\H,9,R11,7,A11,4,D11,0\H,9,R12,7
 ,A12,11,D12,0\\R2=1.08098703\R3=1.40375739\R4=1.40277401\R5=1.09674553
 \R6=1.26751229\R7=1.38499695\R8=1.08511567\R9=1.39408649\R10=1.0826273
 6\R11=1.08314044\R12=1.08144235\A3=116.87774772\A4=119.70044343\A5=115
 .67383705\A6=128.40575807\A7=120.58928278\A8=118.22102717\A9=116.98797
 081\A10=121.18268972\A11=120.61310599\A12=118.24394882\D4=157.29939339
 \D5=12.5006868\D6=171.10625443\D7=-178.54607267\D8=169.59582234\D9=-21
 .16101302\D10=172.22606038\D11=164.43593027\D12=150.97354017\\Version=
 ES64L-G16RevA.03\HF=-269.3959446\RMSD=1.774e-09\RMSF=2.226e-04\ZeroPoi
 nt=0.095627\Thermal=0.1004663\Dipole=-0.7707481,0.0066342,-0.4179403\D
 ipoleDeriv=0.0588661,0.0204467,0.0403608,-0.0042371,0.1694071,0.044578
 1,0.0148364,-0.0071269,-0.0492823,-0.8230765,0.0080216,0.4147435,0.010
 9742,-0.3073677,-0.1074101,-0.0285834,0.0435198,-0.0746846,0.818707,0.
 0585714,-0.0481081,0.0935522,0.0907075,-0.0744282,0.6833805,-0.0814232
 ,0.3235912,0.4233402,-0.1439123,-0.30012,-0.0526235,-0.0226731,0.05118
 37,-0.3231874,-0.0473407,0.7209568,-0.0741553,-0.0315277,0.1289808,-0.
 0433728,0.0977829,-0.0401063,0.1659526,0.0148214,-0.031518,-0.826443,0
 .0763988,-0.4183729,-0.0296132,-0.3069835,0.1089177,-0.5424929,0.06210
 41,-0.4557957,-0.2636478,-0.0916436,-0.2028443,-0.1038439,-0.1517763,0
 .3024292,0.1221652,0.1240915,-0.809657,0.0007967,0.0588712,-0.0139366,
 0.0394313,0.0913534,0.095597,-0.0448094,0.0322131,0.0583734,0.5003187,
 -0.0728853,0.4970912,-0.0169321,0.2484818,-0.2360984,-0.0567035,-0.015
 7666,0.3500335,0.0952278,0.0879246,-0.045285,0.1248233,0.0411127,-0.13
 00217,0.034047,-0.0486167,0.0308715,0.0697366,-0.0086359,0.0247951,-0.
 0063159,0.0739193,-0.0149043,-0.0317723,0.0068354,-0.1203099,0.0203296
 ,0.0383705,-0.0773046,-0.0118426,-0.023964,0.0002632,0.0071672,-0.0833
 111,0.057421\Polar=73.7185025,-7.2991254,44.0333037,-6.2528506,-2.1125
 072,77.4769913\PG=C01 [X(C5H6O1)]\NImag=1\\0.05817463,-0.00619466,0.02
 494547,0.00087433,0.00197108,0.36093851,-0.05582668,0.00433723,-0.0027
 1350,0.57881272,0.00386582,-0.02844536,-0.00236125,-0.08640222,0.14403
 458,0.00121473,0.00580740,-0.34157689,0.00294916,0.04904089,0.70627119
 ,0.00319802,-0.00189454,0.00402162,-0.24456209,-0.00295213,-0.09414373
 ,0.63425270,0.00103137,-0.00483128,0.00159293,-0.01905355,-0.05777897,
 -0.00481561,0.04105686,0.18354318,-0.03097082,0.00255054,-0.01096421,0
 .00257466,-0.00315600,-0.15063968,-0.01426730,-0.04666322,0.67853272,0
 .00253321,-0.00062146,-0.00116583,-0.22241654,0.07376551,0.09953825,-0
 .06233420,0.01856847,-0.02799707,0.55718854,-0.00207526,0.00018924,0.0
 0138394,0.08867057,-0.09163200,-0.04641295,0.01184301,-0.00187563,0.00
 676409,-0.21661947,0.27224053,0.02864632,-0.00890417,-0.01138369,0.033
 94468,-0.01738627,-0.16549368,0.04347957,-0.00467430,0.07974003,0.0321
 9233,-0.02984777,0.68144423,0.00060371,0.00056649,-0.00052308,-0.02317
 093,-0.00533695,0.01717809,-0.21506671,-0.04290740,0.10396908,-0.00231
 811,-0.00179366,-0.00513858,0.22540636,-0.00019761,-0.00267551,0.00001
 507,0.00445563,0.00663202,0.00525624,-0.05085970,-0.05652475,0.0163269
 3,-0.00219372,0.00730503,0.00010798,0.04650683,0.03449223,0.00006547,-
 0.00066824,0.00076823,-0.01355786,0.00101402,0.00825023,0.11334466,0.0
 2042785,-0.11328405,-0.00073253,-0.00068015,-0.00378669,-0.11909282,-0
 .03130006,0.15201334,-0.00429958,0.00217576,-0.00182741,0.02514077,-0.
 00941846,-0.04649737,-0.14689032,-0.00206041,-0.11073697,-0.00568236,0
 .00540254,0.02797937,0.01292214,0.00171553,0.02770491,0.13636004,0.000
 40608,0.00833285,-0.00100142,0.00775775,0.01727083,0.00061253,0.001208
 31,-0.06595579,0.01819109,-0.00578787,-0.00119281,0.00546452,0.0017123
 0,0.00659465,0.00995142,0.00349155,0.06142774,-0.00246721,0.00243463,0
 .00050659,-0.10896196,0.00519766,-0.03541934,-0.02433019,0.02869091,-0
 .38949798,0.03665144,-0.01181002,-0.06979655,0.00255366,0.01386289,-0.
 04935395,0.14934414,-0.04059388,0.48158098,-0.00288237,0.00251600,0.00
 209671,0.02373939,-0.00149865,0.02701976,-0.02027968,0.00188009,-0.026
 98265,-0.09318438,0.02956622,0.01980420,0.00124322,-0.00363767,0.00223
 514,-0.03840130,0.00658572,0.03501547,0.39455965,0.00412842,0.00525406
 ,-0.00150102,-0.02028871,0.01257082,-0.01632742,0.01636249,-0.00144411
 ,0.02828202,0.03067616,-0.09089302,-0.03126936,-0.00076096,0.00107745,
 -0.00166633,0.02105857,0.00547594,-0.02893344,-0.28432066,0.42303738,0
 .00188404,-0.00169037,0.00105154,0.07377396,-0.02552614,-0.03069907,-0
 .04290593,0.00341230,-0.06719558,-0.02246936,0.01288098,-0.33622321,0.
 00089102,-0.00235951,0.00437567,-0.02785303,-0.00641947,0.06677571,-0.
 00977659,0.04944685,0.65759547,0.00027367,-0.00237402,0.00005528,-0.02
 082929,0.01378015,-0.00949830,0.00262661,0.00521195,0.00561629,-0.1939
 3148,0.09442456,-0.10846546,-0.00007896,-0.00111575,-0.00045194,0.0017
 9554,-0.00090741,-0.00416626,0.00727678,-0.00111202,0.00492722,0.20484
 646,-0.00138384,-0.00250736,-0.00023037,0.00043611,0.00348244,0.011737
 97,0.00619778,0.00388297,0.00105290,0.10163298,-0.10612016,0.05557925,
 0.00140344,0.00061510,0.00003278,0.00215158,-0.00124355,-0.00501144,0.
 00360654,0.00462753,0.00494193,-0.10926650,0.09300652,-0.00057532,-0.0
 0042733,0.00079098,0.01228547,-0.00703163,0.01149421,0.00297752,-0.000
 88761,-0.00080049,-0.10266992,0.06224271,-0.13524884,0.00068586,0.0010
 0075,0.00017564,0.00082275,-0.00012559,-0.00071390,-0.02163547,0.01644
 471,-0.00869002,0.11003907,-0.07102836,0.13872506,-0.00232052,0.001044
 10,-0.00078917,-0.07624123,0.01341192,0.00301468,0.06296797,-0.0028692
 9,0.11540968,0.02428057,-0.01462657,-0.08616042,0.00013514,0.00518182,
 -0.01209805,0.04247202,0.00160666,-0.11563002,-0.14188087,0.09414455,-
 0.01524833,-0.00114858,-0.00192020,-0.00221096,0.17309750,0.00016152,-
 0.00099426,-0.00008815,0.01291868,-0.00731707,-0.00499017,-0.01292432,
 0.00186690,-0.01493191,-0.00169014,0.00830699,0.02045941,0.00017201,0.
 00332528,0.00145465,-0.00960519,-0.03023249,0.01944790,0.12254642,-0.1
 9102974,0.06249741,0.00250314,0.00578459,-0.00145805,-0.15023592,0.589
 73845,-0.00002754,-0.00112176,0.00046747,0.00703579,0.00055834,0.00065
 380,0.00627184,0.00226049,-0.03158716,-0.02980928,0.02454497,-0.023773
 54,-0.00054259,-0.00213859,0.00145920,-0.03020049,0.00314005,0.0033672
 1,-0.09702354,0.07815873,-0.16842581,0.00150372,0.00182177,-0.00621045
 ,0.19074909,0.03932834,0.61894926,0.00031708,0.00054599,-0.00003298,0.
 00940108,0.00199103,-0.00075639,-0.00416173,-0.00029500,-0.00778974,0.
 00048841,-0.00054391,0.00852000,0.00021796,-0.00076389,0.00056618,-0.0
 0438106,0.00155817,0.00706568,-0.12934439,0.11827396,0.06074675,-0.000
 86790,-0.00236742,0.00092833,0.00237625,0.01072663,0.01074333,0.126367
 84,0.00029906,0.00074019,0.00019572,0.00652355,0.00176601,-0.00033420,
 -0.00402977,-0.00041851,-0.00631583,-0.00294663,0.00225180,0.00984645,
 0.00025399,-0.00080552,0.00047007,-0.00462857,0.00153762,0.00695683,0.
 11463644,-0.16342548,-0.10885160,-0.00098909,-0.00150345,0.00021413,0.
 01731622,-0.01428009,-0.00833553,-0.12805974,0.17565283,0.00147364,0.0
 0042281,-0.00055120,-0.00281796,0.00034338,-0.00470982,-0.00041779,-0.
 00018083,-0.00063979,0.02015726,-0.02211686,-0.01291186,0.00007209,0.0
 0007280,0.00011215,-0.00006196,-0.00006868,0.00070164,0.07033978,-0.09
 932971,-0.12202209,0.00000080,0.00096930,0.00100956,-0.00904084,0.0140
 7579,0.00958906,-0.07873879,0.10408568,0.12971158,0.00001732,-0.000131
 72,-0.00003684,-0.00188952,0.00106488,-0.00001820,-0.00242811,0.000819
 68,0.00236821,0.00132480,0.00461894,-0.00486692,-0.00014300,0.00035858
 ,0.00044947,0.00452788,-0.00011103,0.00714474,0.00676189,-0.00462280,-
 0.01683270,-0.00035731,-0.00090824,-0.00107557,-0.06247870,-0.00311666
 ,-0.05927160,-0.00108186,-0.00232625,0.00071979,0.05142369,-0.00004205
 ,-0.00002759,-0.00000526,-0.00036251,0.00044385,-0.00023178,-0.0015037
 1,0.00033429,0.00063563,0.00569506,-0.00044574,-0.00006884,-0.00004681
 ,0.00036070,0.00032634,0.00126176,-0.00103296,0.00327500,0.00321615,0.
 00595536,0.02166270,-0.00032010,-0.00040188,0.00102033,-0.00385662,-0.
 06047754,-0.04591414,-0.00168397,-0.00047113,-0.00042979,0.00213991,0.
 05482673,0.00007338,0.00008492,-0.00004391,0.00064784,-0.00044486,0.00
 067964,-0.00018191,-0.00057315,-0.00114762,-0.00522530,0.00071216,0.00
 103305,0.00004175,-0.00010878,-0.00003129,-0.00066370,0.00060365,0.000
 14648,-0.00142759,-0.00455752,-0.01025411,0.00066762,0.00068656,-0.000
 69968,-0.06067422,-0.04356295,-0.31844408,0.00087991,0.00142284,0.0006
 4419,0.06887571,0.04590059,0.33453368,0.00021151,0.00003083,0.00004087
 ,0.00784233,-0.00227091,-0.00000068,-0.00732244,-0.00138277,-0.0111933
 8,-0.00594846,0.00113303,0.01006490,0.00024917,0.00054995,0.00156737,-
 0.02356377,-0.01752023,0.01778050,-0.00760793,0.02646101,-0.00713706,0
 .00039446,0.00041778,0.00042824,-0.02125957,0.02854381,0.00057127,0.00
 066831,0.00395078,-0.00168604,0.00432293,-0.00449710,-0.00301350,0.052
 01346,0.00000115,0.00001955,0.00002874,0.00100746,-0.00102714,0.000657
 09,-0.00250428,-0.00079829,-0.00273624,-0.00047890,0.00186577,0.000693
 11,0.00023072,-0.00039666,0.00063764,-0.01154466,-0.00098203,0.0064829
 3,0.00490340,-0.01120619,-0.00999509,0.00016508,0.00037725,0.00003593,
 0.04080334,-0.30469101,-0.09230268,0.00061816,-0.00104427,0.00215610,0
 .00221471,0.00093591,-0.00016346,-0.03541618,0.31694713,-0.00019101,-0
 .00045952,-0.00000343,-0.00516029,-0.00024815,0.00118941,0.00615163,0.
 00141023,0.00748381,0.00153001,0.00233890,-0.00359924,-0.00009449,-0.0
 0073574,-0.00069848,0.01198977,0.01024578,-0.00829688,0.00033475,0.011
 25248,0.01371152,-0.00022804,-0.00055228,0.00016793,-0.00732144,-0.092
 23227,-0.08604495,-0.00213228,0.00064544,-0.00093342,0.00254390,-0.026
 17079,-0.00641635,-0.00742249,0.09450591,0.08344007\\-0.00007918,0.000
 09508,0.00000063,0.00006216,0.00086718,0.00000389,-0.00000490,-0.00099
 830,0.00007551,0.00002620,0.00000939,-0.00001700,-0.00000203,0.0000003
 4,0.00000004,0.00001341,0.00002261,-0.00007279,0.00001352,-0.00001210,
 0.00001821,0.00000149,-0.00000006,-0.00000120,-0.00004951,0.00000721,-
 0.00000652,0.00000947,0.00000364,0.00000160,0.00000113,-0.00000095,-0.
 00000036,0.00000825,0.00000596,-0.00000201\\\@


 IT WAS A GAME, A VERY INTERESTING GAME ONE COULD
 PLAY.  WHENEVER ONE SOLVED ONE OF THE LITTLE PROBLEMS,
 ONE COULD WRITE A PAPER ABOUT IT.  IT WAS VERY EASY IN
 THOSE DAYS FOR ANY SECOND-RATE PHYSICIST TO DO
 FIRST-RATE WORK.  THERE HAS NOT BEEN SUCH A GLORIOUS
 TIME SINCE.  IT IS VERY DIFFICULT NOW FOR A FIRST-RATE
 PHYSICIST TO DO SECOND-RATE WORK.
     P.A.M. DIRAC, ON THE EARLY DAYS OF QUANTUM MECHANICS
                   DIRECTIONS IN PHYSICS, 1978, P. 7
 Job cpu time:       0 days  0 hours 31 minutes 18.0 seconds.
 Elapsed time:       0 days  0 hours  2 minutes 37.7 seconds.
 File lengths (MBytes):  RWF=     54 Int=      0 D2E=      0 Chk=     32 Scr=      1
 Normal termination of Gaussian 16 at Fri Jun 10 23:22:52 2022.
