 Entering Gaussian System, Link 0=g16
 Input=int.gjf
 Output=int.out
 Initial command:
 /software/gaussian/g16-a03/l1.exe "/local_scratch/11171629/Gau-4118.inp" -scrdir="/local_scratch/11171629/"
 Entering Link 1 = /software/gaussian/g16-a03/l1.exe PID=      4119.
  
 Copyright (c) 1988,1990,1992,1993,1995,1998,2003,2009,2016,
            Gaussian, Inc.  All Rights Reserved.
  
 This is part of the Gaussian(R) 16 program.  It is based on
 the Gaussian(R) 09 system (copyright 2009, Gaussian, Inc.),
 the Gaussian(R) 03 system (copyright 2003, Gaussian, Inc.),
 the Gaussian(R) 98 system (copyright 1998, Gaussian, Inc.),
 the Gaussian(R) 94 system (copyright 1995, Gaussian, Inc.),
 the Gaussian 92(TM) system (copyright 1992, Gaussian, Inc.),
 the Gaussian 90(TM) system (copyright 1990, Gaussian, Inc.),
 the Gaussian 88(TM) system (copyright 1988, Gaussian, Inc.),
 the Gaussian 86(TM) system (copyright 1986, Carnegie Mellon
 University), and the Gaussian 82(TM) system (copyright 1983,
 Carnegie Mellon University). Gaussian is a federally registered
 trademark of Gaussian, Inc.
  
 This software contains proprietary and confidential information,
 including trade secrets, belonging to Gaussian, Inc.
  
 This software is provided under written license and may be
 used, copied, transmitted, or stored only in accord with that
 written license.
  
 The following legend is applicable only to US Government
 contracts under FAR:
  
                    RESTRICTED RIGHTS LEGEND
  
 Use, reproduction and disclosure by the US Government is
 subject to restrictions as set forth in subparagraphs (a)
 and (c) of the Commercial Computer Software - Restricted
 Rights clause in FAR 52.227-19.
  
 Gaussian, Inc.
 340 Quinnipiac St., Bldg. 40, Wallingford CT 06492
  
  
 ---------------------------------------------------------------
 Warning -- This program may not be used in any manner that
 competes with the business of Gaussian, Inc. or will provide
 assistance to any competitor of Gaussian, Inc.  The licensee
 of this program is prohibited from giving any competitor of
 Gaussian, Inc. access to this program.  By using this program,
 the user acknowledges that Gaussian, Inc. is engaged in the
 business of creating and licensing software in the field of
 computational chemistry and represents and warrants to the
 licensee that it is not a competitor of Gaussian, Inc. and that
 it will not use this program in any manner prohibited above.
 ---------------------------------------------------------------
  

 Cite this work as:
 Gaussian 16, Revision A.03,
 M. J. Frisch, G. W. Trucks, H. B. Schlegel, G. E. Scuseria, 
 M. A. Robb, J. R. Cheeseman, G. Scalmani, V. Barone, 
 G. A. Petersson, H. Nakatsuji, X. Li, M. Caricato, A. V. Marenich, 
 J. Bloino, B. G. Janesko, R. Gomperts, B. Mennucci, H. P. Hratchian, 
 J. V. Ortiz, A. F. Izmaylov, J. L. Sonnenberg, D. Williams-Young, 
 F. Ding, F. Lipparini, F. Egidi, J. Goings, B. Peng, A. Petrone, 
 T. Henderson, D. Ranasinghe, V. G. Zakrzewski, J. Gao, N. Rega, 
 G. Zheng, W. Liang, M. Hada, M. Ehara, K. Toyota, R. Fukuda, 
 J. Hasegawa, M. Ishida, T. Nakajima, Y. Honda, O. Kitao, H. Nakai, 
 T. Vreven, K. Throssell, J. A. Montgomery, Jr., J. E. Peralta, 
 F. Ogliaro, M. J. Bearpark, J. J. Heyd, E. N. Brothers, K. N. Kudin, 
 V. N. Staroverov, T. A. Keith, R. Kobayashi, J. Normand, 
 K. Raghavachari, A. P. Rendell, J. C. Burant, S. S. Iyengar, 
 J. Tomasi, M. Cossi, J. M. Millam, M. Klene, C. Adamo, R. Cammi, 
 J. W. Ochterski, R. L. Martin, K. Morokuma, O. Farkas, 
 J. B. Foresman, and D. J. Fox, Gaussian, Inc., Wallingford CT, 2016.
 
 ******************************************
 Gaussian 16:  ES64L-G16RevA.03 25-Dec-2016
                10-Jun-2022 
 ******************************************
 %nprocshared=12
 Will use up to   12 processors via shared memory.
 %chk=checkpoint.chk
 %mem=12GB
 ------------------------------------------
 # Opt B3LYP/Def2TZVP freq=noraman pop=none
 ------------------------------------------
 1/18=20,19=15,26=3,38=1/1,3;
 2/9=110,12=2,17=6,18=5,40=1/2;
 3/5=44,7=101,11=2,25=1,30=1,71=1,74=-5/1,2,3;
 4//1;
 5/5=2,38=5/2;
 7//1,2,3,16;
 1/18=20,19=15,26=3/3(2);
 2/9=110/2;
 99//99;
 2/9=110/2;
 3/5=44,7=101,11=2,25=1,30=1,71=1,74=-5/1,2,3;
 4/5=5,16=3,69=1/1;
 5/5=2,38=5/2;
 7//1,2,3,16;
 1/18=20,19=15,26=3/3(-5);
 2/9=110/2;
 99/9=1/99;
 -------------
 int_initalOpt
 -------------
 Symbolic Z-matrix:
 Charge =  0 Multiplicity = 1
 6                     0.56634   1.04125  -0.03403 
 6                    -0.84171   0.86325   0.02756 
 6                    -1.08727  -0.4882   -0.00734 
 7                     0.12168  -1.1287   -0.08763 
 6                     1.13594  -0.20716  -0.10458 
 1                     2.16643  -0.51153  -0.16467 
 1                     1.10047   1.97667  -0.02739 
 1                    -1.58884   1.63671   0.09023 
 1                    -2.0111   -1.03962   0.01804 
 1                     0.24571  -2.12383  -0.12799 
 

 GradGradGradGradGradGradGradGradGradGradGradGradGradGradGradGradGradGrad
 Berny optimization.
 Initialization pass.
                           ----------------------------
                           !    Initial Parameters    !
                           ! (Angstroms and Degrees)  !
 --------------------------                            --------------------------
 ! Name  Definition              Value          Derivative Info.                !
 --------------------------------------------------------------------------------
 ! R1    R(1,2)                  1.4206         estimate D2E/DX2                !
 ! R2    R(1,5)                  1.374          estimate D2E/DX2                !
 ! R3    R(1,7)                  1.0772         estimate D2E/DX2                !
 ! R4    R(2,3)                  1.374          estimate D2E/DX2                !
 ! R5    R(2,8)                  1.0772         estimate D2E/DX2                !
 ! R6    R(3,4)                  1.3705         estimate D2E/DX2                !
 ! R7    R(3,9)                  1.0762         estimate D2E/DX2                !
 ! R8    R(4,5)                  1.3705         estimate D2E/DX2                !
 ! R9    R(4,10)                 1.0036         estimate D2E/DX2                !
 ! R10   R(5,6)                  1.0762         estimate D2E/DX2                !
 ! A1    A(2,1,5)              107.4141         estimate D2E/DX2                !
 ! A2    A(2,1,7)              126.8709         estimate D2E/DX2                !
 ! A3    A(5,1,7)              125.715          estimate D2E/DX2                !
 ! A4    A(1,2,3)              107.4141         estimate D2E/DX2                !
 ! A5    A(1,2,8)              126.8708         estimate D2E/DX2                !
 ! A6    A(3,2,8)              125.7151         estimate D2E/DX2                !
 ! A7    A(2,3,4)              107.6686         estimate D2E/DX2                !
 ! A8    A(2,3,9)              131.0551         estimate D2E/DX2                !
 ! A9    A(4,3,9)              121.2763         estimate D2E/DX2                !
 ! A10   A(3,4,5)              109.8347         estimate D2E/DX2                !
 ! A11   A(3,4,10)             125.0826         estimate D2E/DX2                !
 ! A12   A(5,4,10)             125.0827         estimate D2E/DX2                !
 ! A13   A(1,5,4)              107.6685         estimate D2E/DX2                !
 ! A14   A(1,5,6)              131.0552         estimate D2E/DX2                !
 ! A15   A(4,5,6)              121.2763         estimate D2E/DX2                !
 ! D1    D(5,1,2,3)             -0.0001         estimate D2E/DX2                !
 ! D2    D(5,1,2,8)           -179.9999         estimate D2E/DX2                !
 ! D3    D(7,1,2,3)            179.9999         estimate D2E/DX2                !
 ! D4    D(7,1,2,8)              0.0001         estimate D2E/DX2                !
 ! D5    D(2,1,5,4)             -0.0002         estimate D2E/DX2                !
 ! D6    D(2,1,5,6)            180.0            estimate D2E/DX2                !
 ! D7    D(7,1,5,4)            179.9999         estimate D2E/DX2                !
 ! D8    D(7,1,5,6)              0.0            estimate D2E/DX2                !
 ! D9    D(1,2,3,4)              0.0002         estimate D2E/DX2                !
 ! D10   D(1,2,3,9)           -179.9999         estimate D2E/DX2                !
 ! D11   D(8,2,3,4)           -179.9999         estimate D2E/DX2                !
 ! D12   D(8,2,3,9)             -0.0001         estimate D2E/DX2                !
 ! D13   D(2,3,4,5)             -0.0003         estimate D2E/DX2                !
 ! D14   D(2,3,4,10)           179.9994         estimate D2E/DX2                !
 ! D15   D(9,3,4,5)            179.9998         estimate D2E/DX2                !
 ! D16   D(9,3,4,10)            -0.0005         estimate D2E/DX2                !
 ! D17   D(3,4,5,1)              0.0003         estimate D2E/DX2                !
 ! D18   D(3,4,5,6)           -179.9998         estimate D2E/DX2                !
 ! D19   D(10,4,5,1)          -179.9994         estimate D2E/DX2                !
 ! D20   D(10,4,5,6)             0.0005         estimate D2E/DX2                !
 --------------------------------------------------------------------------------
 Trust Radius=3.00D-01 FncErr=1.00D-07 GrdErr=1.00D-06 EigMax=2.50D+02 EigMin=1.00D-04
 Number of steps in this run=     55 maximum allowed number of steps=    100.
 GradGradGradGradGradGradGradGradGradGradGradGradGradGradGradGradGradGrad

                          Input orientation:                          
 ---------------------------------------------------------------------
 Center     Atomic      Atomic             Coordinates (Angstroms)
 Number     Number       Type             X           Y           Z
 ---------------------------------------------------------------------
      1          6           0        0.566336    1.041248   -0.034026
      2          6           0       -0.841712    0.863253    0.027557
      3          6           0       -1.087272   -0.488196   -0.007343
      4          7           0        0.121678   -1.128696   -0.087634
      5          6           0        1.135938   -0.207155   -0.104577
      6          1           0        2.166431   -0.511525   -0.164670
      7          1           0        1.100469    1.976673   -0.027389
      8          1           0       -1.588837    1.636712    0.090230
      9          1           0       -2.011102   -1.039616    0.018037
     10          1           0        0.245709   -2.123828   -0.127987
 ---------------------------------------------------------------------
                    Distance matrix (angstroms):
                    1          2          3          4          5
     1  C    0.000000
     2  C    1.420589   0.000000
     3  C    2.252627   1.374020   0.000000
     4  N    2.215683   2.215683   1.370492   0.000000
     5  C    1.374021   2.252628   2.243012   1.370492   0.000000
     6  H    2.233490   3.312988   3.257588   2.137253   1.076182
     7  H    1.077201   2.239373   3.295784   3.256529   2.185480
     8  H    2.239372   1.077201   2.185480   3.256529   3.295784
     9  H    3.312988   2.233489   1.076183   2.137253   3.257589
    10  H    3.182662   3.182661   2.113453   1.003643   2.113455
                    6          7          8          9         10
     6  H    0.000000
     7  H    2.710397   0.000000
     8  H    4.333813   2.713259   0.000000
     9  H    4.214741   4.333813   2.710397   0.000000
    10  H    2.507995   4.189850   4.189849   2.507994   0.000000
 Stoichiometry    C4H5N
 Framework group  C1[X(C4H5N)]
 Deg. of freedom    24
 Full point group                 C1      NOp   1
 Largest Abelian subgroup         C1      NOp   1
 Largest concise Abelian subgroup C1      NOp   1
                         Standard orientation:                         
 ---------------------------------------------------------------------
 Center     Atomic      Atomic             Coordinates (Angstroms)
 Number     Number       Type             X           Y           Z
 ---------------------------------------------------------------------
      1          6           0        0.980221   -0.710291    0.000000
      2          6           0        0.980215    0.710298    0.000001
      3          6           0       -0.330831    1.121504   -0.000002
      4          7           0       -1.118528   -0.000004    0.000001
      5          6           0       -0.330823   -1.121507   -0.000002
      6          1           0       -0.762374   -2.107373   -0.000003
      7          1           0        1.841973   -1.356623    0.000001
      8          1           0        1.841963    1.356636    0.000001
      9          1           0       -0.762389    2.107368   -0.000004
     10          1           0       -2.122171   -0.000007    0.000009
 ---------------------------------------------------------------------
 Rotational constants (GHZ):           9.1960218           9.0642765           4.5648370
 Standard basis: def2TZVP (5D, 7F)
 There are   210 symmetry adapted cartesian basis functions of A   symmetry.
 There are   185 symmetry adapted basis functions of A   symmetry.
   185 basis functions,   295 primitive gaussians,   210 cartesian basis functions
    18 alpha electrons       18 beta electrons
       nuclear repulsion energy       161.2775926308 Hartrees.
 NAtoms=   10 NActive=   10 NUniq=   10 SFac= 1.00D+00 NAtFMM=   60 NAOKFM=F Big=F
 Integral buffers will be    131072 words long.
 Raffenetti 2 integral format.
 Two-electron integral symmetry is turned on.
 One-electron integrals computed using PRISM.
   1 Symmetry operations used in ECPInt.
 ECPInt:  NShTT=    2850 NPrTT=    8640 LenC2=    2844 LenP2D=    7462.
 LDataN:  DoStor=T MaxTD1= 6 Len=  172
 NBasis=   185 RedAO= T EigKep=  5.47D-05  NBF=   185
 NBsUse=   185 1.00D-06 EigRej= -1.00D+00 NBFU=   185
 ExpMin= 9.52D-02 ExpMax= 1.97D+04 ExpMxC= 6.73D+02 IAcc=3 IRadAn=         5 AccDes= 0.00D+00
 Harris functional with IExCor=  402 and IRadAn=       5 diagonalized for initial guess.
 HarFok:  IExCor=  402 AccDes= 0.00D+00 IRadAn=         5 IDoV= 1 UseB2=F ITyADJ=14
 ICtDFT=  3500011 ScaDFX=  1.000000  1.000000  1.000000  1.000000
 FoFCou: FMM=F IPFlag=           0 FMFlag=      100000 FMFlg1=           0
         NFxFlg=           0 DoJE=T BraDBF=F KetDBF=T FulRan=T
         wScrn=  0.000000 ICntrl=       500 IOpCl=  0 I1Cent=   200000004 NGrid=           0
         NMat0=    1 NMatS0=      1 NMatT0=    0 NMatD0=    1 NMtDS0=    0 NMtDT0=    0
 Petite list used in FoFCou.
 Keep R1 ints in memory in canonical form, NReq=160464511.
 Requested convergence on RMS density matrix=1.00D-08 within 128 cycles.
 Requested convergence on MAX density matrix=1.00D-06.
 Requested convergence on             energy=1.00D-06.
 No special actions if energy rises.
 Integral accuracy reduced to 1.0D-05 until final iterations.
 Initial convergence to 1.0D-05 achieved.  Increase integral accuracy.
 SCF Done:  E(RB3LYP) =  -210.253440123     A.U. after   12 cycles
            NFock= 12  Conv=0.55D-08     -V/T= 2.0051
   1 Symmetry operations used in ECPInt.
 ECPInt:  NShTT=    2850 NPrTT=    8640 LenC2=    2844 LenP2D=    7462.
 LDataN:  DoStor=T MaxTD1= 7 Len=  274
 Calling FoFJK, ICntrl=      2127 FMM=F ISym2X=0 I1Cent= 0 IOpClX= 0 NMat=1 NMatS=1 NMatT=0.
 ***** Axes restored to original set *****
 -------------------------------------------------------------------
 Center     Atomic                   Forces (Hartrees/Bohr)
 Number     Number              X              Y              Z
 -------------------------------------------------------------------
      1        6           0.000376638   -0.000262179   -0.000027275
      2        6          -0.000300458   -0.000346935    0.000002083
      3        6           0.000208982    0.000199616   -0.000002502
      4        7          -0.000039782    0.000319869    0.000012350
      5        6          -0.000252569    0.000141731    0.000017628
      6        1           0.000239640    0.000005853   -0.000011234
      7        1           0.000029625    0.000117905    0.000002580
      8        1          -0.000057630    0.000106683    0.000006425
      9        1          -0.000233059   -0.000053729    0.000009482
     10        1           0.000028612   -0.000228814   -0.000009538
 -------------------------------------------------------------------
 Cartesian Forces:  Max     0.000376638 RMS     0.000172378

 GradGradGradGradGradGradGradGradGradGradGradGradGradGradGradGradGradGrad
 Berny optimization.
 FormGI is forming the generalized inverse of G from B-inverse, IUseBI=4.
 Internal  Forces:  Max     0.000302258 RMS     0.000094986
 Search for a local minimum.
 Step number   1 out of a maximum of   55
 All quantities printed in internal units (Hartrees-Bohrs-Radians)
 Mixed Optimization -- En-DIIS/RFO-DIIS
 Second derivative matrix not updated -- first step.
 ITU=  0
     Eigenvalues ---    0.02018   0.02082   0.02104   0.02159   0.02242
     Eigenvalues ---    0.02286   0.02318   0.16000   0.16000   0.16000
     Eigenvalues ---    0.16000   0.16000   0.22000   0.22000   0.36335
     Eigenvalues ---    0.36335   0.36459   0.36460   0.39356   0.43900
     Eigenvalues ---    0.47053   0.47743   0.50305   0.50714
 RFO step:  Lambda=-1.08902754D-06 EMin= 2.01817465D-02
 Linear search not attempted -- first point.
 Iteration  1 RMS(Cart)=  0.00030918 RMS(Int)=  0.00000005
 Iteration  2 RMS(Cart)=  0.00000006 RMS(Int)=  0.00000000
 Variable       Old X    -DE/DX   Delta X   Delta X   Delta X     New X
                                 (Linear)    (Quad)   (Total)
    R1        2.68452   0.00030   0.00000   0.00072   0.00072   2.68525
    R2        2.59652  -0.00021   0.00000  -0.00042  -0.00042   2.59611
    R3        2.03561   0.00012   0.00000   0.00032   0.00032   2.03594
    R4        2.59652  -0.00021   0.00000  -0.00042  -0.00042   2.59611
    R5        2.03562   0.00012   0.00000   0.00032   0.00032   2.03594
    R6        2.58985   0.00005   0.00000   0.00009   0.00009   2.58994
    R7        2.03369   0.00023   0.00000   0.00062   0.00062   2.03432
    R8        2.58985   0.00005   0.00000   0.00009   0.00009   2.58994
    R9        1.89661   0.00023   0.00000   0.00049   0.00049   1.89710
   R10        2.03369   0.00023   0.00000   0.00063   0.00063   2.03432
    A1        1.87473   0.00000   0.00000   0.00002   0.00002   1.87475
    A2        2.21431  -0.00003   0.00000  -0.00022  -0.00022   2.21410
    A3        2.19414   0.00003   0.00000   0.00020   0.00020   2.19434
    A4        1.87473   0.00000   0.00000   0.00002   0.00002   1.87475
    A5        2.21431  -0.00003   0.00000  -0.00022  -0.00022   2.21410
    A6        2.19414   0.00003   0.00000   0.00020   0.00020   2.19434
    A7        1.87917  -0.00003   0.00000  -0.00016  -0.00016   1.87901
    A8        2.28734  -0.00006   0.00000  -0.00038  -0.00038   2.28696
    A9        2.11667   0.00009   0.00000   0.00055   0.00055   2.11722
   A10        1.91698   0.00007   0.00000   0.00029   0.00029   1.91727
   A11        2.18310  -0.00003   0.00000  -0.00014  -0.00014   2.18296
   A12        2.18311  -0.00003   0.00000  -0.00015  -0.00015   2.18296
   A13        1.87917  -0.00003   0.00000  -0.00016  -0.00016   1.87901
   A14        2.28734  -0.00006   0.00000  -0.00039  -0.00039   2.28696
   A15        2.11667   0.00009   0.00000   0.00055   0.00055   2.11722
    D1       -0.00000   0.00000   0.00000   0.00000   0.00000   0.00000
    D2       -3.14159  -0.00000   0.00000  -0.00000  -0.00000   3.14159
    D3        3.14159   0.00000   0.00000   0.00000   0.00000  -3.14159
    D4        0.00000  -0.00000   0.00000  -0.00000  -0.00000   0.00000
    D5       -0.00000   0.00000   0.00000   0.00001   0.00001   0.00001
    D6        3.14159  -0.00000   0.00000  -0.00000  -0.00000   3.14159
    D7        3.14159   0.00000   0.00000   0.00001   0.00001  -3.14159
    D8        0.00000  -0.00000   0.00000  -0.00000  -0.00000  -0.00000
    D9        0.00000  -0.00000   0.00000  -0.00001  -0.00001  -0.00001
   D10       -3.14159  -0.00000   0.00000  -0.00000  -0.00000   3.14159
   D11       -3.14159  -0.00000   0.00000  -0.00001  -0.00001   3.14159
   D12       -0.00000   0.00000   0.00000   0.00000   0.00000   0.00000
   D13       -0.00001   0.00000   0.00000   0.00002   0.00002   0.00001
   D14        3.14158   0.00000   0.00000   0.00001   0.00001   3.14159
   D15        3.14159   0.00000   0.00000   0.00001   0.00001  -3.14159
   D16       -0.00001   0.00000   0.00000   0.00000   0.00000  -0.00001
   D17        0.00001  -0.00000   0.00000  -0.00002  -0.00002  -0.00001
   D18       -3.14159  -0.00000   0.00000  -0.00001  -0.00001   3.14159
   D19       -3.14158  -0.00000   0.00000  -0.00001  -0.00001  -3.14159
   D20        0.00001  -0.00000   0.00000  -0.00000  -0.00000   0.00001
         Item               Value     Threshold  Converged?
 Maximum Force            0.000302     0.000450     YES
 RMS     Force            0.000095     0.000300     YES
 Maximum Displacement     0.001234     0.001800     YES
 RMS     Displacement     0.000309     0.001200     YES
 Predicted change in Energy=-5.445138D-07
 Optimization completed.
    -- Stationary point found.
                           ----------------------------
                           !   Optimized Parameters   !
                           ! (Angstroms and Degrees)  !
 --------------------------                            --------------------------
 ! Name  Definition              Value          Derivative Info.                !
 --------------------------------------------------------------------------------
 ! R1    R(1,2)                  1.4206         -DE/DX =    0.0003              !
 ! R2    R(1,5)                  1.374          -DE/DX =   -0.0002              !
 ! R3    R(1,7)                  1.0772         -DE/DX =    0.0001              !
 ! R4    R(2,3)                  1.374          -DE/DX =   -0.0002              !
 ! R5    R(2,8)                  1.0772         -DE/DX =    0.0001              !
 ! R6    R(3,4)                  1.3705         -DE/DX =    0.0                 !
 ! R7    R(3,9)                  1.0762         -DE/DX =    0.0002              !
 ! R8    R(4,5)                  1.3705         -DE/DX =    0.0                 !
 ! R9    R(4,10)                 1.0036         -DE/DX =    0.0002              !
 ! R10   R(5,6)                  1.0762         -DE/DX =    0.0002              !
 ! A1    A(2,1,5)              107.4141         -DE/DX =    0.0                 !
 ! A2    A(2,1,7)              126.8709         -DE/DX =    0.0                 !
 ! A3    A(5,1,7)              125.715          -DE/DX =    0.0                 !
 ! A4    A(1,2,3)              107.4141         -DE/DX =    0.0                 !
 ! A5    A(1,2,8)              126.8708         -DE/DX =    0.0                 !
 ! A6    A(3,2,8)              125.7151         -DE/DX =    0.0                 !
 ! A7    A(2,3,4)              107.6686         -DE/DX =    0.0                 !
 ! A8    A(2,3,9)              131.0551         -DE/DX =   -0.0001              !
 ! A9    A(4,3,9)              121.2763         -DE/DX =    0.0001              !
 ! A10   A(3,4,5)              109.8347         -DE/DX =    0.0001              !
 ! A11   A(3,4,10)             125.0826         -DE/DX =    0.0                 !
 ! A12   A(5,4,10)             125.0827         -DE/DX =    0.0                 !
 ! A13   A(1,5,4)              107.6685         -DE/DX =    0.0                 !
 ! A14   A(1,5,6)              131.0552         -DE/DX =   -0.0001              !
 ! A15   A(4,5,6)              121.2763         -DE/DX =    0.0001              !
 ! D1    D(5,1,2,3)             -0.0001         -DE/DX =    0.0                 !
 ! D2    D(5,1,2,8)            180.0001         -DE/DX =    0.0                 !
 ! D3    D(7,1,2,3)           -180.0001         -DE/DX =    0.0                 !
 ! D4    D(7,1,2,8)              0.0001         -DE/DX =    0.0                 !
 ! D5    D(2,1,5,4)             -0.0002         -DE/DX =    0.0                 !
 ! D6    D(2,1,5,6)            180.0            -DE/DX =    0.0                 !
 ! D7    D(7,1,5,4)           -180.0001         -DE/DX =    0.0                 !
 ! D8    D(7,1,5,6)              0.0            -DE/DX =    0.0                 !
 ! D9    D(1,2,3,4)              0.0002         -DE/DX =    0.0                 !
 ! D10   D(1,2,3,9)            180.0001         -DE/DX =    0.0                 !
 ! D11   D(8,2,3,4)            180.0001         -DE/DX =    0.0                 !
 ! D12   D(8,2,3,9)             -0.0001         -DE/DX =    0.0                 !
 ! D13   D(2,3,4,5)             -0.0003         -DE/DX =    0.0                 !
 ! D14   D(2,3,4,10)           179.9994         -DE/DX =    0.0                 !
 ! D15   D(9,3,4,5)           -180.0002         -DE/DX =    0.0                 !
 ! D16   D(9,3,4,10)            -0.0005         -DE/DX =    0.0                 !
 ! D17   D(3,4,5,1)              0.0003         -DE/DX =    0.0                 !
 ! D18   D(3,4,5,6)            180.0002         -DE/DX =    0.0                 !
 ! D19   D(10,4,5,1)          -179.9994         -DE/DX =    0.0                 !
 ! D20   D(10,4,5,6)             0.0005         -DE/DX =    0.0                 !
 --------------------------------------------------------------------------------
 GradGradGradGradGradGradGradGradGradGradGradGradGradGradGradGradGradGrad

                          Input orientation:                          
 ---------------------------------------------------------------------
 Center     Atomic      Atomic             Coordinates (Angstroms)
 Number     Number       Type             X           Y           Z
 ---------------------------------------------------------------------
      1          6           0        0.566336    1.041248   -0.034026
      2          6           0       -0.841712    0.863253    0.027557
      3          6           0       -1.087272   -0.488196   -0.007343
      4          7           0        0.121678   -1.128696   -0.087634
      5          6           0        1.135938   -0.207155   -0.104577
      6          1           0        2.166431   -0.511525   -0.164670
      7          1           0        1.100469    1.976673   -0.027389
      8          1           0       -1.588837    1.636712    0.090230
      9          1           0       -2.011102   -1.039616    0.018037
     10          1           0        0.245709   -2.123828   -0.127987
 ---------------------------------------------------------------------
                    Distance matrix (angstroms):
                    1          2          3          4          5
     1  C    0.000000
     2  C    1.420589   0.000000
     3  C    2.252627   1.374020   0.000000
     4  N    2.215683   2.215683   1.370492   0.000000
     5  C    1.374021   2.252628   2.243012   1.370492   0.000000
     6  H    2.233490   3.312988   3.257588   2.137253   1.076182
     7  H    1.077201   2.239373   3.295784   3.256529   2.185480
     8  H    2.239372   1.077201   2.185480   3.256529   3.295784
     9  H    3.312988   2.233489   1.076183   2.137253   3.257589
    10  H    3.182662   3.182661   2.113453   1.003643   2.113455
                    6          7          8          9         10
     6  H    0.000000
     7  H    2.710397   0.000000
     8  H    4.333813   2.713259   0.000000
     9  H    4.214741   4.333813   2.710397   0.000000
    10  H    2.507995   4.189850   4.189849   2.507994   0.000000
 Stoichiometry    C4H5N
 Framework group  C1[X(C4H5N)]
 Deg. of freedom    24
 Full point group                 C1      NOp   1
 Largest Abelian subgroup         C1      NOp   1
 Largest concise Abelian subgroup C1      NOp   1
                         Standard orientation:                         
 ---------------------------------------------------------------------
 Center     Atomic      Atomic             Coordinates (Angstroms)
 Number     Number       Type             X           Y           Z
 ---------------------------------------------------------------------
      1          6           0        0.980221   -0.710291    0.000000
      2          6           0        0.980215    0.710298    0.000001
      3          6           0       -0.330831    1.121504   -0.000002
      4          7           0       -1.118528   -0.000004    0.000001
      5          6           0       -0.330823   -1.121507   -0.000002
      6          1           0       -0.762374   -2.107373   -0.000003
      7          1           0        1.841973   -1.356623    0.000001
      8          1           0        1.841963    1.356636    0.000001
      9          1           0       -0.762389    2.107368   -0.000004
     10          1           0       -2.122171   -0.000007    0.000009
 ---------------------------------------------------------------------
 Rotational constants (GHZ):           9.1960218           9.0642765           4.5648370
 1\1\GINC-BHC0008\FOpt\RB3LYP\def2TZVP\C4H5N1\DHANAWAY\10-Jun-2022\0\\#
  Opt B3LYP/Def2TZVP freq=noraman pop=none\\int_initalOpt\\0,1\C,0.5663
 36,1.041248,-0.034026\C,-0.841712,0.863253,0.027557\C,-1.087272,-0.488
 196,-0.007343\N,0.121678,-1.128696,-0.087634\C,1.135938,-0.207155,-0.1
 04577\H,2.166431,-0.511525,-0.16467\H,1.100469,1.976673,-0.027389\H,-1
 .588837,1.636712,0.09023\H,-2.011102,-1.039616,0.018037\H,0.245709,-2.
 123828,-0.127987\\Version=ES64L-G16RevA.03\HF=-210.2534401\RMSD=5.536e
 -09\RMSF=1.724e-04\Dipole=0.0927818,-0.7444103,-0.030189\PG=C01 [X(C4H
 5N1)]\\@


 WHEN ALL ELSE FAILS, TRY THE BOSS'S SUGGESTION.
 Job cpu time:       0 days  0 hours  2 minutes 36.3 seconds.
 Elapsed time:       0 days  0 hours  0 minutes 16.3 seconds.
 File lengths (MBytes):  RWF=     19 Int=      0 D2E=      0 Chk=     32 Scr=      1
 Normal termination of Gaussian 16 at Fri Jun 10 10:42:39 2022.
 Link1:  Proceeding to internal job step number  2.
 --------------------------------------------------------------------
 #N Geom=AllCheck Guess=TCheck SCRF=Check GenChk RB3LYP/def2TZVP Freq
 --------------------------------------------------------------------
 1/10=4,29=7,30=1,38=1,40=1/1,3;
 2/12=2,40=1/2;
 3/5=44,7=101,11=2,14=-4,25=1,30=1,70=2,71=2,74=-5,116=1,140=1/1,2,3;
 4/5=101/1;
 5/5=2,38=6,98=1/2;
 8/6=4,10=90,11=11/1;
 11/6=1,8=1,9=11,15=111,16=1/1,2,10;
 10/6=1/2;
 7/8=1,10=1,25=1/1,2,3,16;
 1/10=4,30=1/3;
 99//99;
 Structure from the checkpoint file:  "checkpoint.chk"
 -------------
 int_initalOpt
 -------------
 Charge =  0 Multiplicity = 1
 Redundant internal coordinates found in file.  (old form).
 C,0,0.566336,1.041248,-0.034026
 C,0,-0.841712,0.863253,0.027557
 C,0,-1.087272,-0.488196,-0.007343
 N,0,0.121678,-1.128696,-0.087634
 C,0,1.135938,-0.207155,-0.104577
 H,0,2.166431,-0.511525,-0.16467
 H,0,1.100469,1.976673,-0.027389
 H,0,-1.588837,1.636712,0.09023
 H,0,-2.011102,-1.039616,0.018037
 H,0,0.245709,-2.123828,-0.127987
 Recover connectivity data from disk.

 GradGradGradGradGradGradGradGradGradGradGradGradGradGradGradGradGradGrad
 Berny optimization.
 Initialization pass.
                           ----------------------------
                           !    Initial Parameters    !
                           ! (Angstroms and Degrees)  !
 --------------------------                            --------------------------
 ! Name  Definition              Value          Derivative Info.                !
 --------------------------------------------------------------------------------
 ! R1    R(1,2)                  1.4206         calculate D2E/DX2 analytically  !
 ! R2    R(1,5)                  1.374          calculate D2E/DX2 analytically  !
 ! R3    R(1,7)                  1.0772         calculate D2E/DX2 analytically  !
 ! R4    R(2,3)                  1.374          calculate D2E/DX2 analytically  !
 ! R5    R(2,8)                  1.0772         calculate D2E/DX2 analytically  !
 ! R6    R(3,4)                  1.3705         calculate D2E/DX2 analytically  !
 ! R7    R(3,9)                  1.0762         calculate D2E/DX2 analytically  !
 ! R8    R(4,5)                  1.3705         calculate D2E/DX2 analytically  !
 ! R9    R(4,10)                 1.0036         calculate D2E/DX2 analytically  !
 ! R10   R(5,6)                  1.0762         calculate D2E/DX2 analytically  !
 ! A1    A(2,1,5)              107.4141         calculate D2E/DX2 analytically  !
 ! A2    A(2,1,7)              126.8709         calculate D2E/DX2 analytically  !
 ! A3    A(5,1,7)              125.715          calculate D2E/DX2 analytically  !
 ! A4    A(1,2,3)              107.4141         calculate D2E/DX2 analytically  !
 ! A5    A(1,2,8)              126.8708         calculate D2E/DX2 analytically  !
 ! A6    A(3,2,8)              125.7151         calculate D2E/DX2 analytically  !
 ! A7    A(2,3,4)              107.6686         calculate D2E/DX2 analytically  !
 ! A8    A(2,3,9)              131.0551         calculate D2E/DX2 analytically  !
 ! A9    A(4,3,9)              121.2763         calculate D2E/DX2 analytically  !
 ! A10   A(3,4,5)              109.8347         calculate D2E/DX2 analytically  !
 ! A11   A(3,4,10)             125.0826         calculate D2E/DX2 analytically  !
 ! A12   A(5,4,10)             125.0827         calculate D2E/DX2 analytically  !
 ! A13   A(1,5,4)              107.6685         calculate D2E/DX2 analytically  !
 ! A14   A(1,5,6)              131.0552         calculate D2E/DX2 analytically  !
 ! A15   A(4,5,6)              121.2763         calculate D2E/DX2 analytically  !
 ! D1    D(5,1,2,3)             -0.0001         calculate D2E/DX2 analytically  !
 ! D2    D(5,1,2,8)           -179.9999         calculate D2E/DX2 analytically  !
 ! D3    D(7,1,2,3)            179.9999         calculate D2E/DX2 analytically  !
 ! D4    D(7,1,2,8)              0.0001         calculate D2E/DX2 analytically  !
 ! D5    D(2,1,5,4)             -0.0002         calculate D2E/DX2 analytically  !
 ! D6    D(2,1,5,6)            180.0            calculate D2E/DX2 analytically  !
 ! D7    D(7,1,5,4)            179.9999         calculate D2E/DX2 analytically  !
 ! D8    D(7,1,5,6)              0.0            calculate D2E/DX2 analytically  !
 ! D9    D(1,2,3,4)              0.0002         calculate D2E/DX2 analytically  !
 ! D10   D(1,2,3,9)           -179.9999         calculate D2E/DX2 analytically  !
 ! D11   D(8,2,3,4)           -179.9999         calculate D2E/DX2 analytically  !
 ! D12   D(8,2,3,9)             -0.0001         calculate D2E/DX2 analytically  !
 ! D13   D(2,3,4,5)             -0.0003         calculate D2E/DX2 analytically  !
 ! D14   D(2,3,4,10)           179.9994         calculate D2E/DX2 analytically  !
 ! D15   D(9,3,4,5)            179.9998         calculate D2E/DX2 analytically  !
 ! D16   D(9,3,4,10)            -0.0005         calculate D2E/DX2 analytically  !
 ! D17   D(3,4,5,1)              0.0003         calculate D2E/DX2 analytically  !
 ! D18   D(3,4,5,6)           -179.9998         calculate D2E/DX2 analytically  !
 ! D19   D(10,4,5,1)          -179.9994         calculate D2E/DX2 analytically  !
 ! D20   D(10,4,5,6)             0.0005         calculate D2E/DX2 analytically  !
 --------------------------------------------------------------------------------
 Trust Radius=3.00D-01 FncErr=1.00D-07 GrdErr=1.00D-07 EigMax=2.50D+02 EigMin=1.00D-04
 Number of steps in this run=      2 maximum allowed number of steps=      2.
 GradGradGradGradGradGradGradGradGradGradGradGradGradGradGradGradGradGrad

                          Input orientation:                          
 ---------------------------------------------------------------------
 Center     Atomic      Atomic             Coordinates (Angstroms)
 Number     Number       Type             X           Y           Z
 ---------------------------------------------------------------------
      1          6           0        0.566336    1.041248   -0.034026
      2          6           0       -0.841712    0.863253    0.027557
      3          6           0       -1.087272   -0.488196   -0.007343
      4          7           0        0.121678   -1.128696   -0.087634
      5          6           0        1.135938   -0.207155   -0.104577
      6          1           0        2.166431   -0.511525   -0.164670
      7          1           0        1.100469    1.976673   -0.027389
      8          1           0       -1.588837    1.636712    0.090230
      9          1           0       -2.011102   -1.039616    0.018037
     10          1           0        0.245709   -2.123828   -0.127987
 ---------------------------------------------------------------------
                    Distance matrix (angstroms):
                    1          2          3          4          5
     1  C    0.000000
     2  C    1.420589   0.000000
     3  C    2.252627   1.374020   0.000000
     4  N    2.215683   2.215683   1.370492   0.000000
     5  C    1.374021   2.252628   2.243012   1.370492   0.000000
     6  H    2.233490   3.312988   3.257588   2.137253   1.076182
     7  H    1.077201   2.239373   3.295784   3.256529   2.185480
     8  H    2.239372   1.077201   2.185480   3.256529   3.295784
     9  H    3.312988   2.233489   1.076183   2.137253   3.257589
    10  H    3.182662   3.182661   2.113453   1.003643   2.113455
                    6          7          8          9         10
     6  H    0.000000
     7  H    2.710397   0.000000
     8  H    4.333813   2.713259   0.000000
     9  H    4.214741   4.333813   2.710397   0.000000
    10  H    2.507995   4.189850   4.189849   2.507994   0.000000
 Stoichiometry    C4H5N
 Framework group  C1[X(C4H5N)]
 Deg. of freedom    24
 Full point group                 C1      NOp   1
 Largest Abelian subgroup         C1      NOp   1
 Largest concise Abelian subgroup C1      NOp   1
                         Standard orientation:                         
 ---------------------------------------------------------------------
 Center     Atomic      Atomic             Coordinates (Angstroms)
 Number     Number       Type             X           Y           Z
 ---------------------------------------------------------------------
      1          6           0        0.980221   -0.710291    0.000000
      2          6           0        0.980215    0.710298    0.000001
      3          6           0       -0.330831    1.121504   -0.000002
      4          7           0       -1.118528   -0.000004    0.000001
      5          6           0       -0.330823   -1.121507   -0.000002
      6          1           0       -0.762374   -2.107373   -0.000003
      7          1           0        1.841973   -1.356623    0.000001
      8          1           0        1.841963    1.356636    0.000001
      9          1           0       -0.762389    2.107368   -0.000004
     10          1           0       -2.122171   -0.000007    0.000009
 ---------------------------------------------------------------------
 Rotational constants (GHZ):           9.1960218           9.0642765           4.5648370
 Standard basis: def2TZVP (5D, 7F)
 There are   210 symmetry adapted cartesian basis functions of A   symmetry.
 There are   185 symmetry adapted basis functions of A   symmetry.
   185 basis functions,   295 primitive gaussians,   210 cartesian basis functions
    18 alpha electrons       18 beta electrons
       nuclear repulsion energy       161.2775926308 Hartrees.
 NAtoms=   10 NActive=   10 NUniq=   10 SFac= 1.00D+00 NAtFMM=   60 NAOKFM=F Big=F
 Integral buffers will be    131072 words long.
 Raffenetti 2 integral format.
 Two-electron integral symmetry is turned on.
 One-electron integrals computed using PRISM.
   1 Symmetry operations used in ECPInt.
 ECPInt:  NShTT=    2850 NPrTT=    8640 LenC2=    2844 LenP2D=    7462.
 LDataN:  DoStor=T MaxTD1= 6 Len=  172
 NBasis=   185 RedAO= T EigKep=  5.47D-05  NBF=   185
 NBsUse=   185 1.00D-06 EigRej= -1.00D+00 NBFU=   185
 Initial guess from the checkpoint file:  "checkpoint.chk"
 B after Tr=    -0.000000    0.000000   -0.000000
         Rot=    1.000000   -0.000000    0.000000    0.000000 Ang=   0.00 deg.
 Keep R1 ints in memory in canonical form, NReq=160464511.
 Requested convergence on RMS density matrix=1.00D-08 within 128 cycles.
 Requested convergence on MAX density matrix=1.00D-06.
 Requested convergence on             energy=1.00D-06.
 No special actions if energy rises.
 SCF Done:  E(RB3LYP) =  -210.253440123     A.U. after    1 cycles
            NFock=  1  Conv=0.37D-08     -V/T= 2.0051
 DoSCS=F DFT=T ScalE2(SS,OS)=  1.000000  1.000000
 Range of M.O.s used for correlation:     1   185
 NBasis=   185 NAE=    18 NBE=    18 NFC=     0 NFV=     0
 NROrb=    185 NOA=    18 NOB=    18 NVA=   167 NVB=   167

 **** Warning!!: The largest alpha MO coefficient is  0.35189934D+02

   1 Symmetry operations used in ECPInt.
 ECPInt:  NShTT=    2850 NPrTT=    8640 LenC2=    2844 LenP2D=    7462.
 LDataN:  DoStor=T MaxTD1= 7 Len=  274
 Symmetrizing basis deriv contribution to polar:
 IMax=3 JMax=2 DiffMx= 0.00D+00
 G2DrvN: will do    11 centers at a time, making    1 passes.
 Calling FoFCou, ICntrl=  3107 FMM=F I1Cent=   0 AccDes= 0.00D+00.
 End of G2Drv F.D. properties file   721 does not exist.
 End of G2Drv F.D. properties file   722 does not exist.
 End of G2Drv F.D. properties file   788 does not exist.
          IDoAtm=1111111111
          Differentiating once with respect to electric field.
                with respect to dipole field.
          Differentiating once with respect to nuclear coordinates.
 Keep R1 ints in memory in canonical form, NReq=160432317.
          There are    33 degrees of freedom in the 1st order CPHF.  IDoFFX=6 NUNeed=     3.
     30 vectors produced by pass  0 Test12= 9.11D-15 3.03D-09 XBig12= 6.06D+01 5.53D+00.
 AX will form    30 AO Fock derivatives at one time.
     30 vectors produced by pass  1 Test12= 9.11D-15 3.03D-09 XBig12= 1.07D+01 9.05D-01.
     30 vectors produced by pass  2 Test12= 9.11D-15 3.03D-09 XBig12= 9.80D-02 1.01D-01.
     30 vectors produced by pass  3 Test12= 9.11D-15 3.03D-09 XBig12= 2.37D-04 3.14D-03.
     30 vectors produced by pass  4 Test12= 9.11D-15 3.03D-09 XBig12= 3.94D-07 2.04D-04.
     24 vectors produced by pass  5 Test12= 9.11D-15 3.03D-09 XBig12= 6.13D-10 5.16D-06.
      6 vectors produced by pass  6 Test12= 9.11D-15 3.03D-09 XBig12= 9.89D-13 2.64D-07.
      3 vectors produced by pass  7 Test12= 9.11D-15 3.03D-09 XBig12= 1.11D-15 8.68D-09.
 InvSVY:  IOpt=1 It=  1 EMax= 5.33D-15
 Solved reduced A of dimension   183 with    33 vectors.
 Isotropic polarizability for W=    0.000000       49.83 Bohr**3.
 End of Minotr F.D. properties file   721 does not exist.
 End of Minotr F.D. properties file   722 does not exist.
 End of Minotr F.D. properties file   788 does not exist.
   1 Symmetry operations used in ECPInt.
 ECPInt:  NShTT=    2850 NPrTT=    8640 LenC2=    2844 LenP2D=    7462.
 LDataN:  DoStor=T MaxTD1= 8 Len=  415
 Calling FoFJK, ICntrl=    100127 FMM=F ISym2X=0 I1Cent= 0 IOpClX= 0 NMat=1 NMatS=1 NMatT=0.
 Full mass-weighted force constant matrix:
 Low frequencies ---  -15.7640  -10.7740   -0.0009   -0.0007    0.0003    8.3418
 Low frequencies ---  468.1180  628.7614  641.6243
 Diagonal vibrational polarizability:
        1.2805775       0.8807013      16.9407964
 Harmonic frequencies (cm**-1), IR intensities (KM/Mole), Raman scattering
 activities (A**4/AMU), depolarization ratios for plane and unpolarized
 incident light, reduced masses (AMU), force constants (mDyne/A),
 and normal coordinates:
                      1                      2                      3
                      A                      A                      A
 Frequencies --    468.1171               628.7614               641.6242
 Red. masses --      1.4224                 3.2070                 2.3036
 Frc consts  --      0.1836                 0.7470                 0.5587
 IR Inten    --     72.4532                 0.0000                 0.1409
  Atom  AN      X      Y      Z        X      Y      Z        X      Y      Z
     1   6    -0.00  -0.00   0.01     0.00   0.00  -0.27    -0.00  -0.00   0.10
     2   6     0.00   0.00   0.01    -0.00   0.00   0.27    -0.00   0.00   0.10
     3   6     0.00   0.00   0.04     0.00  -0.00  -0.16     0.00  -0.00  -0.18
     4   7    -0.00  -0.00  -0.17    -0.00  -0.00   0.00     0.00   0.00   0.17
     5   6     0.00  -0.00   0.04    -0.00  -0.00   0.16     0.00   0.00  -0.18
     6   1     0.00  -0.00   0.13     0.00  -0.00   0.41     0.00   0.00  -0.45
     7   1     0.00   0.00  -0.10     0.00   0.00  -0.48     0.00   0.00  -0.07
     8   1     0.00  -0.00  -0.10    -0.00   0.00   0.48     0.00  -0.00  -0.07
     9   1     0.00   0.00   0.13     0.00  -0.00  -0.41     0.00  -0.00  -0.45
    10   1     0.00   0.00   0.96    -0.00   0.00   0.00     0.00   0.00   0.69
                      4                      5                      6
                      A                      A                      A
 Frequencies --    684.4426               727.1593               823.7595
 Red. masses --      1.3001                 1.1982                 1.2349
 Frc consts  --      0.3589                 0.3733                 0.4937
 IR Inten    --      0.0000               156.4348                 1.8175
  Atom  AN      X      Y      Z        X      Y      Z        X      Y      Z
     1   6    -0.00   0.00  -0.03     0.00   0.00  -0.03    -0.00   0.00   0.07
     2   6     0.00   0.00   0.03     0.00  -0.00  -0.03    -0.00   0.00   0.07
     3   6    -0.00   0.00   0.11    -0.00  -0.00  -0.08    -0.00   0.00  -0.07
     4   7    -0.00  -0.00   0.00     0.00  -0.00   0.04     0.00   0.00   0.01
     5   6    -0.00   0.00  -0.11    -0.00   0.00  -0.08    -0.00  -0.00  -0.07
     6   1     0.00  -0.00   0.64     0.00  -0.00   0.46    -0.00  -0.00   0.49
     7   1    -0.00  -0.00   0.28    -0.00  -0.00   0.51     0.00   0.00  -0.49
     8   1     0.00  -0.00  -0.28    -0.00   0.00   0.51     0.00  -0.00  -0.49
     9   1     0.00  -0.00  -0.64    -0.00   0.00   0.46    -0.00   0.00   0.49
    10   1    -0.00  -0.00   0.00     0.00  -0.00   0.18    -0.00   0.00  -0.17
                      7                      8                      9
                      A                      A                      A
 Frequencies --    867.6731               881.8964               903.4833
 Red. masses --      1.2863                 5.2227                 3.9894
 Frc consts  --      0.5706                 2.3932                 1.9187
 IR Inten    --      0.0000                 1.4929                 0.2909
  Atom  AN      X      Y      Z        X      Y      Z        X      Y      Z
     1   6    -0.00  -0.00   0.10     0.26  -0.24   0.00    -0.13  -0.03  -0.00
     2   6    -0.00  -0.00  -0.10    -0.26  -0.24   0.00    -0.13   0.03  -0.00
     3   6     0.00   0.00   0.04    -0.16   0.17  -0.00    -0.04   0.24   0.00
     4   7     0.00  -0.00   0.00     0.00   0.12   0.00     0.32   0.00  -0.00
     5   6    -0.00  -0.00  -0.04     0.16   0.17   0.00    -0.04  -0.24   0.00
     6   1    -0.00  -0.00   0.26    -0.14   0.31   0.00    -0.41  -0.08  -0.00
     7   1     0.00   0.00  -0.65     0.35  -0.14  -0.00     0.15   0.35   0.00
     8   1    -0.00   0.00   0.65    -0.35  -0.14  -0.00     0.15  -0.35   0.00
     9   1     0.00  -0.00  -0.26     0.14   0.31  -0.00    -0.41   0.08  -0.00
    10   1     0.00   0.00   0.00     0.00  -0.33  -0.00     0.32   0.00   0.00
                     10                     11                     12
                      A                      A                      A
 Frequencies --   1035.3717              1068.8232              1092.7364
 Red. masses --      1.4335                 1.3882                 1.5610
 Frc consts  --      0.9054                 0.9344                 1.0982
 IR Inten    --     30.9537                27.2511                 7.6591
  Atom  AN      X      Y      Z        X      Y      Z        X      Y      Z
     1   6    -0.03   0.10  -0.00     0.06   0.00  -0.00    -0.05  -0.07  -0.00
     2   6    -0.03  -0.10  -0.00    -0.06   0.00   0.00    -0.05   0.07  -0.00
     3   6     0.04   0.05  -0.00     0.04  -0.10   0.00     0.05   0.12  -0.00
     4   7    -0.10   0.00   0.00    -0.00   0.07   0.00    -0.04   0.00   0.00
     5   6     0.04  -0.05   0.00    -0.04  -0.10  -0.00     0.05  -0.12  -0.00
     6   1     0.33  -0.18  -0.00    -0.31   0.01  -0.00     0.45  -0.30   0.00
     7   1     0.28   0.51   0.00     0.37   0.41   0.00    -0.25  -0.35  -0.00
     8   1     0.28  -0.51   0.00    -0.37   0.41  -0.00    -0.25   0.35  -0.00
     9   1     0.33   0.18   0.00     0.31   0.01   0.00     0.45   0.30   0.00
    10   1    -0.10   0.00  -0.00    -0.00   0.40   0.00    -0.04   0.00  -0.00
                     13                     14                     15
                      A                      A                      A
 Frequencies --   1158.8862              1175.2907              1316.4041
 Red. masses --      1.2657                 3.7052                 1.3752
 Frc consts  --      1.0015                 3.0154                 1.4041
 IR Inten    --      2.1393                 2.1232                 1.0488
  Atom  AN      X      Y      Z        X      Y      Z        X      Y      Z
     1   6     0.02  -0.03  -0.00    -0.19   0.17  -0.00    -0.05  -0.07  -0.00
     2   6    -0.02  -0.03   0.00    -0.19  -0.17  -0.00     0.05  -0.07   0.00
     3   6    -0.05  -0.04   0.00     0.04  -0.17   0.00     0.08   0.06  -0.00
     4   7     0.00   0.11  -0.00     0.22   0.00  -0.00     0.00  -0.00  -0.00
     5   6     0.05  -0.04  -0.00     0.04   0.17   0.00    -0.08   0.06   0.00
     6   1     0.45  -0.21  -0.00     0.43   0.03  -0.00     0.43  -0.16  -0.00
     7   1    -0.05  -0.12  -0.00    -0.40  -0.07  -0.00     0.29   0.39   0.00
     8   1     0.05  -0.12   0.00    -0.40   0.07  -0.00    -0.29   0.39  -0.00
     9   1    -0.45  -0.21  -0.00     0.43  -0.03  -0.00    -0.43  -0.16   0.00
    10   1    -0.00   0.67   0.00     0.24  -0.00   0.00     0.00  -0.29   0.00
                     16                     17                     18
                      A                      A                      A
 Frequencies --   1418.4911              1449.5618              1501.2715
 Red. masses --      4.2340                 2.9861                 2.6512
 Frc consts  --      5.0194                 3.6968                 3.5206
 IR Inten    --      3.7090                 6.3827                 7.6157
  Atom  AN      X      Y      Z        X      Y      Z        X      Y      Z
     1   6     0.16   0.30   0.00    -0.11  -0.01  -0.00    -0.09   0.07  -0.00
     2   6     0.16  -0.30   0.00     0.11  -0.01   0.00    -0.09  -0.07  -0.00
     3   6    -0.12   0.15  -0.00    -0.13  -0.12  -0.00     0.23   0.06  -0.00
     4   7     0.00  -0.00  -0.00    -0.00   0.28  -0.00    -0.12  -0.00   0.00
     5   6    -0.12  -0.15  -0.00     0.13  -0.12   0.00     0.23  -0.06  -0.00
     6   1    -0.14  -0.16  -0.00    -0.04  -0.05  -0.00    -0.53   0.28   0.00
     7   1    -0.37  -0.41  -0.00    -0.03   0.11  -0.00    -0.22  -0.07  -0.00
     8   1    -0.37   0.41  -0.00     0.03   0.11   0.00    -0.22   0.07  -0.00
     9   1    -0.14   0.16  -0.00     0.04  -0.05   0.00    -0.53  -0.28   0.00
    10   1    -0.01   0.00   0.00     0.00  -0.89   0.00    -0.13   0.00  -0.00
                     19                     20                     21
                      A                      A                      A
 Frequencies --   1576.1477              3238.4590              3249.4615
 Red. masses --      2.9804                 1.0885                 1.0931
 Frc consts  --      4.3623                 6.7260                 6.8007
 IR Inten    --      3.0145                 2.7722                 3.2155
  Atom  AN      X      Y      Z        X      Y      Z        X      Y      Z
     1   6    -0.20  -0.08  -0.00     0.05  -0.03   0.00    -0.04   0.03  -0.00
     2   6     0.20  -0.08   0.00    -0.05  -0.03   0.00    -0.04  -0.03   0.00
     3   6    -0.18   0.07  -0.00    -0.01   0.02  -0.00    -0.01   0.03  -0.00
     4   7     0.00  -0.11   0.00     0.00   0.00   0.00     0.00  -0.00   0.00
     5   6     0.18   0.07   0.00     0.01   0.02   0.00    -0.01  -0.03  -0.00
     6   1    -0.19   0.27   0.00    -0.09  -0.22  -0.00     0.15   0.34   0.00
     7   1     0.09   0.35   0.00    -0.53   0.39  -0.00     0.48  -0.36   0.00
     8   1    -0.09   0.35  -0.00     0.53   0.39  -0.00     0.48   0.36  -0.00
     9   1     0.19   0.27  -0.00     0.09  -0.22   0.00     0.15  -0.34   0.00
    10   1    -0.00   0.58  -0.00    -0.00   0.00  -0.00    -0.01   0.00   0.00
                     22                     23                     24
                      A                      A                      A
 Frequencies --   3265.0754              3270.5488              3668.0932
 Red. masses --      1.0987                 1.1057                 1.0806
 Frc consts  --      6.9010                 6.9684                 8.5661
 IR Inten    --      2.5432                 0.0140                65.5863
  Atom  AN      X      Y      Z        X      Y      Z        X      Y      Z
     1   6     0.02  -0.01   0.00     0.03  -0.02   0.00     0.00   0.00   0.00
     2   6    -0.02  -0.01  -0.00     0.03   0.02   0.00     0.00  -0.00   0.00
     3   6     0.03  -0.05   0.00    -0.02   0.05  -0.00     0.00   0.00  -0.00
     4   7     0.00   0.00  -0.00    -0.00   0.00  -0.00    -0.07  -0.00   0.00
     5   6    -0.03  -0.05  -0.00    -0.02  -0.05  -0.00     0.00  -0.00  -0.00
     6   1     0.27   0.61   0.00     0.24   0.55   0.00     0.00   0.01  -0.00
     7   1    -0.19   0.14  -0.00    -0.30   0.22  -0.00    -0.00   0.00  -0.00
     8   1     0.19   0.14  -0.00    -0.30  -0.22   0.00    -0.00  -0.00  -0.00
     9   1    -0.27   0.61  -0.00     0.24  -0.55   0.00     0.00  -0.01   0.00
    10   1     0.00  -0.01  -0.00    -0.02  -0.00   0.00     1.00   0.00  -0.00

 -------------------
 - Thermochemistry -
 -------------------
 Temperature   298.150 Kelvin.  Pressure   1.00000 Atm.
 Atom     1 has atomic number  6 and mass  12.00000
 Atom     2 has atomic number  6 and mass  12.00000
 Atom     3 has atomic number  6 and mass  12.00000
 Atom     4 has atomic number  7 and mass  14.00307
 Atom     5 has atomic number  6 and mass  12.00000
 Atom     6 has atomic number  1 and mass   1.00783
 Atom     7 has atomic number  1 and mass   1.00783
 Atom     8 has atomic number  1 and mass   1.00783
 Atom     9 has atomic number  1 and mass   1.00783
 Atom    10 has atomic number  1 and mass   1.00783
 Molecular mass:    67.04220 amu.
 Principal axes and moments of inertia in atomic units:
                           1         2         3
     Eigenvalues --   196.25238 199.10483 395.35721
           X            1.00000  -0.00000  -0.00000
           Y            0.00000   1.00000  -0.00000
           Z            0.00000   0.00000   1.00000
 This molecule is an asymmetric top.
 Rotational symmetry number  1.
 Rotational temperatures (Kelvin)      0.44134     0.43502     0.21908
 Rotational constants (GHZ):           9.19602     9.06428     4.56484
 Zero-point vibrational energy     215995.0 (Joules/Mol)
                                   51.62404 (Kcal/Mol)
 Warning -- explicit consideration of   1 degrees of freedom as
           vibrations may cause significant error
 Vibrational temperatures:    673.52   904.65   923.15   984.76  1046.22
          (Kelvin)           1185.21  1248.39  1268.85  1299.91  1489.67
                             1537.80  1572.20  1667.38  1690.98  1894.01
                             2040.89  2085.60  2159.99  2267.73  4659.42
                             4675.25  4697.72  4705.59  5277.57
 
 Zero-point correction=                           0.082268 (Hartree/Particle)
 Thermal correction to Energy=                    0.086254
 Thermal correction to Enthalpy=                  0.087198
 Thermal correction to Gibbs Free Energy=         0.055873
 Sum of electronic and zero-point Energies=           -210.171172
 Sum of electronic and thermal Energies=              -210.167186
 Sum of electronic and thermal Enthalpies=            -210.166242
 Sum of electronic and thermal Free Energies=         -210.197567
 
                     E (Thermal)             CV                S
                      KCal/Mol        Cal/Mol-Kelvin    Cal/Mol-Kelvin
 Total                   54.125             14.865             65.929
 Electronic               0.000              0.000              0.000
 Translational            0.889              2.981             38.526
 Rotational               0.889              2.981             24.250
 Vibrational             52.348              8.903              3.153
 Vibration     1          0.825              1.321              0.743
                       Q            Log10(Q)             Ln(Q)
 Total Bot       0.199567D-25        -25.699910        -59.176230
 Total V=0       0.138285D+13         12.140774         27.955165
 Vib (Bot)       0.207886D-37        -37.682175        -86.766415
 Vib (Bot)    1  0.360895D+00         -0.442619         -1.019168
 Vib (V=0)       0.144048D+01          0.158509          0.364980
 Vib (V=0)    1  0.111664D+01          0.047913          0.110325
 Electronic      0.100000D+01          0.000000          0.000000
 Translational   0.215763D+08          7.333976         16.887104
 Rotational      0.444927D+05          4.648289         10.703080
 ***** Axes restored to original set *****
 -------------------------------------------------------------------
 Center     Atomic                   Forces (Hartrees/Bohr)
 Number     Number              X              Y              Z
 -------------------------------------------------------------------
      1        6           0.000376624   -0.000262328   -0.000027279
      2        6          -0.000300408   -0.000347075    0.000002076
      3        6           0.000209010    0.000199697   -0.000002501
      4        7          -0.000039796    0.000319977    0.000012354
      5        6          -0.000252615    0.000141802    0.000017633
      6        1           0.000239602    0.000005859   -0.000011231
      7        1           0.000029624    0.000117910    0.000002581
      8        1          -0.000057630    0.000106688    0.000006425
      9        1          -0.000233023   -0.000053713    0.000009480
     10        1           0.000028612   -0.000228818   -0.000009538
 -------------------------------------------------------------------
 Cartesian Forces:  Max     0.000376624 RMS     0.000172403
 FormGI is forming the generalized inverse of G from B-inverse, IUseBI=4.

 GradGradGradGradGradGradGradGradGradGradGradGradGradGradGradGradGradGrad
 Berny optimization.
 Internal  Forces:  Max     0.000302197 RMS     0.000094991
 Search for a local minimum.
 Step number   1 out of a maximum of    2
 All quantities printed in internal units (Hartrees-Bohrs-Radians)
 Second derivative matrix not updated -- analytic derivatives used.
 ITU=  0
     Eigenvalues ---    0.00442   0.01004   0.01194   0.01214   0.02323
     Eigenvalues ---    0.05330   0.05503   0.09364   0.09975   0.10346
     Eigenvalues ---    0.11209   0.11219   0.21967   0.22968   0.33339
     Eigenvalues ---    0.36415   0.37226   0.37325   0.37453   0.38834
     Eigenvalues ---    0.40897   0.44331   0.47954   0.53138
 Angle between quadratic step and forces=  30.02 degrees.
 Linear search not attempted -- first point.
 Iteration  1 RMS(Cart)=  0.00033427 RMS(Int)=  0.00000009
 Iteration  2 RMS(Cart)=  0.00000010 RMS(Int)=  0.00000001
 Variable       Old X    -DE/DX   Delta X   Delta X   Delta X     New X
                                 (Linear)    (Quad)   (Total)
    R1        2.68452   0.00030   0.00000   0.00098   0.00098   2.68550
    R2        2.59652  -0.00021   0.00000  -0.00055  -0.00055   2.59598
    R3        2.03561   0.00012   0.00000   0.00031   0.00031   2.03592
    R4        2.59652  -0.00021   0.00000  -0.00055  -0.00055   2.59598
    R5        2.03562   0.00012   0.00000   0.00031   0.00031   2.03592
    R6        2.58985   0.00005   0.00000   0.00011   0.00011   2.58996
    R7        2.03369   0.00023   0.00000   0.00061   0.00061   2.03430
    R8        2.58985   0.00005   0.00000   0.00011   0.00011   2.58996
    R9        1.89661   0.00023   0.00000   0.00048   0.00048   1.89709
   R10        2.03369   0.00023   0.00000   0.00061   0.00061   2.03430
    A1        1.87473   0.00000   0.00000  -0.00008  -0.00008   1.87465
    A2        2.21431  -0.00003   0.00000  -0.00042  -0.00042   2.21389
    A3        2.19414   0.00003   0.00000   0.00050   0.00050   2.19464
    A4        1.87473   0.00000   0.00000  -0.00008  -0.00008   1.87465
    A5        2.21431  -0.00003   0.00000  -0.00042  -0.00042   2.21389
    A6        2.19414   0.00003   0.00000   0.00050   0.00050   2.19464
    A7        1.87917  -0.00003   0.00000   0.00004   0.00004   1.87921
    A8        2.28734  -0.00006   0.00000  -0.00061  -0.00061   2.28673
    A9        2.11667   0.00009   0.00000   0.00057   0.00057   2.11724
   A10        1.91698   0.00007   0.00000   0.00007   0.00007   1.91704
   A11        2.18310  -0.00003   0.00000  -0.00003  -0.00003   2.18307
   A12        2.18311  -0.00003   0.00000  -0.00003  -0.00003   2.18307
   A13        1.87917  -0.00003   0.00000   0.00004   0.00004   1.87921
   A14        2.28734  -0.00006   0.00000  -0.00062  -0.00062   2.28673
   A15        2.11667   0.00009   0.00000   0.00057   0.00057   2.11724
    D1       -0.00000   0.00000   0.00000   0.00000   0.00000   0.00000
    D2       -3.14159  -0.00000   0.00000  -0.00000  -0.00000  -3.14159
    D3        3.14159   0.00000   0.00000   0.00000   0.00000   3.14159
    D4        0.00000  -0.00000   0.00000  -0.00000  -0.00000  -0.00000
    D5       -0.00000   0.00000   0.00000   0.00000   0.00000   0.00000
    D6        3.14159  -0.00000   0.00000   0.00000   0.00000   3.14159
    D7        3.14159   0.00000   0.00000   0.00000   0.00000   3.14159
    D8        0.00000  -0.00000   0.00000  -0.00000  -0.00000   0.00000
    D9        0.00000  -0.00000   0.00000  -0.00000  -0.00000   0.00000
   D10       -3.14159  -0.00000   0.00000  -0.00000  -0.00000   3.14159
   D11       -3.14159  -0.00000   0.00000  -0.00000  -0.00000   3.14159
   D12       -0.00000   0.00000   0.00000   0.00000   0.00000   0.00000
   D13       -0.00001   0.00000   0.00000   0.00001   0.00001   0.00000
   D14        3.14158   0.00000   0.00000   0.00001   0.00001   3.14159
   D15        3.14159   0.00000   0.00000   0.00000   0.00000   3.14159
   D16       -0.00001   0.00000   0.00000   0.00001   0.00001  -0.00000
   D17        0.00001  -0.00000   0.00000  -0.00001  -0.00001   0.00000
   D18       -3.14159  -0.00000   0.00000  -0.00000  -0.00000  -3.14159
   D19       -3.14158  -0.00000   0.00000  -0.00001  -0.00001  -3.14159
   D20        0.00001  -0.00000   0.00000  -0.00001  -0.00001   0.00000
         Item               Value     Threshold  Converged?
 Maximum Force            0.000302     0.000450     YES
 RMS     Force            0.000095     0.000300     YES
 Maximum Displacement     0.001210     0.001800     YES
 RMS     Displacement     0.000334     0.001200     YES
 Predicted change in Energy=-6.184865D-07
 Optimization completed.
    -- Stationary point found.
                           ----------------------------
                           !   Optimized Parameters   !
                           ! (Angstroms and Degrees)  !
 --------------------------                            --------------------------
 ! Name  Definition              Value          Derivative Info.                !
 --------------------------------------------------------------------------------
 ! R1    R(1,2)                  1.4206         -DE/DX =    0.0003              !
 ! R2    R(1,5)                  1.374          -DE/DX =   -0.0002              !
 ! R3    R(1,7)                  1.0772         -DE/DX =    0.0001              !
 ! R4    R(2,3)                  1.374          -DE/DX =   -0.0002              !
 ! R5    R(2,8)                  1.0772         -DE/DX =    0.0001              !
 ! R6    R(3,4)                  1.3705         -DE/DX =    0.0                 !
 ! R7    R(3,9)                  1.0762         -DE/DX =    0.0002              !
 ! R8    R(4,5)                  1.3705         -DE/DX =    0.0                 !
 ! R9    R(4,10)                 1.0036         -DE/DX =    0.0002              !
 ! R10   R(5,6)                  1.0762         -DE/DX =    0.0002              !
 ! A1    A(2,1,5)              107.4141         -DE/DX =    0.0                 !
 ! A2    A(2,1,7)              126.8709         -DE/DX =    0.0                 !
 ! A3    A(5,1,7)              125.715          -DE/DX =    0.0                 !
 ! A4    A(1,2,3)              107.4141         -DE/DX =    0.0                 !
 ! A5    A(1,2,8)              126.8708         -DE/DX =    0.0                 !
 ! A6    A(3,2,8)              125.7151         -DE/DX =    0.0                 !
 ! A7    A(2,3,4)              107.6686         -DE/DX =    0.0                 !
 ! A8    A(2,3,9)              131.0551         -DE/DX =   -0.0001              !
 ! A9    A(4,3,9)              121.2763         -DE/DX =    0.0001              !
 ! A10   A(3,4,5)              109.8347         -DE/DX =    0.0001              !
 ! A11   A(3,4,10)             125.0826         -DE/DX =    0.0                 !
 ! A12   A(5,4,10)             125.0827         -DE/DX =    0.0                 !
 ! A13   A(1,5,4)              107.6685         -DE/DX =    0.0                 !
 ! A14   A(1,5,6)              131.0552         -DE/DX =   -0.0001              !
 ! A15   A(4,5,6)              121.2763         -DE/DX =    0.0001              !
 ! D1    D(5,1,2,3)             -0.0001         -DE/DX =    0.0                 !
 ! D2    D(5,1,2,8)           -179.9999         -DE/DX =    0.0                 !
 ! D3    D(7,1,2,3)            179.9999         -DE/DX =    0.0                 !
 ! D4    D(7,1,2,8)              0.0001         -DE/DX =    0.0                 !
 ! D5    D(2,1,5,4)             -0.0002         -DE/DX =    0.0                 !
 ! D6    D(2,1,5,6)            180.0            -DE/DX =    0.0                 !
 ! D7    D(7,1,5,4)            179.9999         -DE/DX =    0.0                 !
 ! D8    D(7,1,5,6)              0.0            -DE/DX =    0.0                 !
 ! D9    D(1,2,3,4)              0.0002         -DE/DX =    0.0                 !
 ! D10   D(1,2,3,9)            180.0001         -DE/DX =    0.0                 !
 ! D11   D(8,2,3,4)            180.0001         -DE/DX =    0.0                 !
 ! D12   D(8,2,3,9)             -0.0001         -DE/DX =    0.0                 !
 ! D13   D(2,3,4,5)             -0.0003         -DE/DX =    0.0                 !
 ! D14   D(2,3,4,10)           179.9994         -DE/DX =    0.0                 !
 ! D15   D(9,3,4,5)            179.9998         -DE/DX =    0.0                 !
 ! D16   D(9,3,4,10)            -0.0005         -DE/DX =    0.0                 !
 ! D17   D(3,4,5,1)              0.0003         -DE/DX =    0.0                 !
 ! D18   D(3,4,5,6)           -179.9998         -DE/DX =    0.0                 !
 ! D19   D(10,4,5,1)          -179.9994         -DE/DX =    0.0                 !
 ! D20   D(10,4,5,6)             0.0005         -DE/DX =    0.0                 !
 --------------------------------------------------------------------------------
 GradGradGradGradGradGradGradGradGradGradGradGradGradGradGradGradGradGrad


 ----------------------------------------------------------------------

 Electric dipole moment (input orientation):
 (Debye = 10**-18 statcoulomb cm , SI units = C m)
                  (au)            (Debye)         (10**-30 SI)
   Tot        0.750778D+00      0.190829D+01      0.636536D+01
   x          0.927819D-01      0.235828D+00      0.786638D+00
   y         -0.744411D+00     -0.189210D+01     -0.631138D+01
   z         -0.301890D-01     -0.767327D-01     -0.255953D+00

 Dipole polarizability, Alpha (input orientation).
 (esu units = cm**3 , SI units = C**2 m**2 J**-1)
 Alpha(0;0):
               (au)            (10**-24 esu)      (10**-40 SI)
   iso        0.498343D+02      0.738469D+01      0.821657D+01
   aniso      0.255671D+02      0.378866D+01      0.421545D+01
   xx         0.591903D+02      0.877110D+01      0.975917D+01
   yx         0.274366D+00      0.406568D-01      0.452368D-01
   yy         0.573990D+02      0.850565D+01      0.946381D+01
   zx        -0.125886D+01     -0.186544D+00     -0.207559D+00
   zy         0.836178D+00      0.123909D+00      0.137867D+00
   zz         0.329137D+02      0.487730D+01      0.542673D+01

 ----------------------------------------------------------------------

 Dipole orientation:
     6          1.31234273          0.02506582         -1.81614224
     6         -1.36346693         -0.19107135         -1.81613994
     6         -2.13801731         -0.25365164          0.66137563
     7         -0.02555840         -0.08301822          2.14991296
     6          2.08689981          0.08761638          0.66137329
     1          3.94386600          0.23760714          1.47689315
     1          2.52977242          0.12341185         -3.44461424
     1         -2.58089853         -0.28940322         -3.44461187
     1         -3.99498366         -0.40365597          1.47689690
     1         -0.02555982         -0.08301119          4.04652380

 Electric dipole moment (dipole orientation):
 (Debye = 10**-18 statcoulomb cm , SI units = C m)
                  (au)            (Debye)         (10**-30 SI)
   Tot        0.750778D+00      0.190829D+01      0.636536D+01
   x          0.000000D+00      0.000000D+00      0.000000D+00
   y          0.000000D+00      0.000000D+00      0.000000D+00
   z          0.750778D+00      0.190829D+01      0.636536D+01

 Dipole polarizability, Alpha (dipole orientation).
 (esu units = cm**3 , SI units = C**2 m**2 J**-1)
 Alpha(0;0):
               (au)            (10**-24 esu)      (10**-40 SI)
   iso        0.498343D+02      0.738469D+01      0.821657D+01
   aniso      0.255671D+02      0.378866D+01      0.421545D+01
   xx         0.591086D+02      0.875899D+01      0.974569D+01
   yx         0.212312D+01      0.314614D+00      0.350055D+00
   yy         0.329957D+02      0.488946D+01      0.544026D+01
   zx         0.000000D+00      0.000000D+00      0.000000D+00
   zy        -0.108826D-03     -0.161264D-04     -0.179430D-04
   zz         0.573987D+02      0.850561D+01      0.946377D+01

 ----------------------------------------------------------------------
 1\1\GINC-BHC0008\Freq\RB3LYP\def2TZVP\C4H5N1\DHANAWAY\10-Jun-2022\0\\#
 N Geom=AllCheck Guess=TCheck SCRF=Check GenChk RB3LYP/def2TZVP Freq\\i
 nt_initalOpt\\0,1\C,0.566336,1.041248,-0.034026\C,-0.841712,0.863253,0
 .027557\C,-1.087272,-0.488196,-0.007343\N,0.121678,-1.128696,-0.087634
 \C,1.135938,-0.207155,-0.104577\H,2.166431,-0.511525,-0.16467\H,1.1004
 69,1.976673,-0.027389\H,-1.588837,1.636712,0.09023\H,-2.011102,-1.0396
 16,0.018037\H,0.245709,-2.123828,-0.127987\\Version=ES64L-G16RevA.03\H
 F=-210.2534401\RMSD=3.660e-09\RMSF=1.724e-04\ZeroPoint=0.0822681\Therm
 al=0.086254\Dipole=0.0927819,-0.7444107,-0.030189\DipoleDeriv=0.017909
 ,0.0318865,-0.011345,0.031163,-0.0938061,0.0035831,-0.0113707,0.003549
 ,-0.240167,0.0259515,-0.0005946,-0.0128545,0.0001285,-0.1019636,0.0047
 936,-0.012828,0.0048277,-0.2400527,-0.0715776,-0.2328559,-0.0121728,-0
 .1318183,0.2554203,0.0206086,-0.008682,0.0254685,-0.156045,-0.0178137,
 0.085873,-0.0073816,0.0858725,-0.692875,-0.0200287,-0.0073817,-0.02003
 02,-0.233304,-0.1386769,0.1331127,0.0037016,0.0320753,0.3234732,0.0150
 757,0.000211,0.0102151,-0.1570004,-0.0226685,0.0327797,0.0113569,0.046
 8257,0.0546441,-0.0069259,0.0118419,-0.0062504,0.1890744,0.0367374,-0.
 0756601,0.0039806,-0.0689308,-0.0150438,-0.0032126,0.0042134,-0.002889
 3,0.1735392,-0.0006469,0.0786774,0.0111129,0.0719483,0.0228724,-0.0086
 791,0.0108797,-0.0090024,0.1730072,0.0010994,-0.0470215,0.0074548,-0.0
 610673,0.0305375,-0.0025691,0.0069697,-0.003245,0.1894124,0.1696864,-0
 .0061971,0.006147,-0.0061969,0.216741,-0.0026455,0.0061468,-0.0026431,
 0.3015358\Polar=59.1903305,0.2743659,57.3989857,-1.2588635,0.8361784,3
 2.9136668\PG=C01 [X(C4H5N1)]\NImag=0\\0.59289823,0.09494947,0.81646958
 ,-0.01970480,0.01967549,0.11669314,-0.27307215,-0.03639993,0.00905910,
 0.65111030,-0.00489867,-0.11306143,-0.00164648,-0.13489662,0.75743023,
 0.01014768,-0.00013113,-0.05909660,-0.03044863,0.02869166,0.11752150,-
 0.02435012,-0.02061060,0.00100246,-0.10993429,-0.05400354,0.00042679,0
 .75375110,-0.07768955,-0.01310273,0.00289383,-0.03682467,-0.36574497,-
 0.00871842,0.14226332,0.70383995,-0.00097032,0.00014816,0.01134978,0.0
 0102046,-0.00789195,-0.06258126,-0.02602915,0.01366697,0.11214885,-0.0
 0389171,-0.03458225,-0.00034165,-0.01516459,0.05331546,0.00323848,-0.2
 6537036,0.07861800,0.01294391,0.62247640,0.00880561,-0.08954370,-0.003
 99713,0.00992765,-0.07811042,-0.00365595,0.07641560,-0.14876524,-0.006
 99328,-0.04045563,0.94970774,0.00115794,-0.00191009,0.01372927,0.00173
 889,-0.00574330,0.01356887,0.01286758,-0.00709901,-0.05363998,-0.02764
 239,0.03210803,0.07934424,-0.14689846,0.10912446,0.00784334,-0.0470176
 2,0.01181082,0.00321351,-0.09213645,0.00373215,0.00535872,-0.22129846,
 -0.09539284,0.00480999,0.81785423,0.09194559,-0.32825315,-0.01361695,0
 .06888973,0.00988741,-0.00336280,-0.02429772,-0.01248246,0.00016439,-0
 .09759524,-0.19346327,-0.00016705,-0.11083836,0.63882341,0.00724961,-0
 .01444319,-0.06310747,0.00518634,-0.00061688,0.01102715,0.00438986,-0.
 00118401,0.01632496,0.00473369,-0.00027327,-0.05301278,-0.03786259,0.0
 2359475,0.11306115,-0.00209077,-0.00142767,0.00007500,0.00044260,0.001
 44833,0.00024348,-0.00011797,-0.00393351,-0.00003816,-0.01716225,0.008
 77712,0.00095070,-0.32845640,0.08017667,0.01760878,0.34800291,0.022876
 39,0.00552699,-0.00092653,0.00248322,-0.00517800,-0.00045270,-0.002194
 17,-0.00520534,-0.00014052,-0.02735725,0.01111813,0.00182832,0.0896213
 2,-0.08674566,-0.00661746,-0.08579299,0.07795295,0.00091511,0.00024257
 ,0.00045885,0.00027920,-0.00040295,0.00443602,0.00002191,-0.00005680,0
 .00191162,-0.00029812,0.00009004,-0.00368729,0.01793516,-0.00616303,-0
 .02109759,-0.01883900,0.00619827,0.01914998,-0.12973315,-0.12791445,0.
 00060737,-0.00367246,-0.02506958,-0.00074359,-0.00648477,-0.00014789,0
 .00047384,-0.00103247,0.00445050,0.00042097,0.01183672,0.01171299,-0.0
 0023328,-0.00003788,-0.00090333,-0.00017563,0.12715008,-0.12550671,-0.
 28080594,-0.00279705,0.00210923,0.00413895,0.00008023,0.00108283,0.000
 26006,-0.00016310,0.00224870,-0.00430298,-0.00041315,-0.01668122,-0.01
 222804,0.00042919,0.00046977,0.00033180,0.00009394,0.13794020,0.292657
 75,0.00069059,-0.00268123,-0.02532878,0.00019576,0.00138765,-0.0010791
 1,0.00051637,-0.00010387,0.00344337,0.00034493,-0.00051907,0.00448646,
 -0.00121467,-0.00093675,-0.00140177,-0.00012817,0.00015998,-0.00302804
 ,-0.00032622,0.00274481,0.02137065,-0.00865977,0.02180094,0.00111629,-
 0.19900442,0.14800522,0.01347609,0.00919460,-0.00624905,-0.00072696,0.
 00036835,-0.00328237,0.00008631,-0.00584770,-0.00143259,0.00039881,-0.
 00007125,0.00135169,0.00011372,0.00080087,-0.00064370,-0.00016449,0.20
 263033,-0.00537789,0.00919718,0.00061521,0.14559752,-0.21054840,-0.013
 41004,0.02214516,-0.00954828,-0.00134590,-0.00108058,-0.00572375,-0.00
 030210,-0.00266332,-0.00038608,-0.00000521,-0.00008799,0.00062058,-0.0
 0001999,0.00087019,-0.00005132,0.00003089,-0.16008708,0.21610289,0.000
 17702,-0.00069226,-0.00115007,0.01339278,-0.01352580,-0.02631471,0.000
 25446,0.00001991,-0.00143939,0.00016232,-0.00019620,0.00450641,0.00035
 628,-0.00006437,0.00345243,0.00006396,-0.00008925,0.00131525,-0.000112
 17,0.00010371,-0.00214706,-0.01425777,0.01443525,0.02244495,0.00104245
 ,0.00011476,0.00016853,0.00347063,0.00091758,-0.00011144,-0.27325615,-
 0.12832570,0.00774592,-0.01986577,-0.01668258,0.00020086,-0.00187976,0
 .00476210,0.00034709,-0.00052896,-0.00092868,0.00010225,0.00027212,-0.
 00000405,0.00005033,-0.00012129,-0.00057400,-0.00016022,0.29065227,-0.
 00092012,-0.00578639,-0.00031002,-0.02338651,-0.00011365,0.00110399,-0
 .13777028,-0.14272981,0.00238598,0.01945175,0.01386014,-0.00032863,0.0
 0302275,-0.00341847,-0.00032972,0.00057220,0.00083880,-0.00007679,-0.0
 0144373,0.00027233,0.00003319,0.00079910,0.00041639,0.00008102,0.14064
 469,0.13611817,0.00013281,-0.00035980,0.00444455,-0.00095153,-0.000065
 22,0.00053803,0.00741949,0.00193175,-0.02031223,0.00144972,0.00140954,
 -0.00372576,0.00028702,-0.00041335,0.00188654,0.00015414,-0.00000458,0
 .00225634,0.00000058,-0.00003607,0.00132014,-0.00011277,0.00014707,-0.
 00302923,-0.00825283,-0.00268391,0.01833400,-0.00524456,-0.00505474,0.
 00017437,-0.00715800,0.00337101,0.00055762,0.00870441,0.02855689,0.000
 22172,-0.07905914,0.04743695,0.00540915,0.01384389,-0.02332317,-0.0018
 1831,0.00001997,0.00084379,-0.00005459,0.00090094,-0.00101506,0.000035
 56,0.00071026,0.00125800,0.00012334,0.00021446,-0.00096985,-0.00012662
 ,0.06706778,-0.00418411,-0.00064042,0.00010964,0.00250038,0.00130027,-
 0.00014484,-0.00303060,-0.00652119,0.00016926,0.04743704,-0.45477666,-
 0.01797303,0.00826424,-0.01173369,-0.00055419,-0.00020194,0.00073975,0
 .00009474,0.00050510,-0.00027261,-0.00011562,-0.00026216,-0.00007921,-
 0.00007202,0.00007587,0.00054250,0.00007456,-0.05110382,0.47144127,0.0
 0020436,0.00015149,0.00200733,0.00052763,-0.00018673,0.00198010,-0.000
 86978,-0.00135037,-0.00720571,0.00540911,-0.01797271,-0.00156944,-0.00
 072677,0.00096515,-0.00713262,-0.00009074,0.00004446,-0.00171514,0.000
 08812,-0.00004251,0.00236415,0.00007077,-0.00014518,0.00236143,-0.0000
 9048,0.00012489,-0.00171238,-0.00452223,0.01841151,0.01062226\\-0.0003
 7662,0.00026233,0.00002728,0.00030041,0.00034708,-0.00000208,-0.000209
 01,-0.00019970,0.00000250,0.00003980,-0.00031998,-0.00001235,0.0002526
 2,-0.00014180,-0.00001763,-0.00023960,-0.00000586,0.00001123,-0.000029
 62,-0.00011791,-0.00000258,0.00005763,-0.00010669,-0.00000642,0.000233
 02,0.00005371,-0.00000948,-0.00002861,0.00022882,0.00000954\\\@


 AN OPTIMIST IS A GUY
 THAT HAS NEVER HAD
 MUCH EXPERIENCE
   (CERTAIN MAXIMS OF ARCHY  -- DON MARQUIS)
 Job cpu time:       0 days  0 hours 18 minutes  2.9 seconds.
 Elapsed time:       0 days  0 hours  1 minutes 31.0 seconds.
 File lengths (MBytes):  RWF=     35 Int=      0 D2E=      0 Chk=     32 Scr=      1
 Normal termination of Gaussian 16 at Fri Jun 10 10:44:10 2022.
