 Entering Gaussian System, Link 0=g16
 Input=int.gjf
 Output=int.out
 Initial command:
 /software/gaussian/g16-a03/l1.exe "/local_scratch/11171617/Gau-10622.inp" -scrdir="/local_scratch/11171617/"
 Entering Link 1 = /software/gaussian/g16-a03/l1.exe PID=     10623.
  
 Copyright (c) 1988,1990,1992,1993,1995,1998,2003,2009,2016,
            Gaussian, Inc.  All Rights Reserved.
  
 This is part of the Gaussian(R) 16 program.  It is based on
 the Gaussian(R) 09 system (copyright 2009, Gaussian, Inc.),
 the Gaussian(R) 03 system (copyright 2003, Gaussian, Inc.),
 the Gaussian(R) 98 system (copyright 1998, Gaussian, Inc.),
 the Gaussian(R) 94 system (copyright 1995, Gaussian, Inc.),
 the Gaussian 92(TM) system (copyright 1992, Gaussian, Inc.),
 the Gaussian 90(TM) system (copyright 1990, Gaussian, Inc.),
 the Gaussian 88(TM) system (copyright 1988, Gaussian, Inc.),
 the Gaussian 86(TM) system (copyright 1986, Carnegie Mellon
 University), and the Gaussian 82(TM) system (copyright 1983,
 Carnegie Mellon University). Gaussian is a federally registered
 trademark of Gaussian, Inc.
  
 This software contains proprietary and confidential information,
 including trade secrets, belonging to Gaussian, Inc.
  
 This software is provided under written license and may be
 used, copied, transmitted, or stored only in accord with that
 written license.
  
 The following legend is applicable only to US Government
 contracts under FAR:
  
                    RESTRICTED RIGHTS LEGEND
  
 Use, reproduction and disclosure by the US Government is
 subject to restrictions as set forth in subparagraphs (a)
 and (c) of the Commercial Computer Software - Restricted
 Rights clause in FAR 52.227-19.
  
 Gaussian, Inc.
 340 Quinnipiac St., Bldg. 40, Wallingford CT 06492
  
  
 ---------------------------------------------------------------
 Warning -- This program may not be used in any manner that
 competes with the business of Gaussian, Inc. or will provide
 assistance to any competitor of Gaussian, Inc.  The licensee
 of this program is prohibited from giving any competitor of
 Gaussian, Inc. access to this program.  By using this program,
 the user acknowledges that Gaussian, Inc. is engaged in the
 business of creating and licensing software in the field of
 computational chemistry and represents and warrants to the
 licensee that it is not a competitor of Gaussian, Inc. and that
 it will not use this program in any manner prohibited above.
 ---------------------------------------------------------------
  

 Cite this work as:
 Gaussian 16, Revision A.03,
 M. J. Frisch, G. W. Trucks, H. B. Schlegel, G. E. Scuseria, 
 M. A. Robb, J. R. Cheeseman, G. Scalmani, V. Barone, 
 G. A. Petersson, H. Nakatsuji, X. Li, M. Caricato, A. V. Marenich, 
 J. Bloino, B. G. Janesko, R. Gomperts, B. Mennucci, H. P. Hratchian, 
 J. V. Ortiz, A. F. Izmaylov, J. L. Sonnenberg, D. Williams-Young, 
 F. Ding, F. Lipparini, F. Egidi, J. Goings, B. Peng, A. Petrone, 
 T. Henderson, D. Ranasinghe, V. G. Zakrzewski, J. Gao, N. Rega, 
 G. Zheng, W. Liang, M. Hada, M. Ehara, K. Toyota, R. Fukuda, 
 J. Hasegawa, M. Ishida, T. Nakajima, Y. Honda, O. Kitao, H. Nakai, 
 T. Vreven, K. Throssell, J. A. Montgomery, Jr., J. E. Peralta, 
 F. Ogliaro, M. J. Bearpark, J. J. Heyd, E. N. Brothers, K. N. Kudin, 
 V. N. Staroverov, T. A. Keith, R. Kobayashi, J. Normand, 
 K. Raghavachari, A. P. Rendell, J. C. Burant, S. S. Iyengar, 
 J. Tomasi, M. Cossi, J. M. Millam, M. Klene, C. Adamo, R. Cammi, 
 J. W. Ochterski, R. L. Martin, K. Morokuma, O. Farkas, 
 J. B. Foresman, and D. J. Fox, Gaussian, Inc., Wallingford CT, 2016.
 
 ******************************************
 Gaussian 16:  ES64L-G16RevA.03 25-Dec-2016
                10-Jun-2022 
 ******************************************
 %nprocshared=12
 Will use up to   12 processors via shared memory.
 %chk=checkpoint.chk
 %mem=12GB
 ------------------------------------------
 # Opt B3LYP/Def2TZVP freq=noraman pop=none
 ------------------------------------------
 1/18=20,19=15,26=3,38=1/1,3;
 2/9=110,12=2,17=6,18=5,40=1/2;
 3/5=44,7=101,11=2,25=1,30=1,71=1,74=-5/1,2,3;
 4//1;
 5/5=2,38=5/2;
 7//1,2,3,16;
 1/18=20,19=15,26=3/3(2);
 2/9=110/2;
 99//99;
 2/9=110/2;
 3/5=44,7=101,11=2,25=1,30=1,71=1,74=-5/1,2,3;
 4/5=5,16=3,69=1/1;
 5/5=2,38=5/2;
 7//1,2,3,16;
 1/18=20,19=15,26=3/3(-5);
 2/9=110/2;
 99/9=1/99;
 -------------
 int_initalOpt
 -------------
 Symbolic Z-matrix:
 Charge =  0 Multiplicity = 1
 6                    -4.02798  -0.11181   0.93228 
 6                    -3.11958  -0.83839   0.29226 
 1                    -5.08464  -0.21876   0.72413 
 1                    -3.74614   0.61693   1.68288 
 6                    -1.65237  -0.72601   0.51478 
 1                    -3.43898  -1.54904  -0.46446 
 16                   -0.85012   0.21008  -0.88696 
 1                    -1.15995  -1.70002   0.54405 
 1                    -1.40684  -0.16037   1.41433 
 8                    -1.23233   1.63618  -0.70946 
 6                     0.8513    0.02843  -0.29278 
 6                     1.45808   1.10766   0.3346 
 1                     0.89308   2.0208    0.47225 
 6                     2.77877   0.99306   0.75602 
 1                     3.25996   1.82972   1.2468 
 6                     3.48162  -0.18791   0.54347 
 1                     4.51069  -0.27164   0.86903 
 6                     2.86842  -1.25893  -0.10078 
 1                     3.41916  -2.17395  -0.27847 
 6                     1.55101  -1.15098  -0.52858 
 1                     1.07872  -1.97513  -1.0511 
 

 GradGradGradGradGradGradGradGradGradGradGradGradGradGradGradGradGradGrad
 Berny optimization.
 Initialization pass.
                           ----------------------------
                           !    Initial Parameters    !
                           ! (Angstroms and Degrees)  !
 --------------------------                            --------------------------
 ! Name  Definition              Value          Derivative Info.                !
 --------------------------------------------------------------------------------
 ! R1    R(1,2)                  1.3277         estimate D2E/DX2                !
 ! R2    R(1,3)                  1.0823         estimate D2E/DX2                !
 ! R3    R(1,4)                  1.0835         estimate D2E/DX2                !
 ! R4    R(2,5)                  1.4882         estimate D2E/DX2                !
 ! R5    R(2,6)                  1.0861         estimate D2E/DX2                !
 ! R6    R(5,7)                  1.8667         estimate D2E/DX2                !
 ! R7    R(5,8)                  1.0918         estimate D2E/DX2                !
 ! R8    R(5,9)                  1.0906         estimate D2E/DX2                !
 ! R9    R(7,10)                 1.4871         estimate D2E/DX2                !
 ! R10   R(7,11)                 1.8113         estimate D2E/DX2                !
 ! R11   R(11,12)                1.388          estimate D2E/DX2                !
 ! R12   R(11,20)                1.3915         estimate D2E/DX2                !
 ! R13   R(12,13)                1.0826         estimate D2E/DX2                !
 ! R14   R(12,14)                1.391          estimate D2E/DX2                !
 ! R15   R(14,15)                1.0828         estimate D2E/DX2                !
 ! R16   R(14,16)                1.3906         estimate D2E/DX2                !
 ! R17   R(16,17)                1.0826         estimate D2E/DX2                !
 ! R18   R(16,18)                1.3922         estimate D2E/DX2                !
 ! R19   R(18,19)                1.0827         estimate D2E/DX2                !
 ! R20   R(18,20)                1.3893         estimate D2E/DX2                !
 ! R21   R(20,21)                1.0841         estimate D2E/DX2                !
 ! A1    A(2,1,3)              121.4139         estimate D2E/DX2                !
 ! A2    A(2,1,4)              121.6051         estimate D2E/DX2                !
 ! A3    A(3,1,4)              116.9805         estimate D2E/DX2                !
 ! A4    A(1,2,5)              124.134          estimate D2E/DX2                !
 ! A5    A(1,2,6)              119.5198         estimate D2E/DX2                !
 ! A6    A(5,2,6)              116.3273         estimate D2E/DX2                !
 ! A7    A(2,5,7)              110.4431         estimate D2E/DX2                !
 ! A8    A(2,5,8)              112.4138         estimate D2E/DX2                !
 ! A9    A(2,5,9)              112.6095         estimate D2E/DX2                !
 ! A10   A(7,5,8)              105.882          estimate D2E/DX2                !
 ! A11   A(7,5,9)              105.2198         estimate D2E/DX2                !
 ! A12   A(8,5,9)              109.8178         estimate D2E/DX2                !
 ! A13   A(5,7,10)             106.3087         estimate D2E/DX2                !
 ! A14   A(5,7,11)              96.1467         estimate D2E/DX2                !
 ! A15   A(10,7,11)            107.3647         estimate D2E/DX2                !
 ! A16   A(7,11,12)            118.7465         estimate D2E/DX2                !
 ! A17   A(7,11,20)            120.1163         estimate D2E/DX2                !
 ! A18   A(12,11,20)           121.0521         estimate D2E/DX2                !
 ! A19   A(11,12,13)           119.0232         estimate D2E/DX2                !
 ! A20   A(11,12,14)           119.2053         estimate D2E/DX2                !
 ! A21   A(13,12,14)           121.7675         estimate D2E/DX2                !
 ! A22   A(12,14,15)           119.7091         estimate D2E/DX2                !
 ! A23   A(12,14,16)           120.2327         estimate D2E/DX2                !
 ! A24   A(15,14,16)           120.0576         estimate D2E/DX2                !
 ! A25   A(14,16,17)           120.0095         estimate D2E/DX2                !
 ! A26   A(14,16,18)           120.0956         estimate D2E/DX2                !
 ! A27   A(17,16,18)           119.8912         estimate D2E/DX2                !
 ! A28   A(16,18,19)           120.1377         estimate D2E/DX2                !
 ! A29   A(16,18,20)           120.0252         estimate D2E/DX2                !
 ! A30   A(19,18,20)           119.8344         estimate D2E/DX2                !
 ! A31   A(11,20,18)           119.3733         estimate D2E/DX2                !
 ! A32   A(11,20,21)           120.4613         estimate D2E/DX2                !
 ! A33   A(18,20,21)           120.1616         estimate D2E/DX2                !
 ! D1    D(3,1,2,5)            179.0044         estimate D2E/DX2                !
 ! D2    D(3,1,2,6)              0.6464         estimate D2E/DX2                !
 ! D3    D(4,1,2,5)             -0.7547         estimate D2E/DX2                !
 ! D4    D(4,1,2,6)           -179.1127         estimate D2E/DX2                !
 ! D5    D(1,2,5,7)           -103.8455         estimate D2E/DX2                !
 ! D6    D(1,2,5,8)            138.1423         estimate D2E/DX2                !
 ! D7    D(1,2,5,9)             13.4594         estimate D2E/DX2                !
 ! D8    D(6,2,5,7)             74.5603         estimate D2E/DX2                !
 ! D9    D(6,2,5,8)            -43.4518         estimate D2E/DX2                !
 ! D10   D(6,2,5,9)           -168.1347         estimate D2E/DX2                !
 ! D11   D(2,5,7,10)            73.1147         estimate D2E/DX2                !
 ! D12   D(2,5,7,11)          -176.7479         estimate D2E/DX2                !
 ! D13   D(8,5,7,10)          -164.9389         estimate D2E/DX2                !
 ! D14   D(8,5,7,11)           -54.8015         estimate D2E/DX2                !
 ! D15   D(9,5,7,10)           -48.6623         estimate D2E/DX2                !
 ! D16   D(9,5,7,11)            61.4751         estimate D2E/DX2                !
 ! D17   D(5,7,11,12)         -102.3791         estimate D2E/DX2                !
 ! D18   D(5,7,11,20)           80.9413         estimate D2E/DX2                !
 ! D19   D(10,7,11,12)           6.8653         estimate D2E/DX2                !
 ! D20   D(10,7,11,20)        -169.8143         estimate D2E/DX2                !
 ! D21   D(7,11,12,13)           1.3495         estimate D2E/DX2                !
 ! D22   D(7,11,12,14)        -177.9417         estimate D2E/DX2                !
 ! D23   D(20,11,12,13)        177.9969         estimate D2E/DX2                !
 ! D24   D(20,11,12,14)         -1.2943         estimate D2E/DX2                !
 ! D25   D(7,11,20,18)         178.1032         estimate D2E/DX2                !
 ! D26   D(7,11,20,21)          -1.1909         estimate D2E/DX2                !
 ! D27   D(12,11,20,18)          1.5014         estimate D2E/DX2                !
 ! D28   D(12,11,20,21)       -177.7927         estimate D2E/DX2                !
 ! D29   D(11,12,14,15)       -179.9665         estimate D2E/DX2                !
 ! D30   D(11,12,14,16)          0.3224         estimate D2E/DX2                !
 ! D31   D(13,12,14,15)          0.7625         estimate D2E/DX2                !
 ! D32   D(13,12,14,16)       -178.9486         estimate D2E/DX2                !
 ! D33   D(12,14,16,17)        179.7308         estimate D2E/DX2                !
 ! D34   D(12,14,16,18)          0.4251         estimate D2E/DX2                !
 ! D35   D(15,14,16,17)          0.0206         estimate D2E/DX2                !
 ! D36   D(15,14,16,18)       -179.285          estimate D2E/DX2                !
 ! D37   D(14,16,18,19)        179.1777         estimate D2E/DX2                !
 ! D38   D(14,16,18,20)         -0.2173         estimate D2E/DX2                !
 ! D39   D(17,16,18,19)         -0.1288         estimate D2E/DX2                !
 ! D40   D(17,16,18,20)       -179.5238         estimate D2E/DX2                !
 ! D41   D(16,18,20,11)         -0.7323         estimate D2E/DX2                !
 ! D42   D(16,18,20,21)        178.5639         estimate D2E/DX2                !
 ! D43   D(19,18,20,11)        179.8709         estimate D2E/DX2                !
 ! D44   D(19,18,20,21)         -0.8329         estimate D2E/DX2                !
 --------------------------------------------------------------------------------
 Trust Radius=3.00D-01 FncErr=1.00D-07 GrdErr=1.00D-06 EigMax=2.50D+02 EigMin=1.00D-04
 Number of steps in this run=    108 maximum allowed number of steps=    126.
 GradGradGradGradGradGradGradGradGradGradGradGradGradGradGradGradGradGrad

                          Input orientation:                          
 ---------------------------------------------------------------------
 Center     Atomic      Atomic             Coordinates (Angstroms)
 Number     Number       Type             X           Y           Z
 ---------------------------------------------------------------------
      1          6           0       -4.027982   -0.111806    0.932278
      2          6           0       -3.119580   -0.838389    0.292256
      3          1           0       -5.084643   -0.218762    0.724128
      4          1           0       -3.746140    0.616930    1.682876
      5          6           0       -1.652373   -0.726010    0.514780
      6          1           0       -3.438979   -1.549043   -0.464464
      7         16           0       -0.850121    0.210082   -0.886957
      8          1           0       -1.159945   -1.700022    0.544053
      9          1           0       -1.406836   -0.160374    1.414332
     10          8           0       -1.232334    1.636182   -0.709459
     11          6           0        0.851302    0.028429   -0.292781
     12          6           0        1.458082    1.107658    0.334596
     13          1           0        0.893078    2.020804    0.472254
     14          6           0        2.778773    0.993061    0.756017
     15          1           0        3.259962    1.829715    1.246804
     16          6           0        3.481615   -0.187912    0.543465
     17          1           0        4.510686   -0.271639    0.869026
     18          6           0        2.868415   -1.258932   -0.100776
     19          1           0        3.419162   -2.173948   -0.278468
     20          6           0        1.551005   -1.150984   -0.528577
     21          1           0        1.078715   -1.975127   -1.051104
 ---------------------------------------------------------------------
                    Distance matrix (angstroms):
                    1          2          3          4          5
     1  C    0.000000
     2  C    1.327684   0.000000
     3  H    1.082265   2.105213   0.000000
     4  H    1.083461   2.108164   1.846394   0.000000
     5  C    2.488990   1.488235   3.475860   2.748053   0.000000
     6  H    2.088890   1.086126   2.427058   3.065429   2.197331
     7  S    3.675871   2.764105   4.550899   3.893134   1.866747
     8  H    3.301331   2.155454   4.198787   3.654256   1.091807
     9  H    2.665547   2.156908   3.742466   2.479649   1.090608
    10  O    3.683261   3.269347   4.509576   3.616817   2.693538
    11  C    5.032678   4.106281   6.027491   5.038455   2.736736
    12  C    5.651656   4.974322   6.687180   5.398389   3.615209
    13  H    5.382980   4.930396   6.388446   4.995879   3.745146
    14  C    6.898095   6.193533   7.956308   6.601139   4.759039
    15  H    7.548679   6.980580   8.608245   7.123656   5.585573
    16  C    7.520041   6.637921   8.568218   7.361146   5.162190
    17  H    8.540398   7.672993   9.596569   8.344284   6.189930
    18  C    7.067064   6.015598   8.063098   7.103000   4.593521
    19  H    7.821655   6.698104   8.783089   7.935832   5.333501
    20  C    5.859956   4.752457   6.816900   6.006312   3.395707
    21  H    5.786547   4.552194   6.650056   6.121489   3.386905
                    6          7          8          9         10
     6  H    0.000000
     7  S    3.158355   0.000000
     8  H    2.496777   2.406715   0.000000
     9  H    3.096430   2.396477   1.785737   0.000000
    10  O    3.882649   1.487062   3.564658   2.787212   0.000000
    11  C    4.574320   1.811321   2.780818   2.837088   2.664588
    12  C    5.628300   2.761455   3.844607   3.313833   2.933893
    13  H    5.691043   2.857431   4.250248   3.306759   2.462063
    14  C    6.827321   4.059716   4.776099   4.391254   4.318588
    15  H    7.695470   4.906010   5.699867   5.076172   4.903585
    16  C    7.124831   4.579131   4.881655   4.965493   5.207538
    17  H    8.161319   5.661606   5.856786   5.943636   6.254093
    18  C    6.324528   4.074751   4.103419   4.666921   5.056513
    19  H    6.889064   4.927538   4.676470   5.496391   6.028205
    20  C    5.006246   2.783225   2.966686   3.674919   3.943094
    21  H    4.575506   2.919331   2.762573   3.943307   4.301072
                   11         12         13         14         15
    11  C    0.000000
    12  C    1.387991   0.000000
    13  H    2.134615   1.082596   0.000000
    14  C    2.397006   1.391026   2.166246   0.000000
    15  H    3.378845   2.144822   2.497715   1.082776   0.000000
    16  C    2.768512   2.411807   3.403531   1.390634   2.148170
    17  H    3.851094   3.392118   4.301141   2.147501   2.474412
    18  C    2.400606   2.789146   3.871303   2.411141   3.392495
    19  H    3.382983   3.871772   4.953850   3.392669   4.287320
    20  C    1.391474   2.419745   3.390394   2.784695   3.867438
    21  H    2.154300   3.401124   4.280484   3.868595   4.951267
                   16         17         18         19         20
    16  C    0.000000
    17  H    1.082584   0.000000
    18  C    1.392173   2.147631   0.000000
    19  H    2.150305   2.475267   1.082659   0.000000
    20  C    2.409157   3.389138   1.389329   2.144533   0.000000
    21  H    3.392745   4.285697   2.149206   2.472688   1.084114
                   21
    21  H    0.000000
 Stoichiometry    C9H10OS
 Framework group  C1[X(C9H10OS)]
 Deg. of freedom    57
 Full point group                 C1      NOp   1
 Largest Abelian subgroup         C1      NOp   1
 Largest concise Abelian subgroup C1      NOp   1
                         Standard orientation:                         
 ---------------------------------------------------------------------
 Center     Atomic      Atomic             Coordinates (Angstroms)
 Number     Number       Type             X           Y           Z
 ---------------------------------------------------------------------
      1          6           0       -4.027982   -0.111806    0.932278
      2          6           0       -3.119580   -0.838389    0.292256
      3          1           0       -5.084643   -0.218762    0.724128
      4          1           0       -3.746140    0.616930    1.682876
      5          6           0       -1.652373   -0.726010    0.514780
      6          1           0       -3.438979   -1.549043   -0.464464
      7         16           0       -0.850121    0.210082   -0.886957
      8          1           0       -1.159945   -1.700022    0.544053
      9          1           0       -1.406836   -0.160374    1.414332
     10          8           0       -1.232334    1.636182   -0.709459
     11          6           0        0.851302    0.028429   -0.292781
     12          6           0        1.458082    1.107658    0.334596
     13          1           0        0.893078    2.020804    0.472254
     14          6           0        2.778773    0.993061    0.756017
     15          1           0        3.259962    1.829715    1.246804
     16          6           0        3.481615   -0.187912    0.543465
     17          1           0        4.510686   -0.271639    0.869026
     18          6           0        2.868415   -1.258932   -0.100776
     19          1           0        3.419162   -2.173948   -0.278468
     20          6           0        1.551005   -1.150984   -0.528577
     21          1           0        1.078715   -1.975127   -1.051104
 ---------------------------------------------------------------------
 Rotational constants (GHZ):           2.3335876           0.5236584           0.4880325
 Standard basis: def2TZVP (5D, 7F)
 There are   462 symmetry adapted cartesian basis functions of A   symmetry.
 There are   407 symmetry adapted basis functions of A   symmetry.
   407 basis functions,   659 primitive gaussians,   462 cartesian basis functions
    44 alpha electrons       44 beta electrons
       nuclear repulsion energy       664.5455903081 Hartrees.
 NAtoms=   21 NActive=   21 NUniq=   21 SFac= 1.00D+00 NAtFMM=   60 NAOKFM=F Big=F
 Integral buffers will be    131072 words long.
 Raffenetti 2 integral format.
 Two-electron integral symmetry is turned on.
 One-electron integrals computed using PRISM.
   1 Symmetry operations used in ECPInt.
 ECPInt:  NShTT=   13366 NPrTT=   41614 LenC2=   12471 LenP2D=   29244.
 LDataN:  DoStor=T MaxTD1= 6 Len=  172
 NBasis=   407 RedAO= T EigKep=  8.65D-06  NBF=   407
 NBsUse=   407 1.00D-06 EigRej= -1.00D+00 NBFU=   407
 ExpMin= 9.52D-02 ExpMax= 6.07D+04 ExpMxC= 2.07D+03 IAcc=3 IRadAn=         5 AccDes= 0.00D+00
 Harris functional with IExCor=  402 and IRadAn=       5 diagonalized for initial guess.
 HarFok:  IExCor=  402 AccDes= 0.00D+00 IRadAn=         5 IDoV= 1 UseB2=F ITyADJ=14
 ICtDFT=  3500011 ScaDFX=  1.000000  1.000000  1.000000  1.000000
 FoFCou: FMM=F IPFlag=           0 FMFlag=      100000 FMFlg1=           0
         NFxFlg=           0 DoJE=T BraDBF=F KetDBF=T FulRan=T
         wScrn=  0.000000 ICntrl=       500 IOpCl=  0 I1Cent=   200000004 NGrid=           0
         NMat0=    1 NMatS0=      1 NMatT0=    0 NMatD0=    1 NMtDS0=    0 NMtDT0=    0
 Petite list used in FoFCou.
 Requested convergence on RMS density matrix=1.00D-08 within 128 cycles.
 Requested convergence on MAX density matrix=1.00D-06.
 Requested convergence on             energy=1.00D-06.
 No special actions if energy rises.
 Integral accuracy reduced to 1.0D-05 until final iterations.
 Initial convergence to 1.0D-05 achieved.  Increase integral accuracy.
 SCF Done:  E(RB3LYP) =  -822.532460343     A.U. after   20 cycles
            NFock= 20  Conv=0.13D-08     -V/T= 2.0035
   1 Symmetry operations used in ECPInt.
 ECPInt:  NShTT=   13366 NPrTT=   41614 LenC2=   12471 LenP2D=   29244.
 LDataN:  DoStor=T MaxTD1= 7 Len=  274
 Calling FoFJK, ICntrl=      2127 FMM=F ISym2X=0 I1Cent= 0 IOpClX= 0 NMat=1 NMatS=1 NMatT=0.
 ***** Axes restored to original set *****
 -------------------------------------------------------------------
 Center     Atomic                   Forces (Hartrees/Bohr)
 Number     Number              X              Y              Z
 -------------------------------------------------------------------
      1        6          -0.000009200    0.000005786    0.000003012
      2        6           0.000019530   -0.000007586    0.000001452
      3        1          -0.000002712   -0.000000430   -0.000001291
      4        1           0.000002037   -0.000000188    0.000003081
      5        6          -0.000013276   -0.000001750   -0.000001956
      6        1          -0.000000107   -0.000001700   -0.000002915
      7       16          -0.000023900    0.000076984    0.000006130
      8        1           0.000001840   -0.000005919   -0.000001404
      9        1           0.000000725    0.000004184   -0.000001513
     10        8           0.000012486   -0.000047132   -0.000004343
     11        6           0.000011534   -0.000059987   -0.000017221
     12        6           0.000005654    0.000031595    0.000014613
     13        1          -0.000006884   -0.000003037   -0.000000798
     14        6          -0.000007978    0.000006738    0.000000481
     15        1           0.000003786    0.000000847    0.000002929
     16        6           0.000000232   -0.000010119   -0.000003529
     17        1           0.000004304   -0.000000097    0.000000437
     18        6           0.000018298    0.000000089    0.000004190
     19        1           0.000001202   -0.000002647   -0.000001430
     20        6          -0.000020286    0.000019993   -0.000000100
     21        1           0.000002714   -0.000005625    0.000000175
 -------------------------------------------------------------------
 Cartesian Forces:  Max     0.000076984 RMS     0.000016226

 GradGradGradGradGradGradGradGradGradGradGradGradGradGradGradGradGradGrad
 Berny optimization.
 FormGI is forming the generalized inverse of G from B-inverse, IUseBI=4.
 Internal  Forces:  Max     0.000049690 RMS     0.000008386
 Search for a local minimum.
 Step number   1 out of a maximum of  108
 All quantities printed in internal units (Hartrees-Bohrs-Radians)
 Mixed Optimization -- En-DIIS/RFO-DIIS
 Second derivative matrix not updated -- first step.
 ITU=  0
     Eigenvalues ---    0.00230   0.00230   0.00922   0.01629   0.01803
     Eigenvalues ---    0.02201   0.02204   0.02210   0.02210   0.02214
     Eigenvalues ---    0.02217   0.02226   0.02233   0.03045   0.03045
     Eigenvalues ---    0.05264   0.06437   0.07405   0.09594   0.12971
     Eigenvalues ---    0.13674   0.15996   0.15998   0.15999   0.15999
     Eigenvalues ---    0.15999   0.16000   0.16000   0.16000   0.21493
     Eigenvalues ---    0.21998   0.22000   0.22001   0.22045   0.23480
     Eigenvalues ---    0.24958   0.25000   0.25245   0.33644   0.34605
     Eigenvalues ---    0.34742   0.35264   0.35502   0.35579   0.35661
     Eigenvalues ---    0.35675   0.35682   0.35684   0.35722   0.42769
     Eigenvalues ---    0.42874   0.47037   0.47145   0.47297   0.47513
     Eigenvalues ---    0.60056   0.81126
 RFO step:  Lambda=-3.03290236D-08 EMin= 2.30000000D-03
 Linear search not attempted -- first point.
 Iteration  1 RMS(Cart)=  0.00065239 RMS(Int)=  0.00000009
 Iteration  2 RMS(Cart)=  0.00000020 RMS(Int)=  0.00000000
 Variable       Old X    -DE/DX   Delta X   Delta X   Delta X     New X
                                 (Linear)    (Quad)   (Total)
    R1        2.50896   0.00001   0.00000   0.00002   0.00002   2.50898
    R2        2.04519   0.00000   0.00000   0.00001   0.00001   2.04519
    R3        2.04745   0.00000   0.00000   0.00001   0.00001   2.04745
    R4        2.81236  -0.00001   0.00000  -0.00003  -0.00003   2.81233
    R5        2.05248   0.00000   0.00000   0.00001   0.00001   2.05249
    R6        3.52764   0.00000   0.00000   0.00001   0.00001   3.52765
    R7        2.06322   0.00001   0.00000   0.00002   0.00002   2.06323
    R8        2.06095   0.00000   0.00000   0.00000   0.00000   2.06096
    R9        2.81014  -0.00005   0.00000  -0.00006  -0.00006   2.81008
   R10        3.42290   0.00001   0.00000   0.00006   0.00006   3.42296
   R11        2.62292   0.00003   0.00000   0.00005   0.00005   2.62298
   R12        2.62950  -0.00001   0.00000  -0.00002  -0.00002   2.62948
   R13        2.04581   0.00000   0.00000   0.00000   0.00000   2.04581
   R14        2.62866   0.00000   0.00000   0.00000   0.00000   2.62866
   R15        2.04615   0.00000   0.00000   0.00001   0.00001   2.04616
   R16        2.62792   0.00001   0.00000   0.00003   0.00003   2.62794
   R17        2.04579   0.00000   0.00000   0.00001   0.00001   2.04580
   R18        2.63082   0.00000   0.00000  -0.00000  -0.00000   2.63082
   R19        2.04593   0.00000   0.00000   0.00001   0.00001   2.04594
   R20        2.62545   0.00002   0.00000   0.00004   0.00004   2.62549
   R21        2.04868   0.00000   0.00000   0.00001   0.00001   2.04869
    A1        2.11907   0.00000   0.00000   0.00000   0.00000   2.11908
    A2        2.12241  -0.00000   0.00000  -0.00001  -0.00001   2.12240
    A3        2.04170   0.00000   0.00000   0.00001   0.00001   2.04170
    A4        2.16655   0.00000   0.00000   0.00001   0.00001   2.16656
    A5        2.08601  -0.00000   0.00000  -0.00000  -0.00000   2.08601
    A6        2.03029  -0.00000   0.00000  -0.00001  -0.00001   2.03028
    A7        1.92760   0.00000   0.00000   0.00002   0.00002   1.92761
    A8        1.96199  -0.00000   0.00000  -0.00002  -0.00002   1.96197
    A9        1.96541   0.00000   0.00000   0.00001   0.00001   1.96542
   A10        1.84799   0.00000   0.00000   0.00001   0.00001   1.84799
   A11        1.83643  -0.00001   0.00000  -0.00004  -0.00004   1.83639
   A12        1.91668   0.00000   0.00000   0.00002   0.00002   1.91670
   A13        1.85544   0.00000   0.00000   0.00001   0.00001   1.85545
   A14        1.67808  -0.00000   0.00000  -0.00001  -0.00001   1.67806
   A15        1.87387   0.00000   0.00000   0.00002   0.00002   1.87389
   A16        2.07252  -0.00003   0.00000  -0.00014  -0.00014   2.07238
   A17        2.09642   0.00003   0.00000   0.00012   0.00012   2.09655
   A18        2.11276   0.00000   0.00000   0.00001   0.00001   2.11277
   A19        2.07735  -0.00001   0.00000  -0.00004  -0.00004   2.07730
   A20        2.08053  -0.00000   0.00000  -0.00001  -0.00001   2.08052
   A21        2.12524   0.00001   0.00000   0.00005   0.00005   2.12530
   A22        2.08932   0.00000   0.00000   0.00002   0.00002   2.08934
   A23        2.09846  -0.00000   0.00000  -0.00000  -0.00000   2.09845
   A24        2.09540  -0.00000   0.00000  -0.00001  -0.00001   2.09539
   A25        2.09456  -0.00000   0.00000  -0.00001  -0.00001   2.09455
   A26        2.09606   0.00000   0.00000   0.00001   0.00001   2.09607
   A27        2.09250  -0.00000   0.00000  -0.00000  -0.00000   2.09249
   A28        2.09680   0.00000   0.00000   0.00000   0.00000   2.09680
   A29        2.09483   0.00000   0.00000  -0.00000  -0.00000   2.09483
   A30        2.09150  -0.00000   0.00000  -0.00000  -0.00000   2.09150
   A31        2.08346  -0.00000   0.00000  -0.00001  -0.00001   2.08345
   A32        2.10245   0.00001   0.00000   0.00004   0.00004   2.10249
   A33        2.09722  -0.00001   0.00000  -0.00003  -0.00003   2.09718
    D1        3.12422  -0.00000   0.00000  -0.00005  -0.00005   3.12417
    D2        0.01128  -0.00000   0.00000   0.00000   0.00000   0.01128
    D3       -0.01317  -0.00000   0.00000  -0.00005  -0.00005  -0.01323
    D4       -3.12611  -0.00000   0.00000  -0.00001  -0.00001  -3.12611
    D5       -1.81245   0.00000   0.00000   0.00006   0.00006  -1.81238
    D6        2.41104   0.00000   0.00000   0.00005   0.00005   2.41109
    D7        0.23491  -0.00000   0.00000   0.00003   0.00003   0.23494
    D8        1.30132   0.00000   0.00000   0.00002   0.00002   1.30134
    D9       -0.75838  -0.00000   0.00000   0.00001   0.00001  -0.75837
   D10       -2.93450  -0.00000   0.00000  -0.00002  -0.00002  -2.93452
   D11        1.27609   0.00000   0.00000   0.00069   0.00069   1.27678
   D12       -3.08483   0.00000   0.00000   0.00071   0.00071  -3.08412
   D13       -2.87873   0.00000   0.00000   0.00069   0.00069  -2.87804
   D14       -0.95647   0.00000   0.00000   0.00071   0.00071  -0.95576
   D15       -0.84932   0.00000   0.00000   0.00069   0.00069  -0.84862
   D16        1.07294   0.00000   0.00000   0.00071   0.00071   1.07366
   D17       -1.78685  -0.00000   0.00000  -0.00068  -0.00068  -1.78753
   D18        1.41269  -0.00000   0.00000  -0.00066  -0.00066   1.41203
   D19        0.11982  -0.00000   0.00000  -0.00067  -0.00067   0.11915
   D20       -2.96382  -0.00000   0.00000  -0.00064  -0.00064  -2.96446
   D21        0.02355   0.00000   0.00000   0.00005   0.00005   0.02361
   D22       -3.10567   0.00000   0.00000   0.00007   0.00007  -3.10560
   D23        3.10663   0.00000   0.00000   0.00003   0.00003   3.10666
   D24       -0.02259   0.00000   0.00000   0.00005   0.00005  -0.02254
   D25        3.10849  -0.00000   0.00000  -0.00007  -0.00007   3.10841
   D26       -0.02078  -0.00000   0.00000  -0.00010  -0.00010  -0.02088
   D27        0.02620  -0.00000   0.00000  -0.00005  -0.00005   0.02616
   D28       -3.10307  -0.00000   0.00000  -0.00007  -0.00007  -3.10314
   D29       -3.14101  -0.00000   0.00000  -0.00003  -0.00003  -3.14103
   D30        0.00563  -0.00000   0.00000  -0.00002  -0.00002   0.00561
   D31        0.01331  -0.00000   0.00000  -0.00001  -0.00001   0.01330
   D32       -3.12324  -0.00000   0.00000   0.00000   0.00000  -3.12324
   D33        3.13689  -0.00000   0.00000  -0.00001  -0.00001   3.13688
   D34        0.00742  -0.00000   0.00000  -0.00002  -0.00002   0.00740
   D35        0.00036  -0.00000   0.00000  -0.00001  -0.00001   0.00035
   D36       -3.12911  -0.00000   0.00000  -0.00001  -0.00001  -3.12913
   D37        3.12724   0.00000   0.00000   0.00004   0.00004   3.12728
   D38       -0.00379   0.00000   0.00000   0.00003   0.00003  -0.00376
   D39       -0.00225   0.00000   0.00000   0.00003   0.00003  -0.00222
   D40       -3.13328   0.00000   0.00000   0.00002   0.00002  -3.13326
   D41       -0.01278  -0.00000   0.00000   0.00000   0.00000  -0.01278
   D42        3.11653   0.00000   0.00000   0.00003   0.00003   3.11656
   D43        3.13934  -0.00000   0.00000  -0.00001  -0.00001   3.13933
   D44       -0.01454   0.00000   0.00000   0.00002   0.00002  -0.01452
         Item               Value     Threshold  Converged?
 Maximum Force            0.000050     0.000450     YES
 RMS     Force            0.000008     0.000300     YES
 Maximum Displacement     0.002065     0.001800     NO 
 RMS     Displacement     0.000652     0.001200     YES
 Predicted change in Energy=-1.516452D-08
 GradGradGradGradGradGradGradGradGradGradGradGradGradGradGradGradGradGrad

                          Input orientation:                          
 ---------------------------------------------------------------------
 Center     Atomic      Atomic             Coordinates (Angstroms)
 Number     Number       Type             X           Y           Z
 ---------------------------------------------------------------------
      1          6           0       -4.028332   -0.112413    0.931953
      2          6           0       -3.119498   -0.838611    0.292083
      3          1           0       -5.084906   -0.219730    0.723527
      4          1           0       -3.746932    0.616347    1.682699
      5          6           0       -1.652397   -0.725693    0.514935
      6          1           0       -3.438450   -1.549308   -0.464791
      7         16           0       -0.850173    0.210889   -0.886500
      8          1           0       -1.159611   -1.699535    0.544196
      9          1           0       -1.407259   -0.160049    1.414593
     10          8           0       -1.232147    1.636940   -0.708366
     11          6           0        0.851316    0.028692   -0.292588
     12          6           0        1.458481    1.107938    0.334450
     13          1           0        0.893683    2.021232    0.471982
     14          6           0        2.779229    0.993113    0.755635
     15          1           0        3.260743    1.829758    1.246129
     16          6           0        3.481739   -0.188097    0.543213
     17          1           0        4.510864   -0.271996    0.868581
     18          6           0        2.868146   -1.259128   -0.100634
     19          1           0        3.418625   -2.174337   -0.278190
     20          6           0        1.550660   -1.150955   -0.528214
     21          1           0        1.078081   -1.975146   -1.050413
 ---------------------------------------------------------------------
                    Distance matrix (angstroms):
                    1          2          3          4          5
     1  C    0.000000
     2  C    1.327695   0.000000
     3  H    1.082270   2.105229   0.000000
     4  H    1.083465   2.108171   1.846405   0.000000
     5  C    2.488992   1.488219   3.475864   2.748057   0.000000
     6  H    2.088903   1.086130   2.427075   3.065442   2.197314
     7  S    3.675866   2.764117   4.550889   3.893121   1.866754
     8  H    3.301343   2.155436   4.198800   3.654275   1.091816
     9  H    2.665565   2.156905   3.742490   2.479665   1.090610
    10  O    3.683685   3.269762   4.510133   3.617036   2.693532
    11  C    5.032929   4.106266   6.027681   5.038946   2.736745
    12  C    5.652555   4.974810   6.688049   5.399607   3.615569
    13  H    5.384259   4.931195   6.389736   4.997484   3.745660
    14  C    6.898997   6.193954   7.957175   6.602437   4.759364
    15  H    7.549924   6.981252   8.609494   7.125340   5.586048
    16  C    7.520506   6.637964   8.568602   7.362013   5.162283
    17  H    8.540922   7.673058   9.597009   8.345246   6.190048
    18  C    7.067007   6.015225   8.062917   7.103304   4.593342
    19  H    7.821326   6.697494   8.782595   7.935881   5.333187
    20  C    5.859677   4.751928   6.816508   6.006328   3.395377
    21  H    5.785758   4.551228   6.649117   6.120987   3.386290
                    6          7          8          9         10
     6  H    0.000000
     7  S    3.158372   0.000000
     8  H    2.496744   2.406733   0.000000
     9  H    3.096427   2.396449   1.785760   0.000000
    10  O    3.883205   1.487030   3.564581   2.786896   0.000000
    11  C    4.574039   1.811350   2.780432   2.837472   2.664610
    12  C    5.628470   2.761394   3.844516   3.314659   2.933732
    13  H    5.691544   2.857245   4.250334   3.307693   2.461718
    14  C    6.827362   4.059684   4.775931   4.392116   4.318442
    15  H    7.695747   4.905963   5.699838   5.077199   4.903396
    16  C    7.124464   4.579163   4.881248   4.966124   5.207488
    17  H    8.160944   5.661643   5.856397   5.944311   6.254036
    18  C    6.323762   4.074853   4.102754   4.667223   5.056574
    19  H    6.888030   4.927675   4.675682   5.496547   6.028313
    20  C    5.005390   2.783341   2.965902   3.675007   3.943200
    21  H    4.574204   2.919551   2.761522   3.943063   4.301315
                   11         12         13         14         15
    11  C    0.000000
    12  C    1.388019   0.000000
    13  H    2.134614   1.082598   0.000000
    14  C    2.397025   1.391027   2.166280   0.000000
    15  H    3.378880   2.144839   2.497787   1.082782   0.000000
    16  C    2.768517   2.411817   3.403563   1.390648   2.148178
    17  H    3.851106   3.392132   4.301184   2.147515   2.474412
    18  C    2.400610   2.789167   3.871324   2.411160   3.392510
    19  H    3.382990   3.871798   4.953876   3.392693   4.287337
    20  C    1.391463   2.419769   3.390395   2.784722   3.867471
    21  H    2.154319   3.401170   4.280506   3.868627   4.951305
                   16         17         18         19         20
    16  C    0.000000
    17  H    1.082590   0.000000
    18  C    1.392173   2.147634   0.000000
    19  H    2.150311   2.475272   1.082664   0.000000
    20  C    2.409174   3.389161   1.389350   2.144555   0.000000
    21  H    3.392752   4.285704   2.149208   2.472681   1.084119
                   21
    21  H    0.000000
 Stoichiometry    C9H10OS
 Framework group  C1[X(C9H10OS)]
 Deg. of freedom    57
 Full point group                 C1      NOp   1
 Largest Abelian subgroup         C1      NOp   1
 Largest concise Abelian subgroup C1      NOp   1
                         Standard orientation:                         
 ---------------------------------------------------------------------
 Center     Atomic      Atomic             Coordinates (Angstroms)
 Number     Number       Type             X           Y           Z
 ---------------------------------------------------------------------
      1          6           0       -4.028367   -0.112754    0.931690
      2          6           0       -3.119545   -0.838777    0.291605
      3          1           0       -5.084941   -0.219966    0.723207
      4          1           0       -3.746957    0.615753    1.682678
      5          6           0       -1.652445   -0.725984    0.514525
      6          1           0       -3.438506   -1.549218   -0.465505
      7         16           0       -0.850157    0.211023   -0.886591
      8          1           0       -1.159694   -1.699852    0.543481
      9          1           0       -1.407305   -0.160639    1.414371
     10          8           0       -1.232084    1.637030   -0.708004
     11          6           0        0.851312    0.028574   -0.292702
     12          6           0        1.458502    1.107596    0.334698
     13          1           0        0.893734    2.020865    0.472513
     14          6           0        2.779237    0.992588    0.755874
     15          1           0        3.260771    1.829058    1.246649
     16          6           0        3.481710   -0.188578    0.543086
     17          1           0        4.510825   -0.272619    0.868448
     18          6           0        2.868092   -1.259379   -0.101121
     19          1           0        3.418543   -2.174551   -0.278961
     20          6           0        1.550620   -1.151022   -0.528694
     21          1           0        1.078022   -1.975027   -1.051169
 ---------------------------------------------------------------------
 Rotational constants (GHZ):           2.3336998           0.5236720           0.4879734
 Standard basis: def2TZVP (5D, 7F)
 There are   462 symmetry adapted cartesian basis functions of A   symmetry.
 There are   407 symmetry adapted basis functions of A   symmetry.
   407 basis functions,   659 primitive gaussians,   462 cartesian basis functions
    44 alpha electrons       44 beta electrons
       nuclear repulsion energy       664.5411557376 Hartrees.
 NAtoms=   21 NActive=   21 NUniq=   21 SFac= 1.00D+00 NAtFMM=   60 NAOKFM=F Big=F
 Integral buffers will be    131072 words long.
 Raffenetti 2 integral format.
 Two-electron integral symmetry is turned on.
 One-electron integrals computed using PRISM.
   1 Symmetry operations used in ECPInt.
 ECPInt:  NShTT=   13366 NPrTT=   41614 LenC2=   12471 LenP2D=   29244.
 LDataN:  DoStor=T MaxTD1= 6 Len=  172
 NBasis=   407 RedAO= T EigKep=  8.65D-06  NBF=   407
 NBsUse=   407 1.00D-06 EigRej= -1.00D+00 NBFU=   407
 Initial guess from the checkpoint file:  "checkpoint.chk"
 B after Tr=    -0.000000   -0.000000   -0.000000
         Rot=    1.000000   -0.000266   -0.000003    0.000031 Ang=  -0.03 deg.
 Requested convergence on RMS density matrix=1.00D-08 within 128 cycles.
 Requested convergence on MAX density matrix=1.00D-06.
 Requested convergence on             energy=1.00D-06.
 No special actions if energy rises.
 SCF Done:  E(RB3LYP) =  -822.532460376     A.U. after    7 cycles
            NFock=  7  Conv=0.37D-08     -V/T= 2.0035
   1 Symmetry operations used in ECPInt.
 ECPInt:  NShTT=   13366 NPrTT=   41614 LenC2=   12471 LenP2D=   29244.
 LDataN:  DoStor=T MaxTD1= 7 Len=  274
 Calling FoFJK, ICntrl=      2127 FMM=F ISym2X=0 I1Cent= 0 IOpClX= 0 NMat=1 NMatS=1 NMatT=0.
 ***** Axes restored to original set *****
 -------------------------------------------------------------------
 Center     Atomic                   Forces (Hartrees/Bohr)
 Number     Number              X              Y              Z
 -------------------------------------------------------------------
      1        6          -0.000003515    0.000000507   -0.000000421
      2        6           0.000002664    0.000001843    0.000001859
      3        1           0.000000312   -0.000000666    0.000000074
      4        1           0.000000811   -0.000001370    0.000000843
      5        6          -0.000003624   -0.000009890   -0.000003677
      6        1          -0.000000221    0.000000139   -0.000000532
      7       16          -0.000014123    0.000031089    0.000003663
      8        1          -0.000002141    0.000000802   -0.000000116
      9        1           0.000003395    0.000002451   -0.000001982
     10        8           0.000007458   -0.000018663   -0.000001593
     11        6           0.000010029   -0.000025174   -0.000002246
     12        6           0.000005289    0.000012113    0.000002002
     13        1          -0.000003352   -0.000003215    0.000002442
     14        6          -0.000004962    0.000000999   -0.000000527
     15        1           0.000000932   -0.000001393    0.000001664
     16        6          -0.000001010   -0.000004605   -0.000001614
     17        1           0.000000050    0.000000134   -0.000000235
     18        6           0.000006071    0.000003650    0.000000875
     19        1          -0.000000971    0.000000308   -0.000001215
     20        6          -0.000005840    0.000012476    0.000000647
     21        1           0.000002747   -0.000001536    0.000000088
 -------------------------------------------------------------------
 Cartesian Forces:  Max     0.000031089 RMS     0.000006928

 GradGradGradGradGradGradGradGradGradGradGradGradGradGradGradGradGradGrad
 Berny optimization.
 Using GEDIIS/GDIIS optimizer.
 FormGI is forming the generalized inverse of G from B-inverse, IUseBI=4.
 Internal  Forces:  Max     0.000020774 RMS     0.000004045
 Search for a local minimum.
 Step number   2 out of a maximum of  108
 All quantities printed in internal units (Hartrees-Bohrs-Radians)
 Mixed Optimization -- En-DIIS/RFO-DIIS
 Swapping is turned off.
 Update second derivatives using D2CorX and points    1    2
 DE= -3.23D-08 DEPred=-1.52D-08 R= 2.13D+00
 Trust test= 2.13D+00 RLast= 2.20D-03 DXMaxT set to 3.00D-01
 ITU=  0  0
     Eigenvalues ---    0.00228   0.00376   0.00920   0.01624   0.01802
     Eigenvalues ---    0.02118   0.02202   0.02208   0.02210   0.02213
     Eigenvalues ---    0.02215   0.02225   0.02251   0.03039   0.03047
     Eigenvalues ---    0.05269   0.06418   0.07486   0.09557   0.12283
     Eigenvalues ---    0.13679   0.14467   0.15997   0.15999   0.15999
     Eigenvalues ---    0.16000   0.16000   0.16000   0.16013   0.18661
     Eigenvalues ---    0.21510   0.21999   0.22007   0.22017   0.22143
     Eigenvalues ---    0.23518   0.25195   0.25354   0.33674   0.34706
     Eigenvalues ---    0.34739   0.35269   0.35506   0.35581   0.35663
     Eigenvalues ---    0.35678   0.35680   0.35708   0.35762   0.42747
     Eigenvalues ---    0.42864   0.45831   0.47131   0.47298   0.47727
     Eigenvalues ---    0.59970   0.76855
 En-DIIS/RFO-DIIS/Sim-DIIS IScMMF=       -3 using points:     2    1
 RFO step:  Lambda=-7.52682491D-09.
 DidBck=T Rises=F RFO-DIIS coefs:    0.73103    0.26897
 Iteration  1 RMS(Cart)=  0.00033058 RMS(Int)=  0.00000003
 Iteration  2 RMS(Cart)=  0.00000005 RMS(Int)=  0.00000000
 Variable       Old X    -DE/DX   Delta X   Delta X   Delta X     New X
                                 (Linear)    (Quad)   (Total)
    R1        2.50898   0.00000  -0.00001   0.00002   0.00001   2.50899
    R2        2.04519  -0.00000  -0.00000   0.00000   0.00000   2.04520
    R3        2.04745   0.00000  -0.00000   0.00001   0.00000   2.04746
    R4        2.81233  -0.00000   0.00001  -0.00002  -0.00001   2.81231
    R5        2.05249   0.00000  -0.00000   0.00001   0.00000   2.05249
    R6        3.52765   0.00000  -0.00000   0.00002   0.00001   3.52767
    R7        2.06323  -0.00000  -0.00000   0.00001   0.00000   2.06323
    R8        2.06096   0.00000  -0.00000   0.00001   0.00000   2.06096
    R9        2.81008  -0.00002   0.00002  -0.00007  -0.00005   2.81003
   R10        3.42296   0.00001  -0.00002   0.00008   0.00006   3.42302
   R11        2.62298   0.00001  -0.00001   0.00005   0.00004   2.62301
   R12        2.62948  -0.00001   0.00001  -0.00003  -0.00003   2.62946
   R13        2.04581  -0.00000  -0.00000  -0.00000  -0.00000   2.04581
   R14        2.62866  -0.00000  -0.00000  -0.00001  -0.00001   2.62865
   R15        2.04616  -0.00000  -0.00000   0.00001   0.00000   2.04616
   R16        2.62794   0.00000  -0.00001   0.00002   0.00001   2.62796
   R17        2.04580  -0.00000  -0.00000   0.00001   0.00001   2.04580
   R18        2.63082  -0.00000   0.00000  -0.00001  -0.00001   2.63082
   R19        2.04594  -0.00000  -0.00000   0.00001   0.00000   2.04594
   R20        2.62549   0.00000  -0.00001   0.00004   0.00002   2.62552
   R21        2.04869   0.00000  -0.00000   0.00001   0.00000   2.04869
    A1        2.11908   0.00000  -0.00000   0.00000   0.00000   2.11908
    A2        2.12240  -0.00000   0.00000  -0.00001  -0.00001   2.12239
    A3        2.04170   0.00000  -0.00000   0.00001   0.00001   2.04171
    A4        2.16656   0.00000  -0.00000   0.00002   0.00001   2.16657
    A5        2.08601  -0.00000   0.00000  -0.00001  -0.00001   2.08601
    A6        2.03028  -0.00000   0.00000  -0.00001  -0.00001   2.03028
    A7        1.92761   0.00000  -0.00000   0.00003   0.00002   1.92763
    A8        1.96197  -0.00000   0.00000   0.00000   0.00001   1.96198
    A9        1.96542   0.00000  -0.00000   0.00001   0.00000   1.96542
   A10        1.84799   0.00000  -0.00000   0.00004   0.00003   1.84803
   A11        1.83639  -0.00001   0.00001  -0.00010  -0.00008   1.83630
   A12        1.91670   0.00000  -0.00001   0.00002   0.00001   1.91672
   A13        1.85545   0.00000  -0.00000   0.00001   0.00001   1.85546
   A14        1.67806   0.00000   0.00000   0.00001   0.00001   1.67807
   A15        1.87389  -0.00000  -0.00001  -0.00002  -0.00003   1.87386
   A16        2.07238  -0.00002   0.00004  -0.00018  -0.00014   2.07224
   A17        2.09655   0.00002  -0.00003   0.00016   0.00013   2.09668
   A18        2.11277   0.00000  -0.00000   0.00001   0.00001   2.11278
   A19        2.07730  -0.00000   0.00001  -0.00005  -0.00004   2.07726
   A20        2.08052  -0.00000   0.00000  -0.00001  -0.00000   2.08051
   A21        2.12530   0.00000  -0.00001   0.00006   0.00005   2.12534
   A22        2.08934   0.00000  -0.00001   0.00002   0.00002   2.08935
   A23        2.09845  -0.00000   0.00000  -0.00001  -0.00000   2.09845
   A24        2.09539  -0.00000   0.00000  -0.00002  -0.00001   2.09537
   A25        2.09455  -0.00000   0.00000  -0.00001  -0.00000   2.09455
   A26        2.09607   0.00000  -0.00000   0.00001   0.00000   2.09608
   A27        2.09249   0.00000   0.00000   0.00000   0.00000   2.09249
   A28        2.09680   0.00000  -0.00000   0.00001   0.00000   2.09681
   A29        2.09483   0.00000   0.00000   0.00000   0.00000   2.09484
   A30        2.09150  -0.00000   0.00000  -0.00001  -0.00001   2.09150
   A31        2.08345  -0.00000   0.00000  -0.00001  -0.00001   2.08344
   A32        2.10249   0.00000  -0.00001   0.00006   0.00004   2.10253
   A33        2.09718  -0.00000   0.00001  -0.00005  -0.00004   2.09714
    D1        3.12417   0.00000   0.00001  -0.00003  -0.00001   3.12416
    D2        0.01128   0.00000  -0.00000   0.00000   0.00000   0.01129
    D3       -0.01323  -0.00000   0.00001  -0.00005  -0.00003  -0.01326
    D4       -3.12611  -0.00000   0.00000  -0.00002  -0.00002  -3.12613
    D5       -1.81238   0.00000  -0.00002   0.00010   0.00009  -1.81230
    D6        2.41109  -0.00000  -0.00001   0.00004   0.00002   2.41112
    D7        0.23494  -0.00000  -0.00001   0.00000  -0.00000   0.23494
    D8        1.30134   0.00000  -0.00000   0.00007   0.00007   1.30141
    D9       -0.75837  -0.00000  -0.00000   0.00001   0.00001  -0.75836
   D10       -2.93452  -0.00000   0.00001  -0.00002  -0.00002  -2.93454
   D11        1.27678  -0.00000  -0.00019  -0.00011  -0.00030   1.27648
   D12       -3.08412  -0.00000  -0.00019  -0.00013  -0.00033  -3.08444
   D13       -2.87804   0.00000  -0.00018  -0.00007  -0.00026  -2.87830
   D14       -0.95576  -0.00000  -0.00019  -0.00009  -0.00028  -0.95604
   D15       -0.84862   0.00000  -0.00019  -0.00008  -0.00026  -0.84889
   D16        1.07366  -0.00000  -0.00019  -0.00010  -0.00029   1.07337
   D17       -1.78753  -0.00000   0.00018  -0.00015   0.00003  -1.78750
   D18        1.41203   0.00000   0.00018  -0.00006   0.00011   1.41215
   D19        0.11915   0.00000   0.00018  -0.00014   0.00004   0.11919
   D20       -2.96446   0.00000   0.00017  -0.00005   0.00012  -2.96434
   D21        0.02361   0.00000  -0.00001   0.00015   0.00014   0.02375
   D22       -3.10560   0.00000  -0.00002   0.00010   0.00008  -3.10551
   D23        3.10666   0.00000  -0.00001   0.00007   0.00006   3.10673
   D24       -0.02254  -0.00000  -0.00001   0.00002   0.00000  -0.02253
   D25        3.10841  -0.00000   0.00002  -0.00013  -0.00011   3.10831
   D26       -0.02088  -0.00000   0.00003  -0.00015  -0.00012  -0.02101
   D27        0.02616  -0.00000   0.00001  -0.00003  -0.00002   0.02614
   D28       -3.10314  -0.00000   0.00002  -0.00005  -0.00003  -3.10317
   D29       -3.14103   0.00000   0.00001   0.00001   0.00002  -3.14102
   D30        0.00561   0.00000   0.00001   0.00001   0.00001   0.00562
   D31        0.01330  -0.00000   0.00000  -0.00004  -0.00004   0.01326
   D32       -3.12324  -0.00000  -0.00000  -0.00004  -0.00004  -3.12329
   D33        3.13688  -0.00000   0.00000  -0.00002  -0.00001   3.13687
   D34        0.00740  -0.00000   0.00001  -0.00002  -0.00002   0.00738
   D35        0.00035  -0.00000   0.00000  -0.00002  -0.00002   0.00034
   D36       -3.12913  -0.00000   0.00000  -0.00003  -0.00002  -3.12915
   D37        3.12728   0.00000  -0.00001   0.00004   0.00003   3.12731
   D38       -0.00376  -0.00000  -0.00001   0.00001   0.00001  -0.00376
   D39       -0.00222   0.00000  -0.00001   0.00003   0.00002  -0.00219
   D40       -3.13326  -0.00000  -0.00001   0.00000  -0.00000  -3.13326
   D41       -0.01278   0.00000  -0.00000   0.00001   0.00001  -0.01276
   D42        3.11656   0.00000  -0.00001   0.00004   0.00003   3.11659
   D43        3.13933  -0.00000   0.00000  -0.00002  -0.00001   3.13932
   D44       -0.01452  -0.00000  -0.00001   0.00001   0.00000  -0.01451
         Item               Value     Threshold  Converged?
 Maximum Force            0.000021     0.000450     YES
 RMS     Force            0.000004     0.000300     YES
 Maximum Displacement     0.001153     0.001800     YES
 RMS     Displacement     0.000331     0.001200     YES
 Predicted change in Energy=-6.549745D-09
 Optimization completed.
    -- Stationary point found.
                           ----------------------------
                           !   Optimized Parameters   !
                           ! (Angstroms and Degrees)  !
 --------------------------                            --------------------------
 ! Name  Definition              Value          Derivative Info.                !
 --------------------------------------------------------------------------------
 ! R1    R(1,2)                  1.3277         -DE/DX =    0.0                 !
 ! R2    R(1,3)                  1.0823         -DE/DX =    0.0                 !
 ! R3    R(1,4)                  1.0835         -DE/DX =    0.0                 !
 ! R4    R(2,5)                  1.4882         -DE/DX =    0.0                 !
 ! R5    R(2,6)                  1.0861         -DE/DX =    0.0                 !
 ! R6    R(5,7)                  1.8668         -DE/DX =    0.0                 !
 ! R7    R(5,8)                  1.0918         -DE/DX =    0.0                 !
 ! R8    R(5,9)                  1.0906         -DE/DX =    0.0                 !
 ! R9    R(7,10)                 1.487          -DE/DX =    0.0                 !
 ! R10   R(7,11)                 1.8114         -DE/DX =    0.0                 !
 ! R11   R(11,12)                1.388          -DE/DX =    0.0                 !
 ! R12   R(11,20)                1.3915         -DE/DX =    0.0                 !
 ! R13   R(12,13)                1.0826         -DE/DX =    0.0                 !
 ! R14   R(12,14)                1.391          -DE/DX =    0.0                 !
 ! R15   R(14,15)                1.0828         -DE/DX =    0.0                 !
 ! R16   R(14,16)                1.3906         -DE/DX =    0.0                 !
 ! R17   R(16,17)                1.0826         -DE/DX =    0.0                 !
 ! R18   R(16,18)                1.3922         -DE/DX =    0.0                 !
 ! R19   R(18,19)                1.0827         -DE/DX =    0.0                 !
 ! R20   R(18,20)                1.3894         -DE/DX =    0.0                 !
 ! R21   R(20,21)                1.0841         -DE/DX =    0.0                 !
 ! A1    A(2,1,3)              121.4141         -DE/DX =    0.0                 !
 ! A2    A(2,1,4)              121.6045         -DE/DX =    0.0                 !
 ! A3    A(3,1,4)              116.981          -DE/DX =    0.0                 !
 ! A4    A(1,2,5)              124.1346         -DE/DX =    0.0                 !
 ! A5    A(1,2,6)              119.5197         -DE/DX =    0.0                 !
 ! A6    A(5,2,6)              116.3267         -DE/DX =    0.0                 !
 ! A7    A(2,5,7)              110.4442         -DE/DX =    0.0                 !
 ! A8    A(2,5,8)              112.4129         -DE/DX =    0.0                 !
 ! A9    A(2,5,9)              112.6102         -DE/DX =    0.0                 !
 ! A10   A(7,5,8)              105.8823         -DE/DX =    0.0                 !
 ! A11   A(7,5,9)              105.2173         -DE/DX =    0.0                 !
 ! A12   A(8,5,9)              109.819          -DE/DX =    0.0                 !
 ! A13   A(5,7,10)             106.3094         -DE/DX =    0.0                 !
 ! A14   A(5,7,11)              96.1458         -DE/DX =    0.0                 !
 ! A15   A(10,7,11)            107.366          -DE/DX =    0.0                 !
 ! A16   A(7,11,12)            118.7385         -DE/DX =    0.0                 !
 ! A17   A(7,11,20)            120.1234         -DE/DX =    0.0                 !
 ! A18   A(12,11,20)           121.0528         -DE/DX =    0.0                 !
 ! A19   A(11,12,13)           119.0207         -DE/DX =    0.0                 !
 ! A20   A(11,12,14)           119.2048         -DE/DX =    0.0                 !
 ! A21   A(13,12,14)           121.7706         -DE/DX =    0.0                 !
 ! A22   A(12,14,15)           119.7101         -DE/DX =    0.0                 !
 ! A23   A(12,14,16)           120.2324         -DE/DX =    0.0                 !
 ! A24   A(15,14,16)           120.0568         -DE/DX =    0.0                 !
 ! A25   A(14,16,17)           120.0092         -DE/DX =    0.0                 !
 ! A26   A(14,16,18)           120.0962         -DE/DX =    0.0                 !
 ! A27   A(17,16,18)           119.891          -DE/DX =    0.0                 !
 ! A28   A(16,18,19)           120.1379         -DE/DX =    0.0                 !
 ! A29   A(16,18,20)           120.0251         -DE/DX =    0.0                 !
 ! A30   A(19,18,20)           119.8343         -DE/DX =    0.0                 !
 ! A31   A(11,20,18)           119.3729         -DE/DX =    0.0                 !
 ! A32   A(11,20,21)           120.4637         -DE/DX =    0.0                 !
 ! A33   A(18,20,21)           120.1597         -DE/DX =    0.0                 !
 ! D1    D(3,1,2,5)            179.0018         -DE/DX =    0.0                 !
 ! D2    D(3,1,2,6)              0.6465         -DE/DX =    0.0                 !
 ! D3    D(4,1,2,5)             -0.7578         -DE/DX =    0.0                 !
 ! D4    D(4,1,2,6)           -179.113          -DE/DX =    0.0                 !
 ! D5    D(1,2,5,7)           -103.8419         -DE/DX =    0.0                 !
 ! D6    D(1,2,5,8)            138.1454         -DE/DX =    0.0                 !
 ! D7    D(1,2,5,9)             13.461          -DE/DX =    0.0                 !
 ! D8    D(6,2,5,7)             74.5612         -DE/DX =    0.0                 !
 ! D9    D(6,2,5,8)            -43.4514         -DE/DX =    0.0                 !
 ! D10   D(6,2,5,9)           -168.1358         -DE/DX =    0.0                 !
 ! D11   D(2,5,7,10)            73.1543         -DE/DX =    0.0                 !
 ! D12   D(2,5,7,11)          -176.707          -DE/DX =    0.0                 !
 ! D13   D(8,5,7,10)          -164.8996         -DE/DX =    0.0                 !
 ! D14   D(8,5,7,11)           -54.7609         -DE/DX =    0.0                 !
 ! D15   D(9,5,7,10)           -48.6226         -DE/DX =    0.0                 !
 ! D16   D(9,5,7,11)            61.516          -DE/DX =    0.0                 !
 ! D17   D(5,7,11,12)         -102.4181         -DE/DX =    0.0                 !
 ! D18   D(5,7,11,20)           80.9036         -DE/DX =    0.0                 !
 ! D19   D(10,7,11,12)           6.8271         -DE/DX =    0.0                 !
 ! D20   D(10,7,11,20)        -169.8512         -DE/DX =    0.0                 !
 ! D21   D(7,11,12,13)           1.3525         -DE/DX =    0.0                 !
 ! D22   D(7,11,12,14)        -177.9376         -DE/DX =    0.0                 !
 ! D23   D(20,11,12,13)        177.9988         -DE/DX =    0.0                 !
 ! D24   D(20,11,12,14)         -1.2913         -DE/DX =    0.0                 !
 ! D25   D(7,11,20,18)         178.0989         -DE/DX =    0.0                 !
 ! D26   D(7,11,20,21)          -1.1966         -DE/DX =    0.0                 !
 ! D27   D(12,11,20,18)          1.4988         -DE/DX =    0.0                 !
 ! D28   D(12,11,20,21)       -177.7967         -DE/DX =    0.0                 !
 ! D29   D(11,12,14,15)       -179.968          -DE/DX =    0.0                 !
 ! D30   D(11,12,14,16)          0.3212         -DE/DX =    0.0                 !
 ! D31   D(13,12,14,15)          0.7622         -DE/DX =    0.0                 !
 ! D32   D(13,12,14,16)       -178.9486         -DE/DX =    0.0                 !
 ! D33   D(12,14,16,17)        179.73           -DE/DX =    0.0                 !
 ! D34   D(12,14,16,18)          0.4239         -DE/DX =    0.0                 !
 ! D35   D(15,14,16,17)          0.0203         -DE/DX =    0.0                 !
 ! D36   D(15,14,16,18)       -179.2858         -DE/DX =    0.0                 !
 ! D37   D(14,16,18,19)        179.1799         -DE/DX =    0.0                 !
 ! D38   D(14,16,18,20)         -0.2157         -DE/DX =    0.0                 !
 ! D39   D(17,16,18,19)         -0.127          -DE/DX =    0.0                 !
 ! D40   D(17,16,18,20)       -179.5226         -DE/DX =    0.0                 !
 ! D41   D(16,18,20,11)         -0.732          -DE/DX =    0.0                 !
 ! D42   D(16,18,20,21)        178.5657         -DE/DX =    0.0                 !
 ! D43   D(19,18,20,11)        179.8706         -DE/DX =    0.0                 !
 ! D44   D(19,18,20,21)         -0.8317         -DE/DX =    0.0                 !
 --------------------------------------------------------------------------------
 GradGradGradGradGradGradGradGradGradGradGradGradGradGradGradGradGradGrad

                          Input orientation:                          
 ---------------------------------------------------------------------
 Center     Atomic      Atomic             Coordinates (Angstroms)
 Number     Number       Type             X           Y           Z
 ---------------------------------------------------------------------
      1          6           0       -4.028332   -0.112413    0.931953
      2          6           0       -3.119498   -0.838611    0.292083
      3          1           0       -5.084906   -0.219730    0.723527
      4          1           0       -3.746932    0.616347    1.682699
      5          6           0       -1.652397   -0.725693    0.514935
      6          1           0       -3.438450   -1.549308   -0.464791
      7         16           0       -0.850173    0.210889   -0.886500
      8          1           0       -1.159611   -1.699535    0.544196
      9          1           0       -1.407259   -0.160049    1.414593
     10          8           0       -1.232147    1.636940   -0.708366
     11          6           0        0.851316    0.028692   -0.292588
     12          6           0        1.458481    1.107938    0.334450
     13          1           0        0.893683    2.021232    0.471982
     14          6           0        2.779229    0.993113    0.755635
     15          1           0        3.260743    1.829758    1.246129
     16          6           0        3.481739   -0.188097    0.543213
     17          1           0        4.510864   -0.271996    0.868581
     18          6           0        2.868146   -1.259128   -0.100634
     19          1           0        3.418625   -2.174337   -0.278190
     20          6           0        1.550660   -1.150955   -0.528214
     21          1           0        1.078081   -1.975146   -1.050413
 ---------------------------------------------------------------------
                    Distance matrix (angstroms):
                    1          2          3          4          5
     1  C    0.000000
     2  C    1.327695   0.000000
     3  H    1.082270   2.105229   0.000000
     4  H    1.083465   2.108171   1.846405   0.000000
     5  C    2.488992   1.488219   3.475864   2.748057   0.000000
     6  H    2.088903   1.086130   2.427075   3.065442   2.197314
     7  S    3.675866   2.764117   4.550889   3.893121   1.866754
     8  H    3.301343   2.155436   4.198800   3.654275   1.091816
     9  H    2.665565   2.156905   3.742490   2.479665   1.090610
    10  O    3.683685   3.269762   4.510133   3.617036   2.693532
    11  C    5.032929   4.106266   6.027681   5.038946   2.736745
    12  C    5.652555   4.974810   6.688049   5.399607   3.615569
    13  H    5.384259   4.931195   6.389736   4.997484   3.745660
    14  C    6.898997   6.193954   7.957175   6.602437   4.759364
    15  H    7.549924   6.981252   8.609494   7.125340   5.586048
    16  C    7.520506   6.637964   8.568602   7.362013   5.162283
    17  H    8.540922   7.673058   9.597009   8.345246   6.190048
    18  C    7.067007   6.015225   8.062917   7.103304   4.593342
    19  H    7.821326   6.697494   8.782595   7.935881   5.333187
    20  C    5.859677   4.751928   6.816508   6.006328   3.395377
    21  H    5.785758   4.551228   6.649117   6.120987   3.386290
                    6          7          8          9         10
     6  H    0.000000
     7  S    3.158372   0.000000
     8  H    2.496744   2.406733   0.000000
     9  H    3.096427   2.396449   1.785760   0.000000
    10  O    3.883205   1.487030   3.564581   2.786896   0.000000
    11  C    4.574039   1.811350   2.780432   2.837472   2.664610
    12  C    5.628470   2.761394   3.844516   3.314659   2.933732
    13  H    5.691544   2.857245   4.250334   3.307693   2.461718
    14  C    6.827362   4.059684   4.775931   4.392116   4.318442
    15  H    7.695747   4.905963   5.699838   5.077199   4.903396
    16  C    7.124464   4.579163   4.881248   4.966124   5.207488
    17  H    8.160944   5.661643   5.856397   5.944311   6.254036
    18  C    6.323762   4.074853   4.102754   4.667223   5.056574
    19  H    6.888030   4.927675   4.675682   5.496547   6.028313
    20  C    5.005390   2.783341   2.965902   3.675007   3.943200
    21  H    4.574204   2.919551   2.761522   3.943063   4.301315
                   11         12         13         14         15
    11  C    0.000000
    12  C    1.388019   0.000000
    13  H    2.134614   1.082598   0.000000
    14  C    2.397025   1.391027   2.166280   0.000000
    15  H    3.378880   2.144839   2.497787   1.082782   0.000000
    16  C    2.768517   2.411817   3.403563   1.390648   2.148178
    17  H    3.851106   3.392132   4.301184   2.147515   2.474412
    18  C    2.400610   2.789167   3.871324   2.411160   3.392510
    19  H    3.382990   3.871798   4.953876   3.392693   4.287337
    20  C    1.391463   2.419769   3.390395   2.784722   3.867471
    21  H    2.154319   3.401170   4.280506   3.868627   4.951305
                   16         17         18         19         20
    16  C    0.000000
    17  H    1.082590   0.000000
    18  C    1.392173   2.147634   0.000000
    19  H    2.150311   2.475272   1.082664   0.000000
    20  C    2.409174   3.389161   1.389350   2.144555   0.000000
    21  H    3.392752   4.285704   2.149208   2.472681   1.084119
                   21
    21  H    0.000000
 Stoichiometry    C9H10OS
 Framework group  C1[X(C9H10OS)]
 Deg. of freedom    57
 Full point group                 C1      NOp   1
 Largest Abelian subgroup         C1      NOp   1
 Largest concise Abelian subgroup C1      NOp   1
                         Standard orientation:                         
 ---------------------------------------------------------------------
 Center     Atomic      Atomic             Coordinates (Angstroms)
 Number     Number       Type             X           Y           Z
 ---------------------------------------------------------------------
      1          6           0       -4.028367   -0.112754    0.931690
      2          6           0       -3.119545   -0.838777    0.291605
      3          1           0       -5.084941   -0.219966    0.723207
      4          1           0       -3.746957    0.615753    1.682678
      5          6           0       -1.652445   -0.725984    0.514525
      6          1           0       -3.438506   -1.549218   -0.465505
      7         16           0       -0.850157    0.211023   -0.886591
      8          1           0       -1.159694   -1.699852    0.543481
      9          1           0       -1.407305   -0.160639    1.414371
     10          8           0       -1.232084    1.637030   -0.708004
     11          6           0        0.851312    0.028574   -0.292702
     12          6           0        1.458502    1.107596    0.334698
     13          1           0        0.893734    2.020865    0.472513
     14          6           0        2.779237    0.992588    0.755874
     15          1           0        3.260771    1.829058    1.246649
     16          6           0        3.481710   -0.188578    0.543086
     17          1           0        4.510825   -0.272619    0.868448
     18          6           0        2.868092   -1.259379   -0.101121
     19          1           0        3.418543   -2.174551   -0.278961
     20          6           0        1.550620   -1.151022   -0.528694
     21          1           0        1.078022   -1.975027   -1.051169
 ---------------------------------------------------------------------
 Rotational constants (GHZ):           2.3336998           0.5236720           0.4879734
 1\1\GINC-BHC0030\FOpt\RB3LYP\def2TZVP\C9H10O1S1\DHANAWAY\10-Jun-2022\0
 \\# Opt B3LYP/Def2TZVP freq=noraman pop=none\\int_initalOpt\\0,1\C,-4.
 0283319586,-0.1124131869,0.9319525547\C,-3.1194978263,-0.8386106015,0.
 2920833822\H,-5.0849064921,-0.2197299891,0.7235270342\H,-3.7469316412,
 0.6163469229,1.6826988787\C,-1.6523974313,-0.7256932951,0.5149351766\H
 ,-3.4384502743,-1.5493076539,-0.4647906863\S,-0.850172698,0.2108891108
 ,-0.8864998811\H,-1.1596113338,-1.6995346573,0.5441958386\H,-1.4072585
 928,-0.1600487878,1.4145930931\O,-1.2321465115,1.6369401537,-0.7083663
 389\C,0.8513158849,0.0286921706,-0.2925882405\C,1.4584807303,1.1079380
 298,0.3344496597\H,0.8936832045,2.0212321384,0.4719817171\C,2.77922868
 17,0.9931131895,0.7556349692\H,3.2607433052,1.8297582193,1.246129363\C
 ,3.4817393121,-0.1880966685,0.543213284\H,4.5108640483,-0.271996156,0.
 8685808649\C,2.8681456212,-1.2591278475,-0.1006340472\H,3.4186249057,-
 2.1743369676,-0.2781901536\C,1.5506601952,-1.1509548374,-0.5282144455\
 H,1.0780808709,-1.9751462864,-1.050413023\\Version=ES64L-G16RevA.03\HF
 =-822.5324604\RMSD=3.747e-09\RMSF=6.928e-06\Dipole=0.6205315,-1.182843
 3,0.5325606\PG=C01 [X(C9H10O1S1)]\\@


 NECESSARY EVIL: ONE WE LIKE TOO MUCH TO RELINQUISH.
 Job cpu time:       0 days  0 hours 52 minutes 58.9 seconds.
 Elapsed time:       0 days  0 hours  4 minutes 25.5 seconds.
 File lengths (MBytes):  RWF=     93 Int=      0 D2E=      0 Chk=     32 Scr=      1
 Normal termination of Gaussian 16 at Fri Jun 10 10:34:48 2022.
 Link1:  Proceeding to internal job step number  2.
 --------------------------------------------------------------------
 #N Geom=AllCheck Guess=TCheck SCRF=Check GenChk RB3LYP/def2TZVP Freq
 --------------------------------------------------------------------
 1/10=4,29=7,30=1,38=1,40=1/1,3;
 2/12=2,40=1/2;
 3/5=44,7=101,11=2,14=-4,25=1,30=1,70=2,71=2,74=-5,116=1,140=1/1,2,3;
 4/5=101/1;
 5/5=2,38=6,98=1/2;
 8/6=4,10=90,11=11/1;
 11/6=1,8=1,9=11,15=111,16=1/1,2,10;
 10/6=1/2;
 7/8=1,10=1,25=1/1,2,3,16;
 1/10=4,30=1/3;
 99//99;
 Structure from the checkpoint file:  "checkpoint.chk"
 -------------
 int_initalOpt
 -------------
 Charge =  0 Multiplicity = 1
 Redundant internal coordinates found in file.  (old form).
 C,0,-4.0283319586,-0.1124131869,0.9319525547
 C,0,-3.1194978263,-0.8386106015,0.2920833822
 H,0,-5.0849064921,-0.2197299891,0.7235270342
 H,0,-3.7469316412,0.6163469229,1.6826988787
 C,0,-1.6523974313,-0.7256932951,0.5149351766
 H,0,-3.4384502743,-1.5493076539,-0.4647906863
 S,0,-0.850172698,0.2108891108,-0.8864998811
 H,0,-1.1596113338,-1.6995346573,0.5441958386
 H,0,-1.4072585928,-0.1600487878,1.4145930931
 O,0,-1.2321465115,1.6369401537,-0.7083663389
 C,0,0.8513158849,0.0286921706,-0.2925882405
 C,0,1.4584807303,1.1079380298,0.3344496597
 H,0,0.8936832045,2.0212321384,0.4719817171
 C,0,2.7792286817,0.9931131895,0.7556349692
 H,0,3.2607433052,1.8297582193,1.246129363
 C,0,3.4817393121,-0.1880966685,0.543213284
 H,0,4.5108640483,-0.271996156,0.8685808649
 C,0,2.8681456212,-1.2591278475,-0.1006340472
 H,0,3.4186249057,-2.1743369676,-0.2781901536
 C,0,1.5506601952,-1.1509548374,-0.5282144455
 H,0,1.0780808709,-1.9751462864,-1.050413023
 Recover connectivity data from disk.

 GradGradGradGradGradGradGradGradGradGradGradGradGradGradGradGradGradGrad
 Berny optimization.
 Initialization pass.
                           ----------------------------
                           !    Initial Parameters    !
                           ! (Angstroms and Degrees)  !
 --------------------------                            --------------------------
 ! Name  Definition              Value          Derivative Info.                !
 --------------------------------------------------------------------------------
 ! R1    R(1,2)                  1.3277         calculate D2E/DX2 analytically  !
 ! R2    R(1,3)                  1.0823         calculate D2E/DX2 analytically  !
 ! R3    R(1,4)                  1.0835         calculate D2E/DX2 analytically  !
 ! R4    R(2,5)                  1.4882         calculate D2E/DX2 analytically  !
 ! R5    R(2,6)                  1.0861         calculate D2E/DX2 analytically  !
 ! R6    R(5,7)                  1.8668         calculate D2E/DX2 analytically  !
 ! R7    R(5,8)                  1.0918         calculate D2E/DX2 analytically  !
 ! R8    R(5,9)                  1.0906         calculate D2E/DX2 analytically  !
 ! R9    R(7,10)                 1.487          calculate D2E/DX2 analytically  !
 ! R10   R(7,11)                 1.8114         calculate D2E/DX2 analytically  !
 ! R11   R(11,12)                1.388          calculate D2E/DX2 analytically  !
 ! R12   R(11,20)                1.3915         calculate D2E/DX2 analytically  !
 ! R13   R(12,13)                1.0826         calculate D2E/DX2 analytically  !
 ! R14   R(12,14)                1.391          calculate D2E/DX2 analytically  !
 ! R15   R(14,15)                1.0828         calculate D2E/DX2 analytically  !
 ! R16   R(14,16)                1.3906         calculate D2E/DX2 analytically  !
 ! R17   R(16,17)                1.0826         calculate D2E/DX2 analytically  !
 ! R18   R(16,18)                1.3922         calculate D2E/DX2 analytically  !
 ! R19   R(18,19)                1.0827         calculate D2E/DX2 analytically  !
 ! R20   R(18,20)                1.3894         calculate D2E/DX2 analytically  !
 ! R21   R(20,21)                1.0841         calculate D2E/DX2 analytically  !
 ! A1    A(2,1,3)              121.4141         calculate D2E/DX2 analytically  !
 ! A2    A(2,1,4)              121.6045         calculate D2E/DX2 analytically  !
 ! A3    A(3,1,4)              116.981          calculate D2E/DX2 analytically  !
 ! A4    A(1,2,5)              124.1346         calculate D2E/DX2 analytically  !
 ! A5    A(1,2,6)              119.5197         calculate D2E/DX2 analytically  !
 ! A6    A(5,2,6)              116.3267         calculate D2E/DX2 analytically  !
 ! A7    A(2,5,7)              110.4442         calculate D2E/DX2 analytically  !
 ! A8    A(2,5,8)              112.4129         calculate D2E/DX2 analytically  !
 ! A9    A(2,5,9)              112.6102         calculate D2E/DX2 analytically  !
 ! A10   A(7,5,8)              105.8823         calculate D2E/DX2 analytically  !
 ! A11   A(7,5,9)              105.2173         calculate D2E/DX2 analytically  !
 ! A12   A(8,5,9)              109.819          calculate D2E/DX2 analytically  !
 ! A13   A(5,7,10)             106.3094         calculate D2E/DX2 analytically  !
 ! A14   A(5,7,11)              96.1458         calculate D2E/DX2 analytically  !
 ! A15   A(10,7,11)            107.366          calculate D2E/DX2 analytically  !
 ! A16   A(7,11,12)            118.7385         calculate D2E/DX2 analytically  !
 ! A17   A(7,11,20)            120.1234         calculate D2E/DX2 analytically  !
 ! A18   A(12,11,20)           121.0528         calculate D2E/DX2 analytically  !
 ! A19   A(11,12,13)           119.0207         calculate D2E/DX2 analytically  !
 ! A20   A(11,12,14)           119.2048         calculate D2E/DX2 analytically  !
 ! A21   A(13,12,14)           121.7706         calculate D2E/DX2 analytically  !
 ! A22   A(12,14,15)           119.7101         calculate D2E/DX2 analytically  !
 ! A23   A(12,14,16)           120.2324         calculate D2E/DX2 analytically  !
 ! A24   A(15,14,16)           120.0568         calculate D2E/DX2 analytically  !
 ! A25   A(14,16,17)           120.0092         calculate D2E/DX2 analytically  !
 ! A26   A(14,16,18)           120.0962         calculate D2E/DX2 analytically  !
 ! A27   A(17,16,18)           119.891          calculate D2E/DX2 analytically  !
 ! A28   A(16,18,19)           120.1379         calculate D2E/DX2 analytically  !
 ! A29   A(16,18,20)           120.0251         calculate D2E/DX2 analytically  !
[...]
 5438,-0.00326098,-0.00264582,0.00488846,0.00070847,0.00151116,0.000620
 05,-0.11796178,0.46619239,-0.00031733,-0.00045430,-0.00062204,-0.00125
 704,0.00024955,0.00075747,0.00008339,0.00032811,-0.00008426,-0.0001832
 6,-0.00005964,0.00053806,-0.00311036,0.02730367,0.01165580,0.00025449,
 0.00019843,-0.00006355,0.01944173,-0.08219653,-0.06526001,0.00387294,0
 .00424921,-0.00432694,-0.00362078,-0.00388306,0.00652310,-0.01024785,0
 .03936256,0.04114884,-0.00003888,-0.00009078,-0.00018448,-0.00083226,-
 0.00093113,0.00220228,-0.00005833,0.00014764,-0.00000967,0.00000675,0.
 00001562,0.00003806,-0.01759406,-0.00653779,-0.00273506,-0.00013006,-0
 .00004517,-0.00012767,-0.09834088,0.01186975,-0.01379124,-0.00014502,0
 .00063514,-0.00057225,0.00158529,0.00168240,-0.00183611,-0.00505522,-0
 .00020984,-0.00575710,0.45643220,-0.00033947,-0.00080267,-0.00029392,-
 0.00191011,0.00005451,0.00380295,-0.00008772,0.00039256,-0.00014040,-0
 .00001531,-0.00003599,0.00022013,-0.00836421,0.00223305,-0.00685845,0.
 00028538,0.00010020,-0.00011692,-0.02194033,-0.05896094,-0.01359493,-0
 .00014774,0.00065156,-0.00062883,0.00064521,0.00006555,0.00031036,0.03
 447871,-0.01080861,0.01258457,-0.04130430,0.60439752,0.00080859,0.0004
 0848,0.00068994,0.00133115,0.00178027,-0.00434384,0.00008040,-0.000577
 34,0.00030988,-0.00001846,0.00027021,-0.00031202,0.01651808,0.00132404
 ,0.00900848,0.00043701,0.00031221,0.00023040,-0.05071098,-0.01116024,-
 0.06628801,-0.00009420,-0.00014174,0.00005861,0.00027870,-0.00024127,0
 .00181313,0.00852196,0.00319142,0.00905638,0.09197594,0.16518847,0.233
 75219,-0.00001111,-0.00025253,0.00002519,-0.00010908,-0.00035283,0.000
 82814,-0.00000454,0.00011376,-0.00008484,0.00000417,-0.00000488,0.0000
 3158,0.00034775,0.00097697,-0.00266362,0.00009245,0.00008560,0.0000046
 5,-0.02670556,-0.01933182,-0.01932934,-0.00010833,-0.00054586,0.000322
 65,0.00019282,0.00017227,0.00027665,0.00251819,0.00030610,0.00257122,-
 0.14434217,-0.03826974,-0.04171634,0.62907794,0.00015561,0.00008580,0.
 00007040,0.00008537,0.00004697,-0.00059595,0.00004443,-0.00007300,0.00
 000925,0.00000252,0.00000585,-0.00002284,0.00141571,0.00020625,0.00044
 493,-0.00002007,-0.00005623,0.00005552,-0.00573393,0.01045353,-0.00032
 381,0.00001786,-0.00029798,0.00008023,-0.00006076,0.00011610,-0.000091
 83,-0.00115170,-0.00302032,-0.00187627,-0.07783951,-0.24057173,-0.0936
 9621,-0.09665812,0.64678786,0.00024160,-0.00021425,-0.00000528,-0.0001
 6987,0.00000432,0.00005496,0.00004714,-0.00000699,-0.00002733,-0.00001
 668,0.00000152,0.00000141,0.00217178,0.00071105,-0.00119305,0.00006194
 ,0.00002876,0.00000343,-0.01454496,-0.00239451,-0.00462712,0.00011919,
 -0.00053777,0.00032055,-0.00024723,-0.00000314,0.00018954,0.00054029,-
 0.00207689,0.00046268,-0.05790242,-0.07888786,-0.11321199,0.13777326,0
 .15911872,0.24486621,0.00000141,-0.00003348,-0.00003192,-0.00019708,-0
 .00001381,0.00010700,0.00001370,0.00001585,0.00000477,-0.00002150,-0.0
 0001307,0.00003969,-0.00056886,0.00021948,-0.00030543,0.00001295,-0.00
 000602,0.00001157,-0.00005276,-0.00300943,0.00014260,0.00011616,0.0001
 4677,-0.00008310,0.00002029,-0.00007827,0.00003001,-0.00084722,0.00167
 051,0.00099238,0.01397672,-0.00971162,-0.00039103,-0.13059225,0.122913
 61,0.01284143,0.13273157,-0.00000536,-0.00000643,-0.00002369,-0.000073
 30,-0.00000352,0.00015142,0.00000801,0.00001879,-0.00000295,-0.0000162
 4,-0.00000023,0.00001446,-0.00040038,-0.00019997,-0.00036918,0.0000372
 0,-0.00000435,0.00000177,0.00210051,-0.00270503,0.00111773,0.00003172,
 0.00006476,0.00000910,-0.00010541,-0.00004246,0.00010512,0.00138927,0.
 00131474,0.00144300,0.01089884,-0.01834215,-0.00470008,0.12341887,-0.2
 5641362,-0.03702535,-0.13359631,0.27221131,0.00007565,0.00006676,0.000
 02922,-0.00002631,0.00002610,-0.00039421,0.00000174,-0.00005435,0.0000
 2582,0.00000999,0.00001321,-0.00001306,0.00069631,0.00040927,0.0005032
 2,-0.00001776,-0.00000115,0.00001634,0.00105375,-0.00225749,-0.0026751
 3,0.00003252,0.00004402,-0.00006485,0.00011032,-0.00000418,-0.00000373
 ,0.00100342,0.00225914,0.00014483,0.00674791,-0.01193459,0.00174956,0.
 01290354,-0.03611786,-0.04753451,-0.01254469,0.04325381,0.03887855,-0.
 00010403,0.00004357,-0.00002013,0.00003405,0.00039816,0.00018571,-0.00
 002442,-0.00000450,0.00002654,-0.00000691,0.00001140,-0.00001121,-0.00
 020522,-0.00032392,0.00089198,0.00008045,0.00001926,-0.00002334,0.0017
 3257,-0.00275124,-0.00169026,0.00004496,0.00045665,-0.00031284,-0.0003
 4772,-0.00015224,0.00033965,0.00083344,0.00094520,-0.00001426,-0.02230
 282,-0.06776087,-0.03857250,-0.30273476,0.05310991,-0.06452591,-0.0096
 8422,-0.00102590,-0.00469731,0.61886374,0.00017280,-0.00000104,0.00003
 463,-0.00009130,-0.00003078,-0.00029798,0.00002358,-0.00004316,0.00001
 837,-0.00000904,0.00002163,-0.00000853,0.00132096,-0.00001575,-0.00037
 262,0.00005348,0.00003123,0.00003133,-0.00242851,-0.00414319,-0.004866
 26,-0.00008864,-0.00025695,0.00021533,0.00008148,0.00004633,0.00001600
 ,0.00190817,0.00240388,0.00211318,-0.02588140,0.03480966,0.00245564,-0
 .00569871,-0.12073841,-0.02546235,0.02467232,0.00367302,0.00862893,-0.
 02777358,0.64364549,-0.00011698,-0.00008860,-0.00005937,-0.00017973,-0
 .00001726,0.00068838,-0.00000680,0.00007791,-0.00002782,-0.00000986,-0
 .00001218,0.00003352,-0.00165831,-0.00035780,-0.00071977,0.00005123,-0
 .00001270,-0.00003142,0.00009650,-0.00333164,0.00444168,0.00006997,0.0
 0017116,-0.00012934,-0.00012691,-0.00000099,0.00001477,0.00033271,0.00
 041677,0.00007631,-0.02027441,-0.01336037,-0.00436837,-0.08776712,-0.0
 0441642,-0.09440666,0.00504588,-0.00029959,0.00486268,0.16047979,0.187
 66613,0.26151932,-0.00003446,-0.00003307,-0.00001163,0.00002548,-0.000
 01726,0.00013894,-0.00000817,0.00001931,-0.00000753,0.00000210,-0.0000
 0034,0.00000182,-0.00002941,0.00003543,-0.00016245,0.00000864,0.000012
 58,-0.00001127,-0.00028929,-0.00142452,-0.00068098,-0.00000121,-0.0000
 0974,0.00000684,-0.00002014,-0.00001084,0.00003213,0.00018882,0.000607
 85,0.00025559,-0.00440946,0.00156410,-0.00341455,-0.00973970,-0.024307
 28,-0.01386993,0.00076618,-0.00020648,0.00157051,-0.11152934,-0.092496
 20,-0.06203593,0.11436953,-0.00000715,-0.00001342,-0.00000333,0.000019
 85,-0.00001170,0.00001291,-0.00000258,0.00000370,-0.00000167,0.0000016
 0,0.00000158,-0.00000149,0.00002546,0.00001188,-0.00000357,-0.00000523
 ,0.00000102,-0.00000388,0.00037603,0.00018772,0.00010674,0.00000944,-0
 .00000512,0.00000475,-0.00001046,0.00000383,-0.00000873,-0.00009133,0.
 00001228,-0.00005439,0.00151707,0.00243089,-0.00131761,0.00230692,0.00
 555759,0.00194775,-0.00084832,0.00018321,0.00124250,-0.09212100,-0.222
 10827,-0.10370535,0.09881052,0.23285378,-0.00003484,0.00000003,-0.0000
 0331,0.00001155,0.00001279,0.00008272,-0.00000855,0.00000974,-0.000005
 37,0.00000330,-0.00000476,0.00000303,-0.00013560,-0.00001529,-0.000080
 44,0.00000120,0.00000077,-0.00000350,0.00019825,-0.00067438,-0.0000050
 8,-0.00002117,0.00002048,-0.00001512,0.00002448,0.00000129,0.00001061,
 -0.00005278,0.00017272,0.00014948,-0.00368746,-0.00157169,0.00541899,-
 0.00313546,-0.00738066,-0.00117451,0.00138065,0.00139195,-0.00290175,-
 0.06191552,-0.10356097,-0.09793916,0.06925058,0.11439108,0.09371573,-0
 .00012606,-0.00007754,-0.00003983,0.00005867,-0.00011437,0.00036798,-0
 .00001903,0.00006744,-0.00003842,0.00000353,-0.00002180,0.00002026,-0.
 00041564,0.00054378,-0.00054757,-0.00003228,0.00000056,-0.00001289,-0.
 00049812,-0.00090579,0.00011738,0.00001830,-0.00000801,-0.00008218,-0.
 00000186,0.00003685,0.00006827,-0.00021437,0.00010663,0.00010144,-0.00
 019614,0.00166572,0.00233056,-0.02866018,0.02858262,-0.00133792,-0.003
 80994,0.00009718,-0.00377087,-0.17430248,0.12155815,0.00772248,0.01104
 720,-0.01408914,-0.00248407,0.68089159,-0.00012504,-0.00000054,-0.0000
 3490,0.00003018,0.00035272,0.00029724,-0.00002548,0.00002143,0.0000067
 4,-0.00000136,-0.00000543,0.00000054,-0.00034658,-0.00001763,0.0004014
 3,0.00005524,0.00000382,-0.00002460,-0.00181725,-0.00265722,-0.0005522
 2,0.00010541,0.00040735,-0.00029165,-0.00027502,-0.00017127,0.00029910
 ,0.00068446,0.00083449,-0.00014286,0.00305658,-0.06098285,-0.02110183,
 0.07007179,0.02327585,0.03108342,0.00002645,0.00218707,-0.00185403,0.0
 6370680,-0.26713057,-0.05712365,0.01336176,-0.01623942,-0.00257269,-0.
 06413398,0.59226235,-0.00009578,-0.00002539,-0.00001877,0.00008401,0.0
 0014002,0.00016156,-0.00001726,0.00002163,-0.00000135,0.00000376,-0.00
 000297,-0.00000069,-0.00008853,0.00016443,0.00010284,0.00000246,0.0000
 0472,-0.00001314,-0.00093226,-0.00123541,-0.00116323,0.00005698,0.0002
 0932,-0.00016314,-0.00009409,-0.00002696,0.00013688,0.00018809,0.00055
 578,0.00008246,0.00393108,-0.02093055,-0.01419162,0.01467819,0.0164379
 7,0.01859578,-0.00387038,-0.00165745,0.00524636,-0.01491153,-0.0376237
 7,-0.08023392,0.00811094,-0.01213878,0.00068755,0.16791751,0.15907842,
 0.25321294,-0.00002818,-0.00000956,0.00000069,0.00003071,-0.00001057,0
 .00005576,-0.00000688,0.00000820,-0.00000534,0.00000404,0.00000081,-0.
 00000231,-0.00005416,-0.00005066,-0.00000980,-0.00000311,0.00000166,-0
 .00000816,-0.00003350,0.00008869,0.00019697,0.00000094,0.00000139,-0.0
 0000669,-0.00000286,0.00000770,-0.00001433,-0.00017188,-0.00004444,-0.
 00005434,0.00070489,-0.00012514,0.00055535,0.00087006,0.00374012,-0.00
 089684,-0.00045984,-0.00022440,-0.00028243,-0.01114488,-0.00119756,-0.
 00511351,0.00040755,-0.00027157,0.00134325,-0.30732617,0.02296603,-0.0
 8568693,0.32528898,-0.00001005,0.00000022,-0.00000369,0.00000002,0.000
 00323,0.00002216,0.00000011,0.00000312,0.00000026,-0.00000186,-0.00000
 034,0.00000290,-0.00006411,-0.00003936,0.00000069,0.00000416,-0.000001
 80,-0.00000014,-0.00002715,-0.00019611,0.00022588,0.00001181,0.0000183
 3,-0.00001897,-0.00001748,-0.00000113,0.00000453,0.00004528,0.00020269
 ,0.00011914,-0.00003357,-0.00140507,-0.00023249,0.00314632,-0.00350620
 ,-0.00313982,0.00113450,0.00009848,0.00038538,0.02641910,0.00242448,0.
 00916084,-0.00098798,0.00047908,0.00128620,0.02287362,-0.05864047,-0.0
 0108438,-0.02558166,0.05645433,0.00000840,0.00000434,0.00000296,0.0000
 1232,0.00004939,-0.00006564,-0.00000353,-0.00001079,0.00000795,0.00000
 158,0.00000264,-0.00000499,0.00018053,0.00001650,0.00005439,0.00000144
 ,0.00000113,0.00000332,0.00039702,-0.00001218,-0.00059938,0.00000621,0
 .00003594,-0.00001439,-0.00000309,-0.00000034,0.00002013,0.00001643,0.
 00014885,-0.00000095,0.00029519,-0.00019587,-0.00088196,-0.00084245,-0
 .00296709,0.00613997,0.00016730,-0.00005138,0.00013490,0.00538491,-0.0
 0009383,0.00418300,0.00107202,0.00153338,-0.00276940,-0.08543467,-0.00
 114235,-0.06593394,0.09452118,0.00339095,0.05948085,0.00017458,0.00004
 473,0.00006316,-0.00007713,-0.00039470,-0.00038021,0.00003190,-0.00003
 886,-0.00000549,-0.00000025,0.00001479,-0.00001193,0.00034496,-0.00020
 578,0.00011514,-0.00003215,0.00000695,0.00002142,0.00612329,0.00403397
 ,0.00107715,-0.00029757,-0.00045371,0.00030530,0.00020101,0.00016862,-
 0.00030145,-0.00136805,-0.00123874,-0.00035662,-0.03244186,0.07278212,
 0.01460919,-0.04445548,-0.02310851,-0.02243803,-0.00062127,-0.00068740
 ,-0.00034447,0.05968602,-0.02248277,0.00932356,-0.00025635,0.00449811,
 -0.00097021,-0.16130638,-0.03007540,-0.04695512,-0.00933490,-0.0244679
 5,-0.01382428,0.62550601,-0.00001504,-0.00001847,0.00000917,-0.0000152
 3,0.00007755,-0.00022474,-0.00000611,-0.00002496,0.00002785,-0.0000034
 3,0.00000857,0.00000846,0.00013884,0.00024606,0.00013704,-0.00000940,-
 0.00001066,0.00003391,0.00159214,-0.00290875,-0.00298610,0.00008767,0.
 00019446,-0.00014333,0.00007326,0.00006734,-0.00001390,0.00178961,-0.0
 0142737,0.00112335,0.02806452,0.02012479,0.01424762,-0.02216006,-0.011
 76914,-0.00944118,-0.00061646,0.00029267,0.00007623,0.01865042,-0.0502
 7755,-0.01620578,0.00385889,-0.00228757,-0.00245871,-0.08786775,-0.237
 81162,-0.10162370,0.00295983,0.00601452,0.00246346,-0.09481634,0.64693
 643,0.00000121,0.00002546,-0.00001987,-0.00014801,-0.00052880,0.000209
 88,0.00001007,0.00004471,-0.00003935,-0.00000483,-0.00001500,0.0000361
 6,-0.00118375,-0.00023295,-0.00047680,-0.00004161,-0.00000625,-0.00001
 022,0.00059515,-0.00008837,0.00424213,-0.00004672,-0.00035111,0.000040
 74,0.00021811,0.00016027,-0.00039101,0.00077803,-0.00144553,0.00021727
 ,-0.00263902,0.02965627,0.02011127,-0.02196714,-0.00993364,-0.01966845
 ,-0.00035065,-0.00002797,-0.00052066,0.02599800,-0.03088957,0.00403040
 ,-0.00122485,-0.00219417,0.00612685,-0.07024211,-0.08193913,-0.1175583
 0,-0.00278171,-0.00686116,-0.00165745,0.13712913,0.17475873,0.24904226
 ,-0.00003527,-0.00001469,-0.00000402,0.00004846,-0.00003273,0.00011546
 ,-0.00000838,0.00001758,-0.00001195,0.00000484,-0.00000209,-0.00000486
 ,-0.00008096,-0.00003069,-0.00008141,-0.00000861,0.00000715,-0.0000174
 2,0.00078040,0.00068751,0.00043189,-0.00002060,-0.00002100,0.00001610,
 -0.00000248,0.00000333,0.00000877,-0.00072210,0.00057151,-0.00009929,-
 0.00436110,0.00029877,-0.00405883,-0.00063577,-0.00073436,-0.00031322,
 -0.00009416,-0.00004035,0.00032255,0.00009220,-0.00188517,-0.00320418,
 0.00034317,-0.00068633,-0.00019154,0.01099949,-0.01320756,-0.00230402,
 0.00039236,0.00001137,0.00140586,-0.12844122,0.12148364,0.01646207,0.1
 3254253,0.00002245,0.00000755,0.00000196,-0.00002802,0.00000983,-0.000
 04722,0.00000622,-0.00000703,0.00000462,-0.00000313,0.00000189,0.00000
 030,0.00004970,-0.00000316,0.00001176,0.00000627,0.00000006,0.00000616
 ,-0.00031235,0.00021922,-0.00025827,0.00000789,-0.00001062,0.00000238,
 0.00000877,0.00000147,0.00000425,-0.00002675,-0.00010699,0.00006155,0.
 00090589,0.00238356,-0.00170801,-0.00072948,0.00021730,0.00008591,-0.0
 0006876,-0.00014135,0.00037464,-0.00258569,-0.00121862,-0.00429943,0.0
 0072359,-0.00081099,-0.00011200,0.01414766,-0.01614382,-0.00249223,-0.
 00071914,0.00041473,0.00138293,0.12144143,-0.25406226,-0.04594697,-0.1
 3191783,0.26759318,-0.00000165,0.00000633,-0.00000336,0.00002700,-0.00
 001344,-0.00001135,-0.00000056,-0.00000205,0.00000134,0.00000049,-0.00
 000292,0.00000084,-0.00000044,-0.00005864,0.00001918,-0.00000569,-0.00
 000331,-0.00000040,-0.00011529,0.00005374,0.00049010,-0.00002306,-0.00
 000196,0.00004741,-0.00001608,-0.00001604,-0.00001566,-0.00002699,0.00
 029481,-0.00019380,-0.00386992,-0.00152700,0.00546208,-0.00052147,-0.0
 0002400,-0.00088247,0.00034064,0.00035282,-0.00087427,-0.00347197,-0.0
 0409948,0.00434730,0.00037439,-0.00066232,0.00007754,0.00888206,-0.011
 79897,0.00048256,0.00110793,0.00161052,-0.00257108,0.01624802,-0.04625
 032,-0.04832673,-0.01568844,0.05187018,0.04064467,-0.00030501,0.000035
 77,-0.00004836,0.00067098,0.00016654,0.00071607,-0.00003991,0.00007634
 ,-0.00003428,0.00001095,-0.00003010,-0.00002322,-0.00084859,-0.0005969
 2,-0.00000671,0.00003307,0.00000915,-0.00007572,-0.01570461,0.01632739
 ,0.00212808,-0.00065340,0.00032965,0.00007501,-0.00040543,0.00009864,0
 .00041155,-0.00538507,0.00529570,-0.00222075,-0.15424509,0.06672116,-0
 .00654208,0.05583378,0.01596632,0.02361037,-0.00113791,-0.00238542,-0.
 00316183,-0.04819238,0.02958815,-0.00279876,-0.00079100,0.00078846,0.0
 0006789,-0.02177512,-0.06653792,-0.03678285,0.00135561,-0.00130156,-0.
 00265183,-0.30483878,0.05179705,-0.06616634,-0.01149455,-0.00070394,-0
 .00483120,0.61633069,-0.00018001,0.00001872,-0.00001794,0.00016258,-0.
 00017666,0.00025323,-0.00004932,0.00005209,-0.00000786,0.00002873,-0.0
 0000881,-0.00001337,-0.00219641,-0.00098687,0.00017115,-0.00013920,0.0
 0002299,-0.00007297,0.01174502,0.00235059,0.00494604,-0.00016658,0.000
 13258,0.00032089,0.00042252,-0.00011312,-0.00033651,-0.00281856,0.0022
 0313,-0.00104754,0.10622917,-0.25868285,-0.04205787,-0.02116389,-0.047
 67856,-0.03170681,-0.00190218,-0.00154809,-0.00383184,0.03003591,-0.02
 114834,0.00523266,0.00072627,-0.00008110,0.00066068,-0.02413188,0.0379
 9999,0.00395523,-0.00177598,-0.00244913,-0.00461648,-0.00709154,-0.118
 76295,-0.02613956,0.02634101,0.00152268,0.00884407,-0.02872592,0.62052
 577,-0.00006022,-0.00010367,-0.00005575,0.00002193,-0.00011880,0.00056
 874,-0.00000530,0.00009250,-0.00009095,0.00001184,-0.00004236,0.000008
 80,0.00006481,0.00089206,-0.00058361,-0.00004309,0.00000351,-0.0000342
 5,-0.00076706,0.00663081,0.00383360,-0.00009689,-0.00031941,0.00043361
 ,-0.00013115,-0.00023278,0.00033784,-0.00445798,0.00240293,-0.00009996
 ,0.00997257,-0.05831803,-0.08426262,0.00926093,-0.01670754,0.00692148,
 -0.00316635,-0.00348957,0.00307376,-0.00332792,0.00558269,-0.00600635,
 0.00025725,0.00049686,-0.00034672,-0.02000077,-0.01133207,-0.00512587,
 -0.00280695,-0.00446540,0.00460149,-0.09035129,-0.00562376,-0.09412168
 ,0.00590999,-0.00052140,0.00404100,0.16232371,0.19235179,0.27185565,0.
 00003540,0.00001001,-0.00001691,-0.00006001,-0.00009335,-0.00000377,0.
 00001502,-0.00000134,-0.00000627,-0.00000282,-0.00000788,0.00000727,-0
 .00025435,0.00007174,0.00003972,-0.00002849,-0.00001250,0.00000425,0.0
 0028821,0.00042179,0.00154748,-0.00024750,0.00006495,0.00028873,0.0000
 2934,-0.00000877,-0.00007025,0.00008525,-0.00074209,-0.00033420,0.0117
 8749,0.01153537,0.00807204,-0.00083825,0.00358015,-0.00114400,0.000448
 04,0.00078536,0.00031745,-0.00078823,0.00065378,0.00017039,-0.00005014
 ,-0.00022035,0.00035606,-0.00433498,0.00248089,-0.00323430,-0.00048876
 ,-0.00115294,-0.00071056,-0.00859639,-0.02498605,-0.01439502,0.0007017
 5,-0.00022478,0.00159222,-0.10841825,-0.08534974,-0.06260808,0.1107176
 8,-0.00004853,0.00000741,-0.00001202,0.00009414,0.00005683,-0.00003252
 ,-0.00000644,-0.00000982,0.00001494,0.00000107,0.00000642,-0.00000387,
 0.00020588,-0.00037377,0.00023819,0.00000341,-0.00000285,-0.00000196,-
 0.00162572,0.00018242,-0.00041484,-0.00006566,0.00022453,-0.00006542,-
 0.00012230,0.00007384,-0.00002157,0.00016434,0.00008104,0.00057826,-0.
 01214913,-0.01705098,-0.01224368,0.00456934,-0.00262789,-0.00208452,-0
 .00090176,-0.00063683,-0.00072451,0.00070256,0.00005690,0.00050628,-0.
 00022660,-0.00016897,0.00040343,0.00167005,0.00245579,-0.00172593,0.00
 023625,0.00012639,0.00006081,0.00207096,0.00539893,0.00195473,-0.00084
 907,0.00013338,0.00142798,-0.08691854,-0.21319206,-0.10717835,0.093195
 76,0.22525931,-0.00005306,0.00001361,0.00000080,0.00007055,0.00038631,
 -0.00022287,-0.00002097,-0.00004801,0.00005665,0.00000189,0.00001764,-
 0.00002034,0.00041991,-0.00043397,0.00025974,0.00002236,-0.00001282,0.
 00001855,0.00090882,0.00015658,-0.00178514,0.00024838,0.00030388,-0.00
 028409,-0.00002560,0.00008856,0.00004620,-0.00016780,-0.00012684,-0.00
 016118,-0.00177622,-0.00340333,0.00019953,-0.00064823,-0.00206291,0.00
 517534,-0.00036036,-0.00019399,0.00031691,0.00018813,0.00051314,-0.000
 27518,0.00034813,0.00035933,-0.00102814,-0.00353662,-0.00125594,0.0056
 9502,-0.00011180,-0.00040340,-0.00012979,-0.00295296,-0.00791430,-0.00
 126645,0.00130647,0.00157888,-0.00273492,-0.06398876,-0.10688700,-0.10
 494820,0.07012773,0.11932457,0.10108756\\0.00000350,-0.00000049,0.0000
 0044,-0.00000264,-0.00000183,-0.00000184,-0.00000031,0.00000066,-0.000
 00008,-0.00000082,0.00000135,-0.00000086,0.00000365,0.00000989,0.00000
 372,0.00000021,-0.00000015,0.00000051,0.00001414,-0.00003108,-0.000003
 65,0.00000213,-0.00000079,0.00000011,-0.00000341,-0.00000247,0.0000019
 4,-0.00000746,0.00001866,0.00000159,-0.00000999,0.00002516,0.00000224,
 -0.00000538,-0.00001216,-0.00000205,0.00000335,0.00000323,-0.00000243,
 0.00000496,-0.00000101,0.00000052,-0.00000091,0.00000143,-0.00000164,0
 .00000101,0.00000453,0.00000159,-0.00000004,-0.00000013,0.00000024,-0.
 00000607,-0.00000366,-0.00000088,0.00000096,-0.00000028,0.00000122,0.0
 0000586,-0.00001240,-0.00000059,-0.00000275,0.00000152,-0.00000010\\\@


 HOW IS IT THAT THE SKY FEEDS THE STARS?

                           -- LUCRETIUS
 Job cpu time:       0 days  3 hours  9 minutes  8.7 seconds.
 Elapsed time:       0 days  0 hours 15 minutes 46.2 seconds.
 File lengths (MBytes):  RWF=    304 Int=      0 D2E=      0 Chk=     32 Scr=      1
 Normal termination of Gaussian 16 at Fri Jun 10 10:50:34 2022.
