 Entering Gaussian System, Link 0=g16
 Input=int_initalOptXYZ_aligned_sp.gjf
 Output=int_initalOptXYZ_aligned_sp.out
 Initial command:
 /software/gaussian/g16-a03/l1.exe "/local_scratch/11177243/Gau-20546.inp" -scrdir="/local_scratch/11177243/"
 Entering Link 1 = /software/gaussian/g16-a03/l1.exe PID=     20552.
  
 Copyright (c) 1988,1990,1992,1993,1995,1998,2003,2009,2016,
            Gaussian, Inc.  All Rights Reserved.
  
 This is part of the Gaussian(R) 16 program.  It is based on
 the Gaussian(R) 09 system (copyright 2009, Gaussian, Inc.),
 the Gaussian(R) 03 system (copyright 2003, Gaussian, Inc.),
 the Gaussian(R) 98 system (copyright 1998, Gaussian, Inc.),
 the Gaussian(R) 94 system (copyright 1995, Gaussian, Inc.),
 the Gaussian 92(TM) system (copyright 1992, Gaussian, Inc.),
 the Gaussian 90(TM) system (copyright 1990, Gaussian, Inc.),
 the Gaussian 88(TM) system (copyright 1988, Gaussian, Inc.),
 the Gaussian 86(TM) system (copyright 1986, Carnegie Mellon
 University), and the Gaussian 82(TM) system (copyright 1983,
 Carnegie Mellon University). Gaussian is a federally registered
 trademark of Gaussian, Inc.
  
 This software contains proprietary and confidential information,
 including trade secrets, belonging to Gaussian, Inc.
  
 This software is provided under written license and may be
 used, copied, transmitted, or stored only in accord with that
 written license.
  
 The following legend is applicable only to US Government
 contracts under FAR:
  
                    RESTRICTED RIGHTS LEGEND
  
 Use, reproduction and disclosure by the US Government is
 subject to restrictions as set forth in subparagraphs (a)
 and (c) of the Commercial Computer Software - Restricted
 Rights clause in FAR 52.227-19.
  
 Gaussian, Inc.
 340 Quinnipiac St., Bldg. 40, Wallingford CT 06492
  
  
 ---------------------------------------------------------------
 Warning -- This program may not be used in any manner that
 competes with the business of Gaussian, Inc. or will provide
 assistance to any competitor of Gaussian, Inc.  The licensee
 of this program is prohibited from giving any competitor of
 Gaussian, Inc. access to this program.  By using this program,
 the user acknowledges that Gaussian, Inc. is engaged in the
 business of creating and licensing software in the field of
 computational chemistry and represents and warrants to the
 licensee that it is not a competitor of Gaussian, Inc. and that
 it will not use this program in any manner prohibited above.
 ---------------------------------------------------------------
  

 Cite this work as:
 Gaussian 16, Revision A.03,
 M. J. Frisch, G. W. Trucks, H. B. Schlegel, G. E. Scuseria, 
 M. A. Robb, J. R. Cheeseman, G. Scalmani, V. Barone, 
 G. A. Petersson, H. Nakatsuji, X. Li, M. Caricato, A. V. Marenich, 
 J. Bloino, B. G. Janesko, R. Gomperts, B. Mennucci, H. P. Hratchian, 
 J. V. Ortiz, A. F. Izmaylov, J. L. Sonnenberg, D. Williams-Young, 
 F. Ding, F. Lipparini, F. Egidi, J. Goings, B. Peng, A. Petrone, 
 T. Henderson, D. Ranasinghe, V. G. Zakrzewski, J. Gao, N. Rega, 
 G. Zheng, W. Liang, M. Hada, M. Ehara, K. Toyota, R. Fukuda, 
 J. Hasegawa, M. Ishida, T. Nakajima, Y. Honda, O. Kitao, H. Nakai, 
 T. Vreven, K. Throssell, J. A. Montgomery, Jr., J. E. Peralta, 
 F. Ogliaro, M. J. Bearpark, J. J. Heyd, E. N. Brothers, K. N. Kudin, 
 V. N. Staroverov, T. A. Keith, R. Kobayashi, J. Normand, 
 K. Raghavachari, A. P. Rendell, J. C. Burant, S. S. Iyengar, 
 J. Tomasi, M. Cossi, J. M. Millam, M. Klene, C. Adamo, R. Cammi, 
 J. W. Ochterski, R. L. Martin, K. Morokuma, O. Farkas, 
 J. B. Foresman, and D. J. Fox, Gaussian, Inc., Wallingford CT, 2016.
 
 ******************************************
 Gaussian 16:  ES64L-G16RevA.03 25-Dec-2016
                12-Jun-2022 
 ******************************************
 %nprocshared=12
 Will use up to   12 processors via shared memory.
 %chk=checkpoint.chk
 %mem=12GB
 --------------------------
 # sp B3LYP/Def2TZVP NoSymm
 --------------------------
 1/38=1,172=1/1;
 2/12=2,15=1,17=6,18=5,40=1/2;
 3/5=44,7=101,11=2,25=1,30=1,74=-5/1,2,3;
 4//1;
 5/5=2,38=5/2;
 6/7=2,8=2,9=2,10=2,28=1/1;
 99/5=1,9=1/99;
 ----------------------------------
 int_initalOptXYZ_aligned_AlignedSp
 ----------------------------------
 Symbolic Z-matrix:
 Charge =  0 Multiplicity = 1
 6                    -1.42975  -1.07466   0.68819 
 6                     0.21413   2.3       1.17644 
 6                     1.30169   1.51914  -0.6841 
 6                     1.26445   1.55926   0.77908 
 1                     2.04597   0.99217  -1.26436 
 1                     1.97734   1.06572   1.42449 
 6                    -0.51209   2.81269  -0.03315 
 1                    -1.56474   2.50439  -0.05119 
 1                    -0.52433   3.90946  -0.06376 
 1                     0.0389    2.39785  -2.21585 
 1                    -0.07265   2.5204    2.19405 
 8                     0.08345  -1.90786  -2.28788 
 8                     0.26981  -1.96636   2.177 
 6                    -0.25555  -1.70506  -1.16552 
 6                    -0.16158  -1.73514   1.09241 
 1                    -2.24792  -0.66552  -1.29333 
 6                     0.2738    2.2351   -1.1744 
 6                    -1.4848   -1.05694  -0.6398 
 1                    -2.13516  -0.70107   1.41303 
 8                     0.51177  -2.09101  -0.07135 
 
                          Input orientation:                          
 ---------------------------------------------------------------------
 Center     Atomic      Atomic             Coordinates (Angstroms)
 Number     Number       Type             X           Y           Z
 ---------------------------------------------------------------------
      1          6           0       -1.429748   -1.074656    0.688189
      2          6           0        0.214131    2.299999    1.176437
      3          6           0        1.301689    1.519138   -0.684104
      4          6           0        1.264448    1.559259    0.779082
      5          1           0        2.045968    0.992170   -1.264360
      6          1           0        1.977340    1.065723    1.424493
      7          6           0       -0.512087    2.812687   -0.033152
      8          1           0       -1.564741    2.504390   -0.051188
      9          1           0       -0.524327    3.909464   -0.063761
     10          1           0        0.038895    2.397847   -2.215852
     11          1           0       -0.072646    2.520403    2.194053
     12          8           0        0.083451   -1.907857   -2.287884
     13          8           0        0.269808   -1.966356    2.177002
     14          6           0       -0.255545   -1.705062   -1.165516
     15          6           0       -0.161577   -1.735143    1.092407
     16          1           0       -2.247922   -0.665524   -1.293332
     17          6           0        0.273795    2.235096   -1.174400
     18          6           0       -1.484802   -1.056939   -0.639795
     19          1           0       -2.135162   -0.701070    1.413027
     20          8           0        0.511774   -2.091011   -0.071346
 ---------------------------------------------------------------------
                    Distance matrix (angstroms):
                    1          2          3          4          5
     1  C    0.000000
     2  C    3.785369   0.000000
     3  C    4.008953   2.292191   0.000000
     4  C    3.768881   1.345270   1.464210   0.000000
     5  H    4.490525   3.320171   1.080899   2.260093   0.000000
     6  H    4.090430   2.166535   2.260148   1.080902   2.690734
     7  C    4.058802   1.501115   2.320946   2.320966   3.372507
     8  H    3.657112   2.170996   3.096405   3.096277   4.098270
     9  H    5.121198   2.161895   3.071289   3.071411   4.069209
    10  H    4.759059   3.398221   2.170951   3.342879   2.628613
    11  H    4.127203   1.079982   3.342920   2.171120   4.334125
    12  O    3.441076   5.452032   3.974985   4.777230   3.648182
    13  O    2.429029   4.382467   4.625946   3.920899   4.873458
    14  C    2.283065   4.663245   3.612783   4.092387   3.547082
    15  C    1.485898   4.053466   3.985911   3.603443   4.226800
    16  H    2.182481   4.577750   4.212321   4.645568   4.602856
    17  C    4.162422   2.352489   1.345196   2.292213   2.166461
    18  C    1.329243   4.177811   3.795085   4.051676   4.129802
    19  H    1.078223   3.818582   4.597741   4.131383   5.245695
    20  O    2.319349   4.574552   3.746013   3.822855   3.644590
                    6          7          8          9         10
     6  H    0.000000
     7  C    3.372515   0.000000
     8  H    4.098016   1.097020   0.000000
     9  H    4.069410   1.097272   1.748386   0.000000
    10  H    4.334078   2.289072   2.696066   2.689554   0.000000
    11  H    2.628832   2.288882   2.695869   2.689095   4.413018
    12  O    5.119642   5.265170   5.214141   6.257583   4.306537
    13  O    3.560258   5.323100   5.321463   6.338527   6.196512
    14  C    4.401269   4.664560   4.547000   5.727915   4.245440
    15  C    3.539788   4.698138   4.609807   5.773205   5.297771
    16  H    5.313815   4.086457   3.472465   5.041145   3.932533
    17  C    3.320202   1.501222   2.171253   2.161950   1.079948
    18  C    4.555591   4.035864   3.610528   5.091118   4.091596
    19  H    4.475976   4.131863   3.569913   5.102227   5.243908
    20  O    3.788191   5.009591   5.042820   6.089274   4.997236
                   11         12         13         14         15
    11  H    0.000000
    12  O    6.302508   0.000000
    13  O    4.499841   4.469156   0.000000
    14  C    5.401362   1.189855   3.393626   0.000000
    15  C    4.396727   3.393558   1.189915   2.260078   0.000000
    16  H    5.200366   2.822734   4.480440   2.250898   3.344947
    17  C    3.398220   4.294198   5.374394   3.975566   4.592468
    18  C    4.777264   2.428925   3.440936   1.485772   2.282851
    19  H    3.904083   4.480549   2.822851   3.345122   2.251031
    20  O    5.170949   2.264961   2.264764   1.391022   1.390814
                   16         17         18         19         20
    16  H    0.000000
    17  C    3.845361   0.000000
    18  C    1.078271   3.770406   0.000000
    19  H    2.708940   4.595533   2.182588   0.000000
    20  O    3.337841   4.470857   2.319214   3.337899   0.000000
 Symmetry turned off by external request.
 Stoichiometry    C9H8O3
 Framework group  C1[X(C9H8O3)]
 Deg. of freedom    54
 Full point group                 C1      NOp   1
 Rotational constants (GHZ):           1.3367591           0.7031176           0.5815111
 Standard basis: def2TZVP (5D, 7F)
   420 basis functions,   676 primitive gaussians,   480 cartesian basis functions
    43 alpha electrons       43 beta electrons
       nuclear repulsion energy       652.4377317848 Hartrees.
 NAtoms=   20 NActive=   20 NUniq=   20 SFac= 1.00D+00 NAtFMM=   60 NAOKFM=F Big=F
 Integral buffers will be    131072 words long.
 Raffenetti 2 integral format.
 Two-electron integral symmetry is turned off.
 One-electron integrals computed using PRISM.
   1 Symmetry operations used in ECPInt.
 ECPInt:  NShTT=   13530 NPrTT=   41904 LenC2=   12937 LenP2D=   30386.
 LDataN:  DoStor=T MaxTD1= 6 Len=  172
 NBasis=   420 RedAO= T EigKep=  4.30D-05  NBF=   420
 NBsUse=   420 1.00D-06 EigRej= -1.00D+00 NBFU=   420
 ExpMin= 9.52D-02 ExpMax= 2.70D+04 ExpMxC= 9.22D+02 IAcc=3 IRadAn=         5 AccDes= 0.00D+00
 Harris functional with IExCor=  402 and IRadAn=       5 diagonalized for initial guess.
 HarFok:  IExCor=  402 AccDes= 0.00D+00 IRadAn=         5 IDoV= 1 UseB2=F ITyADJ=14
 ICtDFT=  3500011 ScaDFX=  1.000000  1.000000  1.000000  1.000000
 FoFCou: FMM=F IPFlag=           0 FMFlag=      100000 FMFlg1=           0
         NFxFlg=           0 DoJE=T BraDBF=F KetDBF=T FulRan=T
         wScrn=  0.000000 ICntrl=       500 IOpCl=  0 I1Cent=   200000004 NGrid=           0
         NMat0=    1 NMatS0=      1 NMatT0=    0 NMatD0=    1 NMtDS0=    0 NMtDT0=    0
 Symmetry not used in FoFCou.
 Requested convergence on RMS density matrix=1.00D-08 within 128 cycles.
 Requested convergence on MAX density matrix=1.00D-06.
 Requested convergence on             energy=1.00D-06.
 No special actions if energy rises.
 Integral accuracy reduced to 1.0D-05 until final iterations.
 Initial convergence to 1.0D-05 achieved.  Increase integral accuracy.
 SCF Done:  E(RB3LYP) =  -573.628846595     A.U. after   14 cycles
            NFock= 14  Conv=0.58D-08     -V/T= 2.0047

 **********************************************************************

            Population analysis using the SCF density.

 **********************************************************************

 Alpha  occ. eigenvalues --  -19.20454 -19.15296 -19.15292 -10.33543 -10.33538
 Alpha  occ. eigenvalues --  -10.23795 -10.23703 -10.19006 -10.18050 -10.18032
 Alpha  occ. eigenvalues --  -10.17955 -10.17923  -1.15447  -1.09390  -1.05474
 Alpha  occ. eigenvalues --   -0.87100  -0.85815  -0.71844  -0.71735  -0.70930
 Alpha  occ. eigenvalues --   -0.64481  -0.60760  -0.56495  -0.54230  -0.52809
 Alpha  occ. eigenvalues --   -0.52642  -0.51311  -0.49058  -0.47664  -0.45556
 Alpha  occ. eigenvalues --   -0.45182  -0.43253  -0.42440  -0.41139  -0.39047
 Alpha  occ. eigenvalues --   -0.37323  -0.37307  -0.35219  -0.33619  -0.33256
 Alpha  occ. eigenvalues --   -0.31633  -0.30457  -0.23742
 Alpha virt. eigenvalues --   -0.11802  -0.03900   0.01386   0.02369   0.03636
 Alpha virt. eigenvalues --    0.05486   0.05643   0.06092   0.06394   0.07498
 Alpha virt. eigenvalues --    0.08937   0.09647   0.10008   0.10168   0.12722
 Alpha virt. eigenvalues --    0.13279   0.13811   0.16026   0.17586   0.17991
 Alpha virt. eigenvalues --    0.18007   0.18524   0.19532   0.20928   0.21835
 Alpha virt. eigenvalues --    0.22480   0.23320   0.24363   0.25310   0.25687
 Alpha virt. eigenvalues --    0.26177   0.28554   0.28672   0.31475   0.31836
 Alpha virt. eigenvalues --    0.32145   0.32665   0.33600   0.34700   0.35167
 Alpha virt. eigenvalues --    0.35515   0.36457   0.36701   0.38096   0.39250
 Alpha virt. eigenvalues --    0.40127   0.40424   0.41629   0.41817   0.42096
 Alpha virt. eigenvalues --    0.42220   0.43849   0.45022   0.45729   0.46523
 Alpha virt. eigenvalues --    0.47414   0.48051   0.49926   0.50123   0.50601
 Alpha virt. eigenvalues --    0.52651   0.53064   0.54083   0.54835   0.57316
 Alpha virt. eigenvalues --    0.57812   0.58929   0.59341   0.59803   0.60616
 Alpha virt. eigenvalues --    0.63204   0.64167   0.64759   0.65585   0.65834
 Alpha virt. eigenvalues --    0.69226   0.69256   0.70345   0.70828   0.71349
 Alpha virt. eigenvalues --    0.73765   0.75656   0.77899   0.82111   0.84063
 Alpha virt. eigenvalues --    0.85201   0.85748   0.88721   0.88840   0.89925
 Alpha virt. eigenvalues --    0.94517   0.94716   0.95656   0.96592   0.96866
 Alpha virt. eigenvalues --    0.96997   0.98594   1.00451   1.01950   1.02218
 Alpha virt. eigenvalues --    1.02500   1.03275   1.08348   1.08674   1.09552
 Alpha virt. eigenvalues --    1.10912   1.12422   1.13719   1.14527   1.15868
 Alpha virt. eigenvalues --    1.17386   1.18769   1.21275   1.22859   1.24905
 Alpha virt. eigenvalues --    1.27057   1.28248   1.29629   1.30825   1.32642
 Alpha virt. eigenvalues --    1.33684   1.34117   1.36091   1.36435   1.38153
 Alpha virt. eigenvalues --    1.41172   1.41729   1.43059   1.44156   1.46764
 Alpha virt. eigenvalues --    1.47326   1.49686   1.49825   1.51186   1.52015
 Alpha virt. eigenvalues --    1.54622   1.55607   1.58434   1.58569   1.59298
 Alpha virt. eigenvalues --    1.61585   1.62727   1.64610   1.66230   1.68059
 Alpha virt. eigenvalues --    1.69738   1.72778   1.75101   1.75424   1.75655
 Alpha virt. eigenvalues --    1.76525   1.82121   1.83903   1.87256   1.87719
 Alpha virt. eigenvalues --    1.88460   1.90360   1.91942   1.92688   1.94281
 Alpha virt. eigenvalues --    1.95983   1.96753   1.97889   1.98093   2.00131
 Alpha virt. eigenvalues --    2.00396   2.03231   2.05064   2.05523   2.08172
 Alpha virt. eigenvalues --    2.11039   2.12766   2.15652   2.17157   2.17507
 Alpha virt. eigenvalues --    2.18429   2.19326   2.21236   2.21707   2.23993
 Alpha virt. eigenvalues --    2.26877   2.28210   2.28681   2.30531   2.32217
 Alpha virt. eigenvalues --    2.32996   2.39494   2.42102   2.42526   2.43273
 Alpha virt. eigenvalues --    2.46187   2.47805   2.51302   2.53237   2.53714
 Alpha virt. eigenvalues --    2.54064   2.58228   2.60198   2.60672   2.61237
 Alpha virt. eigenvalues --    2.63255   2.63308   2.64475   2.65628   2.66163
 Alpha virt. eigenvalues --    2.66762   2.68277   2.69380   2.69938   2.71942
 Alpha virt. eigenvalues --    2.72680   2.77123   2.77490   2.78268   2.78690
 Alpha virt. eigenvalues --    2.79103   2.81352   2.81854   2.83932   2.85252
 Alpha virt. eigenvalues --    2.87238   2.88702   2.90854   2.92563   2.94262
 Alpha virt. eigenvalues --    2.96447   2.97217   2.97288   2.98275   2.98959
 Alpha virt. eigenvalues --    2.99231   3.00417   3.00607   3.04636   3.05070
 Alpha virt. eigenvalues --    3.06792   3.07400   3.08412   3.09424   3.09864
 Alpha virt. eigenvalues --    3.10737   3.11332   3.13743   3.14826   3.15752
 Alpha virt. eigenvalues --    3.16005   3.16793   3.18181   3.19443   3.20355
 Alpha virt. eigenvalues --    3.23115   3.24155   3.25057   3.26076   3.28114
 Alpha virt. eigenvalues --    3.29392   3.30435   3.30708   3.31407   3.32009
 Alpha virt. eigenvalues --    3.33339   3.34353   3.37493   3.39243   3.41155
 Alpha virt. eigenvalues --    3.43059   3.45472   3.47305   3.47387   3.48123
 Alpha virt. eigenvalues --    3.48702   3.50487   3.53464   3.54057   3.58056
 Alpha virt. eigenvalues --    3.58590   3.59108   3.61899   3.62088   3.62498
 Alpha virt. eigenvalues --    3.69386   3.71400   3.82155   3.84075   3.86085
 Alpha virt. eigenvalues --    3.89044   3.89805   3.96909   3.98530   4.00249
 Alpha virt. eigenvalues --    4.04613   4.05033   4.05368   4.05625   4.08785
 Alpha virt. eigenvalues --    4.08834   4.10127   4.12740   4.16423   4.18696
 Alpha virt. eigenvalues --    4.23427   4.24083   4.28403   4.32416   4.32904
 Alpha virt. eigenvalues --    4.36831   4.37276   4.40384   4.41785   4.47175
 Alpha virt. eigenvalues --    4.50831   4.54213   4.56130   4.56183   4.61465
 Alpha virt. eigenvalues --    4.62903   4.68150   4.72575   4.72974   4.73220
 Alpha virt. eigenvalues --    4.82244   4.84148   4.85419   4.88230   5.01857
 Alpha virt. eigenvalues --    5.07684   5.12673   5.14945   5.16840   5.17640
 Alpha virt. eigenvalues --    5.18406   5.21706   5.21809   5.30931   5.36726
 Alpha virt. eigenvalues --    5.46132   5.57711   5.59725   5.63940   5.73920
 Alpha virt. eigenvalues --    5.73962   5.90294   6.10172   6.16254   6.17081
 Alpha virt. eigenvalues --    6.21080   6.32032   6.32779   6.34292   6.42499
 Alpha virt. eigenvalues --    6.46862   6.53233   6.63601   6.65598   6.75610
 Alpha virt. eigenvalues --    6.75907   6.77972   6.78656   6.92585   7.03270
 Alpha virt. eigenvalues --    7.03916   7.11411   7.13753   7.24656   7.42772
 Alpha virt. eigenvalues --   22.00852  22.23581  22.38339  22.48390  22.73959
 Alpha virt. eigenvalues --   22.77780  22.84672  22.97053  23.52764  43.86993
 Alpha virt. eigenvalues --   43.89192  44.06991
          Condensed to atoms (all electrons):
               1          2          3          4          5          6
     1  C    5.533590  -0.013419   0.003907   0.001338  -0.000197   0.000416
     2  C   -0.013419   5.075604  -0.060037   0.598778   0.004580  -0.031752
     3  C    0.003907  -0.060037   4.952177   0.364730   0.411624  -0.038764
     4  C    0.001338   0.598778   0.364730   4.943425  -0.038058   0.411939
     5  H   -0.000197   0.004580   0.411624  -0.038058   0.518741  -0.000492
     6  H    0.000416  -0.031752  -0.038764   0.411939  -0.000492   0.518542
     7  C   -0.000171   0.359872  -0.081686  -0.084823   0.008812   0.008634
     8  H    0.000086  -0.025855   0.000150  -0.000346  -0.000308  -0.000294
     9  H    0.000069  -0.026889   0.003263   0.002885  -0.000297  -0.000311
    10  H    0.000083   0.007649  -0.030898   0.005103  -0.003983  -0.000213
    11  H   -0.000530   0.417319   0.005122  -0.031052  -0.000215  -0.003925
    12  O    0.007685   0.000114  -0.002975   0.000127   0.000574   0.000004
    13  O   -0.089184   0.000116  -0.000518  -0.001830  -0.000010   0.000949
    14  C    0.013069  -0.001300   0.001355  -0.000851   0.000969  -0.000078
    15  C    0.248053   0.004594  -0.003538   0.002987  -0.000215   0.000925
    16  H   -0.015143  -0.000359  -0.000072   0.000070  -0.000034   0.000003
    17  C    0.004348  -0.120260   0.590642  -0.056133  -0.032086   0.004942
    18  C    0.169739   0.003837   0.004693   0.000035   0.000596  -0.000303
    19  H    0.380227   0.001254  -0.000017   0.000328   0.000001  -0.000022
    20  O   -0.110425  -0.000400   0.004029  -0.000148   0.000064  -0.000246
               7          8          9         10         11         12
     1  C   -0.000171   0.000086   0.000069   0.000083  -0.000530   0.007685
     2  C    0.359872  -0.025855  -0.026889   0.007649   0.417319   0.000114
     3  C   -0.081686   0.000150   0.003263  -0.030898   0.005122  -0.002975
     4  C   -0.084823  -0.000346   0.002885   0.005103  -0.031052   0.000127
     5  H    0.008812  -0.000308  -0.000297  -0.003983  -0.000215   0.000574
     6  H    0.008634  -0.000294  -0.000311  -0.000213  -0.003925   0.000004
     7  C    4.824271   0.386418   0.391277  -0.046326  -0.045533  -0.000100
     8  H    0.386418   0.600063  -0.033698   0.000242   0.000271   0.000005
     9  H    0.391277  -0.033698   0.571667  -0.000072  -0.000083  -0.000001
    10  H   -0.046326   0.000242  -0.000072   0.529237  -0.000062   0.000145
    11  H   -0.045533   0.000271  -0.000083  -0.000062   0.530590   0.000000
    12  O   -0.000100   0.000005  -0.000001   0.000145   0.000000   7.677172
    13  O   -0.000087   0.000003  -0.000001   0.000001   0.000058  -0.000165
    14  C   -0.000333   0.000112  -0.000018   0.000171   0.000021   0.708284
    15  C    0.000001   0.000294  -0.000027   0.000030   0.000110   0.000713
    16  H   -0.000041   0.000167   0.000001   0.000113  -0.000005   0.002722
    17  C    0.359610  -0.027027  -0.027210   0.417974   0.007476   0.000729
    18  C    0.001252   0.000894   0.000020  -0.000689   0.000050  -0.088773
    19  H   -0.000064   0.000053   0.000004  -0.000005   0.000101  -0.000118
    20  O    0.000320  -0.000029   0.000001   0.000006   0.000006  -0.080183
              13         14         15         16         17         18
     1  C   -0.089184   0.013069   0.248053  -0.015143   0.004348   0.169739
     2  C    0.000116  -0.001300   0.004594  -0.000359  -0.120260   0.003837
     3  C   -0.000518   0.001355  -0.003538  -0.000072   0.590642   0.004693
     4  C   -0.001830  -0.000851   0.002987   0.000070  -0.056133   0.000035
     5  H   -0.000010   0.000969  -0.000215  -0.000034  -0.032086   0.000596
     6  H    0.000949  -0.000078   0.000925   0.000003   0.004942  -0.000303
     7  C   -0.000087  -0.000333   0.000001  -0.000041   0.359610   0.001252
     8  H    0.000003   0.000112   0.000294   0.000167  -0.027027   0.000894
     9  H   -0.000001  -0.000018  -0.000027   0.000001  -0.027210   0.000020
    10  H    0.000001   0.000171   0.000030   0.000113   0.417974  -0.000689
    11  H    0.000058   0.000021   0.000110  -0.000005   0.007476   0.000050
    12  O   -0.000165   0.708284   0.000713   0.002722   0.000729  -0.088773
    13  O    7.678353   0.001023   0.708086  -0.000120   0.000227   0.007681
    14  C    0.001023   4.467814  -0.048231  -0.016460   0.005341   0.245325
    15  C    0.708086  -0.048231   4.460686   0.003560  -0.001692   0.011645
    16  H   -0.000120  -0.016460   0.003560   0.491939   0.000822   0.380980
    17  C    0.000227   0.005341  -0.001692   0.000822   5.078008  -0.015969
    18  C    0.007681   0.245325   0.011645   0.380980  -0.015969   5.535352
    19  H    0.002619   0.003513  -0.016183  -0.002233  -0.000422  -0.014518
    20  O   -0.080571   0.313195   0.319752   0.003202  -0.001167  -0.106812
              19         20
     1  C    0.380227  -0.110425
     2  C    0.001254  -0.000400
     3  C   -0.000017   0.004029
     4  C    0.000328  -0.000148
     5  H    0.000001   0.000064
     6  H   -0.000022  -0.000246
     7  C   -0.000064   0.000320
     8  H    0.000053  -0.000029
     9  H    0.000004   0.000001
    10  H   -0.000005   0.000006
    11  H    0.000101   0.000006
    12  O   -0.000118  -0.080183
    13  O    0.002619  -0.080571
    14  C    0.003513   0.313195
    15  C   -0.016183   0.319752
    16  H   -0.002233   0.003202
    17  C   -0.000422  -0.001167
    18  C   -0.014518  -0.106812
    19  H    0.491743   0.003174
    20  O    0.003174   7.947420
 Mulliken charges:
               1
     1  C   -0.133540
     2  C   -0.193447
     3  C   -0.123188
     4  C   -0.118503
     5  H    0.129936
     6  H    0.130045
     7  C   -0.081304
     8  H    0.098799
     9  H    0.119419
    10  H    0.121493
    11  H    0.120282
    12  O   -0.225962
    13  O   -0.226632
    14  C    0.307081
    15  C    0.308447
    16  H    0.150888
    17  C   -0.188154
    18  C   -0.135038
    19  H    0.150567
    20  O   -0.211190
 Sum of Mulliken charges =  -0.00000
 Mulliken charges with hydrogens summed into heavy atoms:
               1
     1  C    0.017027
     2  C   -0.073164
     3  C    0.006748
     4  C    0.011542
     7  C    0.136914
    12  O   -0.225962
    13  O   -0.226632
    14  C    0.307081
    15  C    0.308447
    17  C   -0.066661
    18  C    0.015850
    20  O   -0.211190
 Electronic spatial extent (au):  <R**2>=           2053.0378
 Charge=             -0.0000 electrons
 Dipole moment (field-independent basis, Debye):
    X=             -3.6431    Y=              2.8032    Z=              0.1641  Tot=              4.5996
 Quadrupole moment (field-independent basis, Debye-Ang):
   XX=            -63.4672   YY=            -73.4233   ZZ=            -77.5145
   XY=              2.0880   XZ=             -0.4133   YZ=             -0.2446
 Traceless Quadrupole moment (field-independent basis, Debye-Ang):
   XX=              8.0011   YY=             -1.9550   ZZ=             -6.0461
   XY=              2.0880   XZ=             -0.4133   YZ=             -0.2446
 Octapole moment (field-independent basis, Debye-Ang**2):
  XXX=             -5.2384  YYY=             10.7890  ZZZ=              4.8483  XYY=            -18.1834
  XXY=             -4.8293  XXZ=              0.4302  XZZ=             -6.6211  YZZ=             26.3192
  YYZ=              0.5122  XYZ=              0.9556
 Hexadecapole moment (field-independent basis, Debye-Ang**3):
 XXXX=           -389.0098 YYYY=          -1583.0674 ZZZZ=           -765.2270 XXXY=            -91.4506
 XXXZ=             -6.6898 YYYX=           -105.4166 YYYZ=             -6.9816 ZZZX=            -11.7785
 ZZZY=            -10.3397 XXYY=           -353.8161 XXZZ=           -170.9648 YYZZ=           -423.7097
 XXYZ=             -1.3843 YYXZ=             -4.7012 ZZXY=            -22.0314
 N-N= 6.524377317848D+02 E-N=-2.644267146364D+03  KE= 5.709325645679D+02
 1\1\GINC-BHC0011\SP\RB3LYP\def2TZVP\C9H8O3\DHANAWAY\12-Jun-2022\0\\# s
 p B3LYP/Def2TZVP NoSymm\\int_initalOptXYZ_aligned_AlignedSp\\0,1\C,0,-
 1.429748,-1.074656,0.688189\C,0,0.214131,2.299999,1.176437\C,0,1.30168
 9,1.519138,-0.684104\C,0,1.264448,1.559259,0.779082\H,0,2.045968,0.992
 17,-1.26436\H,0,1.97734,1.065723,1.424493\C,0,-0.512087,2.812687,-0.03
 3152\H,0,-1.564741,2.50439,-0.051188\H,0,-0.524327,3.909464,-0.063761\
 H,0,0.038895,2.397847,-2.215852\H,0,-0.072646,2.520403,2.194053\O,0,0.
 083451,-1.907857,-2.287884\O,0,0.269808,-1.966356,2.177002\C,0,-0.2555
 45,-1.705062,-1.165516\C,0,-0.161577,-1.735143,1.092407\H,0,-2.247922,
 -0.665524,-1.293332\C,0,0.273795,2.235096,-1.1744\C,0,-1.484802,-1.056
 939,-0.639795\H,0,-2.135162,-0.70107,1.413027\O,0,0.511774,-2.091011,-
 0.071346\\Version=ES64L-G16RevA.03\HF=-573.6288466\RMSD=5.757e-09\Dipo
 le=-1.4332874,1.1028449,0.0645461\Quadrupole=5.9486332,-1.4534794,-4.4
 951537,1.552407,-0.307253,-0.1818887\PG=C01 [X(C9H8O3)]\\@


 IT IS NOT EASY TO DESCRIBE
     THE SEA WITH THE MOUTH

                   -- KOKYU
 Job cpu time:       0 days  0 hours 24 minutes  3.8 seconds.
 Elapsed time:       0 days  0 hours  2 minutes  4.5 seconds.
 File lengths (MBytes):  RWF=     98 Int=      0 D2E=      0 Chk=     32 Scr=      1
 Normal termination of Gaussian 16 at Sun Jun 12 01:13:53 2022.
