 Entering Gaussian System, Link 0=g16
 Input=ts_initalOptXYZ_aligned_sp.gjf
 Output=ts_initalOptXYZ_aligned_sp.out
 Initial command:
 /software/gaussian/g16-a03/l1.exe "/local_scratch/11171196/Gau-6898.inp" -scrdir="/local_scratch/11171196/"
 Entering Link 1 = /software/gaussian/g16-a03/l1.exe PID=      6899.
  
 Copyright (c) 1988,1990,1992,1993,1995,1998,2003,2009,2016,
            Gaussian, Inc.  All Rights Reserved.
  
 This is part of the Gaussian(R) 16 program.  It is based on
 the Gaussian(R) 09 system (copyright 2009, Gaussian, Inc.),
 the Gaussian(R) 03 system (copyright 2003, Gaussian, Inc.),
 the Gaussian(R) 98 system (copyright 1998, Gaussian, Inc.),
 the Gaussian(R) 94 system (copyright 1995, Gaussian, Inc.),
 the Gaussian 92(TM) system (copyright 1992, Gaussian, Inc.),
 the Gaussian 90(TM) system (copyright 1990, Gaussian, Inc.),
 the Gaussian 88(TM) system (copyright 1988, Gaussian, Inc.),
 the Gaussian 86(TM) system (copyright 1986, Carnegie Mellon
 University), and the Gaussian 82(TM) system (copyright 1983,
 Carnegie Mellon University). Gaussian is a federally registered
 trademark of Gaussian, Inc.
  
 This software contains proprietary and confidential information,
 including trade secrets, belonging to Gaussian, Inc.
  
 This software is provided under written license and may be
 used, copied, transmitted, or stored only in accord with that
 written license.
  
 The following legend is applicable only to US Government
 contracts under FAR:
  
                    RESTRICTED RIGHTS LEGEND
  
 Use, reproduction and disclosure by the US Government is
 subject to restrictions as set forth in subparagraphs (a)
 and (c) of the Commercial Computer Software - Restricted
 Rights clause in FAR 52.227-19.
  
 Gaussian, Inc.
 340 Quinnipiac St., Bldg. 40, Wallingford CT 06492
  
  
 ---------------------------------------------------------------
 Warning -- This program may not be used in any manner that
 competes with the business of Gaussian, Inc. or will provide
 assistance to any competitor of Gaussian, Inc.  The licensee
 of this program is prohibited from giving any competitor of
 Gaussian, Inc. access to this program.  By using this program,
 the user acknowledges that Gaussian, Inc. is engaged in the
 business of creating and licensing software in the field of
 computational chemistry and represents and warrants to the
 licensee that it is not a competitor of Gaussian, Inc. and that
 it will not use this program in any manner prohibited above.
 ---------------------------------------------------------------
  

 Cite this work as:
 Gaussian 16, Revision A.03,
 M. J. Frisch, G. W. Trucks, H. B. Schlegel, G. E. Scuseria, 
 M. A. Robb, J. R. Cheeseman, G. Scalmani, V. Barone, 
 G. A. Petersson, H. Nakatsuji, X. Li, M. Caricato, A. V. Marenich, 
 J. Bloino, B. G. Janesko, R. Gomperts, B. Mennucci, H. P. Hratchian, 
 J. V. Ortiz, A. F. Izmaylov, J. L. Sonnenberg, D. Williams-Young, 
 F. Ding, F. Lipparini, F. Egidi, J. Goings, B. Peng, A. Petrone, 
 T. Henderson, D. Ranasinghe, V. G. Zakrzewski, J. Gao, N. Rega, 
 G. Zheng, W. Liang, M. Hada, M. Ehara, K. Toyota, R. Fukuda, 
 J. Hasegawa, M. Ishida, T. Nakajima, Y. Honda, O. Kitao, H. Nakai, 
 T. Vreven, K. Throssell, J. A. Montgomery, Jr., J. E. Peralta, 
 F. Ogliaro, M. J. Bearpark, J. J. Heyd, E. N. Brothers, K. N. Kudin, 
 V. N. Staroverov, T. A. Keith, R. Kobayashi, J. Normand, 
 K. Raghavachari, A. P. Rendell, J. C. Burant, S. S. Iyengar, 
 J. Tomasi, M. Cossi, J. M. Millam, M. Klene, C. Adamo, R. Cammi, 
 J. W. Ochterski, R. L. Martin, K. Morokuma, O. Farkas, 
 J. B. Foresman, and D. J. Fox, Gaussian, Inc., Wallingford CT, 2016.
 
 ******************************************
 Gaussian 16:  ES64L-G16RevA.03 25-Dec-2016
                10-Jun-2022 
 ******************************************
 %nprocshared=12
 Will use up to   12 processors via shared memory.
 %chk=checkpoint.chk
 %mem=12GB
 --------------------------
 # sp B3LYP/Def2TZVP NoSymm
 --------------------------
 1/38=1,172=1/1;
 2/12=2,15=1,17=6,18=5,40=1/2;
 3/5=44,7=101,11=2,25=1,30=1,74=-5/1,2,3;
 4//1;
 5/5=2,38=5/2;
 6/7=2,8=2,9=2,10=2,28=1/1;
 99/5=1,9=1/99;
 ---------------------------------
 ts_initalOptXYZ_aligned_AlignedSp
 ---------------------------------
 Symbolic Z-matrix:
 Charge =  0 Multiplicity = 1
 6                     0.55614   1.06493   0.0049 
 6                    -0.82208   0.87241  -0.00412 
 6                    -1.05491  -0.50344  -0.01586 
 7                     0.09076  -1.21435  -0.08037 
 6                     1.13906  -0.20821  -0.02102 
 1                     2.14709  -0.49925  -0.27404 
 1                     1.08488   2.00475   0.02358 
 1                    -1.57713   1.64355   0.02465 
 1                    -2.00185  -1.0177    0.05247 
 1                     0.80251  -0.98507   0.95249 
 
                          Input orientation:                          
 ---------------------------------------------------------------------
 Center     Atomic      Atomic             Coordinates (Angstroms)
 Number     Number       Type             X           Y           Z
 ---------------------------------------------------------------------
      1          6           0        0.556135    1.064926    0.004904
      2          6           0       -0.822083    0.872407   -0.004122
      3          6           0       -1.054914   -0.503437   -0.015857
      4          7           0        0.090759   -1.214346   -0.080367
      5          6           0        1.139062   -0.208206   -0.021020
      6          1           0        2.147087   -0.499251   -0.274042
      7          1           0        1.084881    2.004755    0.023577
      8          1           0       -1.577130    1.643546    0.024648
      9          1           0       -2.001850   -1.017695    0.052466
     10          1           0        0.802505   -0.985074    0.952486
 ---------------------------------------------------------------------
                    Distance matrix (angstroms):
                    1          2          3          4          5
     1  C    0.000000
     2  C    1.391629   0.000000
     3  C    2.248482   1.395455   0.000000
     4  N    2.327859   2.278954   1.349859   0.000000
     5  C    1.400479   2.239219   2.213757   1.454228   0.000000
     6  H    2.248464   3.281809   3.212396   2.185716   1.079278
     7  H    1.078517   2.217993   3.297166   3.370711   2.214073
     8  H    2.210432   1.079620   2.209952   3.310654   3.287669
     9  H    3.298918   2.228797   1.079730   2.106022   3.244380
    10  H    2.271808   2.646624   2.149341   1.275121   1.290158
                    6          7          8          9         10
     6  H    0.000000
     7  H    2.736221   0.000000
     8  H    4.307039   2.686406   0.000000
     9  H    4.193933   4.320179   2.695063   0.000000
    10  H    1.883692   3.143515   3.665132   2.945421   0.000000
 Symmetry turned off by external request.
 Stoichiometry    C4H5N
 Framework group  C1[X(C4H5N)]
 Deg. of freedom    24
 Full point group                 C1      NOp   1
 Rotational constants (GHZ):           9.1999104           8.8525117           4.5996332
 Standard basis: def2TZVP (5D, 7F)
   185 basis functions,   295 primitive gaussians,   210 cartesian basis functions
    18 alpha electrons       18 beta electrons
       nuclear repulsion energy       160.5895359142 Hartrees.
 NAtoms=   10 NActive=   10 NUniq=   10 SFac= 1.00D+00 NAtFMM=   60 NAOKFM=F Big=F
 Integral buffers will be    131072 words long.
 Raffenetti 2 integral format.
 Two-electron integral symmetry is turned off.
 One-electron integrals computed using PRISM.
   1 Symmetry operations used in ECPInt.
 ECPInt:  NShTT=    2850 NPrTT=    8640 LenC2=    2843 LenP2D=    7477.
 LDataN:  DoStor=T MaxTD1= 6 Len=  172
 NBasis=   185 RedAO= T EigKep=  5.73D-05  NBF=   185
 NBsUse=   185 1.00D-06 EigRej= -1.00D+00 NBFU=   185
 ExpMin= 9.52D-02 ExpMax= 1.97D+04 ExpMxC= 6.73D+02 IAcc=3 IRadAn=         5 AccDes= 0.00D+00
 Harris functional with IExCor=  402 and IRadAn=       5 diagonalized for initial guess.
 HarFok:  IExCor=  402 AccDes= 0.00D+00 IRadAn=         5 IDoV= 1 UseB2=F ITyADJ=14
 ICtDFT=  3500011 ScaDFX=  1.000000  1.000000  1.000000  1.000000
 FoFCou: FMM=F IPFlag=           0 FMFlag=      100000 FMFlg1=           0
         NFxFlg=           0 DoJE=T BraDBF=F KetDBF=T FulRan=T
         wScrn=  0.000000 ICntrl=       500 IOpCl=  0 I1Cent=   200000004 NGrid=           0
         NMat0=    1 NMatS0=      1 NMatT0=    0 NMatD0=    1 NMtDS0=    0 NMtDT0=    0
 Symmetry not used in FoFCou.
 Keep R1 ints in memory in canonical form, NReq=160464061.
 Requested convergence on RMS density matrix=1.00D-08 within 128 cycles.
 Requested convergence on MAX density matrix=1.00D-06.
 Requested convergence on             energy=1.00D-06.
 No special actions if energy rises.
 Integral accuracy reduced to 1.0D-05 until final iterations.
 Initial convergence to 1.0D-05 achieved.  Increase integral accuracy.
 SCF Done:  E(RB3LYP) =  -210.175709852     A.U. after   13 cycles
            NFock= 13  Conv=0.89D-08     -V/T= 2.0051

 **********************************************************************

            Population analysis using the SCF density.

 **********************************************************************

 Alpha  occ. eigenvalues --  -14.34125 -10.21670 -10.19481 -10.18050 -10.17778
 Alpha  occ. eigenvalues --   -0.97753  -0.77581  -0.73519  -0.58564  -0.56295
 Alpha  occ. eigenvalues --   -0.52621  -0.47542  -0.40877  -0.40248  -0.39979
 Alpha  occ. eigenvalues --   -0.30272  -0.28330  -0.25349
 Alpha virt. eigenvalues --   -0.01105   0.01723   0.05429   0.07031   0.08687
 Alpha virt. eigenvalues --    0.09004   0.09941   0.13859   0.15856   0.17736
 Alpha virt. eigenvalues --    0.19506   0.21428   0.22598   0.23806   0.24482
 Alpha virt. eigenvalues --    0.26406   0.30743   0.33418   0.34077   0.34366
 Alpha virt. eigenvalues --    0.36345   0.37095   0.39259   0.39969   0.40878
 Alpha virt. eigenvalues --    0.42233   0.43322   0.45804   0.46979   0.49868
 Alpha virt. eigenvalues --    0.51134   0.53024   0.56773   0.59607   0.60313
 Alpha virt. eigenvalues --    0.65515   0.67378   0.70032   0.74996   0.83947
 Alpha virt. eigenvalues --    0.86349   0.88356   0.92232   0.94831   0.95257
 Alpha virt. eigenvalues --    0.98218   1.03026   1.06715   1.08802   1.09528
 Alpha virt. eigenvalues --    1.12042   1.14951   1.18679   1.23550   1.24706
 Alpha virt. eigenvalues --    1.27609   1.33990   1.35647   1.42171   1.42652
 Alpha virt. eigenvalues --    1.44971   1.46288   1.48086   1.51100   1.55227
 Alpha virt. eigenvalues --    1.56050   1.59757   1.65156   1.68207   1.69761
 Alpha virt. eigenvalues --    1.71824   1.74235   1.77574   1.85696   1.89137
 Alpha virt. eigenvalues --    1.97674   1.98724   2.01627   2.06338   2.06487
 Alpha virt. eigenvalues --    2.09628   2.15093   2.18196   2.19859   2.30158
 Alpha virt. eigenvalues --    2.33250   2.38649   2.44308   2.45407   2.46522
 Alpha virt. eigenvalues --    2.50950   2.55505   2.56694   2.60938   2.62754
 Alpha virt. eigenvalues --    2.65069   2.68698   2.70884   2.72006   2.74717
 Alpha virt. eigenvalues --    2.79112   2.82807   2.84589   2.89916   2.91866
 Alpha virt. eigenvalues --    2.94064   2.95753   2.97112   3.00481   3.02305
 Alpha virt. eigenvalues --    3.04437   3.08792   3.09836   3.13582   3.17294
 Alpha virt. eigenvalues --    3.18274   3.23710   3.27942   3.32049   3.33526
 Alpha virt. eigenvalues --    3.38395   3.40896   3.42657   3.45218   3.46069
 Alpha virt. eigenvalues --    3.49365   3.50145   3.59903   3.61664   3.67209
 Alpha virt. eigenvalues --    3.79267   3.85158   3.97132   4.00102   4.07152
 Alpha virt. eigenvalues --    4.08809   4.11720   4.19448   4.20274   4.23187
 Alpha virt. eigenvalues --    4.28846   4.32018   4.36431   4.44085   4.48208
 Alpha virt. eigenvalues --    4.54304   4.66045   4.71120   4.74646   4.82975
 Alpha virt. eigenvalues --    4.88758   4.91491   4.96460   5.02376   5.15507
 Alpha virt. eigenvalues --    5.18668   5.24318   5.24871   5.41982   5.56334
 Alpha virt. eigenvalues --    5.70991   5.75231  22.09916  22.45436  22.56387
 Alpha virt. eigenvalues --   22.81556  32.13563
          Condensed to atoms (all electrons):
               1          2          3          4          5          6
     1  C    5.104423   0.503431  -0.031588  -0.074466   0.340005  -0.043836
     2  C    0.503431   4.897074   0.515945  -0.085980  -0.057758   0.007381
     3  C   -0.031588   0.515945   4.908863   0.518500  -0.182145   0.004789
     4  N   -0.074466  -0.085980   0.518500   6.712350   0.121289  -0.030767
     5  C    0.340005  -0.057758  -0.182145   0.121289   5.316373   0.417387
     6  H   -0.043836   0.007381   0.004789  -0.030767   0.417387   0.512182
     7  H    0.401831  -0.031448   0.006037   0.004625  -0.030087  -0.001075
     8  H   -0.054047   0.414217  -0.041114   0.006447   0.017674   0.000002
     9  H    0.006089  -0.051069   0.422960  -0.029774   0.009350  -0.000191
    10  H    0.024546  -0.022553  -0.014545   0.142040   0.119766  -0.016715
               7          8          9         10
     1  C    0.401831  -0.054047   0.006089   0.024546
     2  C   -0.031448   0.414217  -0.051069  -0.022553
     3  C    0.006037  -0.041114   0.422960  -0.014545
     4  N    0.004625   0.006447  -0.029774   0.142040
     5  C   -0.030087   0.017674   0.009350   0.119766
     6  H   -0.001075   0.000002  -0.000191  -0.016715
     7  H    0.531431  -0.001723  -0.000112  -0.000303
     8  H   -0.001723   0.545423  -0.000651  -0.001156
     9  H   -0.000112  -0.000651   0.529509  -0.002055
    10  H   -0.000303  -0.001156  -0.002055   0.544075
 Mulliken charges:
               1
     1  C   -0.176388
     2  C   -0.089239
     3  C   -0.107700
     4  N   -0.284263
     5  C   -0.071852
     6  H    0.150845
     7  H    0.120825
     8  H    0.114929
     9  H    0.115944
    10  H    0.226900
 Sum of Mulliken charges =  -0.00000
 Mulliken charges with hydrogens summed into heavy atoms:
               1
     1  C   -0.055563
     2  C    0.025690
     3  C    0.008243
     4  N   -0.057363
     5  C    0.078993
 Electronic spatial extent (au):  <R**2>=            305.1353
 Charge=             -0.0000 electrons
 Dipole moment (field-independent basis, Debye):
    X=              0.3881    Y=              1.2417    Z=              0.6959  Tot=              1.4754
 Quadrupole moment (field-independent basis, Debye-Ang):
   XX=            -25.8440   YY=            -31.5544   ZZ=            -31.9654
   XY=             -0.1513   XZ=             -0.0587   YZ=             -1.1324
 Traceless Quadrupole moment (field-independent basis, Debye-Ang):
   XX=              3.9439   YY=             -1.7664   ZZ=             -2.1775
   XY=             -0.1513   XZ=             -0.0587   YZ=             -1.1324
 Octapole moment (field-independent basis, Debye-Ang**2):
  XXX=              0.6284  YYY=             10.3535  ZZZ=              0.8085  XYY=             -0.7172
  XXY=             -1.9553  XXZ=             -0.9593  XZZ=              1.0620  YZZ=             -2.5525
  YYZ=              1.5623  XYZ=             -0.5779
 Hexadecapole moment (field-independent basis, Debye-Ang**3):
 XXXX=           -174.2326 YYYY=           -198.0136 ZZZZ=            -41.1617 XXXY=             -1.4319
 XXXZ=             -3.9583 YYYX=              3.2006 YYYZ=             -1.7620 ZZZX=             -0.1136
 ZZZY=             -1.4569 XXYY=            -55.1686 XXZZ=            -42.5838 YYZZ=            -41.0524
 XXYZ=             -0.0196 YYXZ=              0.7281 ZZXY=             -1.2922
 N-N= 1.605895359142D+02 E-N=-8.093026382387D+02  KE= 2.091031015293D+02
 1\1\GINC-BHC0107\SP\RB3LYP\def2TZVP\C4H5N1\DHANAWAY\10-Jun-2022\0\\# s
 p B3LYP/Def2TZVP NoSymm\\ts_initalOptXYZ_aligned_AlignedSp\\0,1\C,0,0.
 556135,1.064926,0.004904\C,0,-0.822083,0.872407,-0.004122\C,0,-1.05491
 4,-0.503437,-0.015857\N,0,0.090759,-1.214346,-0.080367\C,0,1.139062,-0
 .208206,-0.02102\H,0,2.147087,-0.499251,-0.274042\H,0,1.084881,2.00475
 5,0.023577\H,0,-1.57713,1.643546,0.024648\H,0,-2.00185,-1.017695,0.052
 466\H,0,0.802505,-0.985074,0.952486\\Version=ES64L-G16RevA.03\HF=-210.
 1757099\RMSD=8.868e-09\Dipole=0.1526976,0.4885333,0.2737805\Quadrupole
 =2.9322199,-1.313311,-1.6189089,-0.1124548,-0.0436562,-0.8419144\PG=C0
 1 [X(C4H5N1)]\\@


 I DON'T PRETEND TO UNDERSTAND THE UNIVERSE --
 IT'S A GREAT DEAL BIGGER THAN I AM.
       -- ATTR. TO WILLIAM ALLINGHAM (1828-89)
 Job cpu time:       0 days  0 hours  1 minutes 50.3 seconds.
 Elapsed time:       0 days  0 hours  0 minutes 12.6 seconds.
 File lengths (MBytes):  RWF=     19 Int=      0 D2E=      0 Chk=     32 Scr=      1
 Normal termination of Gaussian 16 at Fri Jun 10 01:43:36 2022.
