 Entering Gaussian System, Link 0=g16
 Input=ts_zmat_field_N25.gjf
 Output=ts_zmat_field_N25.out
 Initial command:
 /software/gaussian/g16-a03/l1.exe "/local_scratch/11174454/Gau-32413.inp" -scrdir="/local_scratch/11174454/"
 Entering Link 1 = /software/gaussian/g16-a03/l1.exe PID=     32414.
  
 Copyright (c) 1988,1990,1992,1993,1995,1998,2003,2009,2016,
            Gaussian, Inc.  All Rights Reserved.
  
 This is part of the Gaussian(R) 16 program.  It is based on
 the Gaussian(R) 09 system (copyright 2009, Gaussian, Inc.),
 the Gaussian(R) 03 system (copyright 2003, Gaussian, Inc.),
 the Gaussian(R) 98 system (copyright 1998, Gaussian, Inc.),
 the Gaussian(R) 94 system (copyright 1995, Gaussian, Inc.),
 the Gaussian 92(TM) system (copyright 1992, Gaussian, Inc.),
 the Gaussian 90(TM) system (copyright 1990, Gaussian, Inc.),
 the Gaussian 88(TM) system (copyright 1988, Gaussian, Inc.),
 the Gaussian 86(TM) system (copyright 1986, Carnegie Mellon
 University), and the Gaussian 82(TM) system (copyright 1983,
 Carnegie Mellon University). Gaussian is a federally registered
 trademark of Gaussian, Inc.
  
 This software contains proprietary and confidential information,
 including trade secrets, belonging to Gaussian, Inc.
  
 This software is provided under written license and may be
 used, copied, transmitted, or stored only in accord with that
 written license.
  
 The following legend is applicable only to US Government
 contracts under FAR:
  
                    RESTRICTED RIGHTS LEGEND
  
 Use, reproduction and disclosure by the US Government is
 subject to restrictions as set forth in subparagraphs (a)
 and (c) of the Commercial Computer Software - Restricted
 Rights clause in FAR 52.227-19.
  
 Gaussian, Inc.
 340 Quinnipiac St., Bldg. 40, Wallingford CT 06492
  
  
 ---------------------------------------------------------------
 Warning -- This program may not be used in any manner that
 competes with the business of Gaussian, Inc. or will provide
 assistance to any competitor of Gaussian, Inc.  The licensee
 of this program is prohibited from giving any competitor of
 Gaussian, Inc. access to this program.  By using this program,
 the user acknowledges that Gaussian, Inc. is engaged in the
 business of creating and licensing software in the field of
 computational chemistry and represents and warrants to the
 licensee that it is not a competitor of Gaussian, Inc. and that
 it will not use this program in any manner prohibited above.
 ---------------------------------------------------------------
  

 Cite this work as:
 Gaussian 16, Revision A.03,
 M. J. Frisch, G. W. Trucks, H. B. Schlegel, G. E. Scuseria, 
 M. A. Robb, J. R. Cheeseman, G. Scalmani, V. Barone, 
 G. A. Petersson, H. Nakatsuji, X. Li, M. Caricato, A. V. Marenich, 
 J. Bloino, B. G. Janesko, R. Gomperts, B. Mennucci, H. P. Hratchian, 
 J. V. Ortiz, A. F. Izmaylov, J. L. Sonnenberg, D. Williams-Young, 
 F. Ding, F. Lipparini, F. Egidi, J. Goings, B. Peng, A. Petrone, 
 T. Henderson, D. Ranasinghe, V. G. Zakrzewski, J. Gao, N. Rega, 
 G. Zheng, W. Liang, M. Hada, M. Ehara, K. Toyota, R. Fukuda, 
 J. Hasegawa, M. Ishida, T. Nakajima, Y. Honda, O. Kitao, H. Nakai, 
 T. Vreven, K. Throssell, J. A. Montgomery, Jr., J. E. Peralta, 
 F. Ogliaro, M. J. Bearpark, J. J. Heyd, E. N. Brothers, K. N. Kudin, 
 V. N. Staroverov, T. A. Keith, R. Kobayashi, J. Normand, 
 K. Raghavachari, A. P. Rendell, J. C. Burant, S. S. Iyengar, 
 J. Tomasi, M. Cossi, J. M. Millam, M. Klene, C. Adamo, R. Cammi, 
 J. W. Ochterski, R. L. Martin, K. Morokuma, O. Farkas, 
 J. B. Foresman, and D. J. Fox, Gaussian, Inc., Wallingford CT, 2016.
 
 ******************************************
 Gaussian 16:  ES64L-G16RevA.03 25-Dec-2016
                10-Jun-2022 
 ******************************************
 %nprocshared=12
 Will use up to   12 processors via shared memory.
 %chk=checkpoint.chk
 %mem=12GB
 ----------------------------------------------------------------------
 # Opt=(TS, CalcFC, noeigentest, Z-matrix, MaxStep=10) Field=read NoSym
 m B3LYP/Def2TZVP freq=noraman pop=none
 ----------------------------------------------------------------------
 1/5=1,8=10,10=4,11=1,18=40,26=3,38=1/1,3;
 2/12=2,15=1,17=6,18=5,29=3,40=1/2;
 3/5=44,7=101,11=2,14=-6,25=1,30=1,71=2,74=-5,140=1/1,2,3;
 4//1;
 5/5=2,38=5/2;
 8/6=4,10=90,11=11/1;
 11/6=1,8=1,9=11,15=111,16=1,31=1/1,2,10;
 10/6=1,13=1,31=1/2;
 7/10=1,18=20,25=1,30=1/1,2,3,16;
 1/5=1,8=10,10=4,11=1,18=40,26=3/3(2);
 2/15=1,29=3/2;
 99//99;
 2/15=1,29=3/2;
 3/5=44,7=101,11=2,14=-2,25=1,30=1,71=1,74=-5/1,2,3;
 4/5=5,16=3,69=1/1;
 5/5=2,38=5/2;
 7/30=1/1,2,3,16;
 1/5=1,8=10,11=1,18=40,26=3/3(-5);
 2/15=1,29=3/2;
 99/9=1/99;
 -----------------
 ts_zmat_initalOpt
 -----------------
 Symbolic Z-matrix:
 Charge =  0 Multiplicity = 1
 C
 C                    1    R2
 C                    1    R3       2    A3
 H                    1    R4       2    A4       3    D4       0
 C                    3    R5       1    A5       2    D5       0
 C                    2    R6       1    A6       3    D6       0
 H                    2    R7       1    A7       6    D7       0
 H                    3    R8       1    A8       5    D8       0
 H                    3    R9       1    A9       5    D9       0
 C                    5    R10      3    A10      1    D10      0
 H                    6    R11      2    A11      1    D11      0
 H                    6    R12      2    A12      11   D12      0
 H                    5    R13      3    A13      10   D13      0
 H                    5    R14      3    A14      10   D14      0
 C                    10   R15      5    A15      3    D15      0
 H                    10   R16      5    A16      15   D16      0
 C                    15   R17      10   A17      5    D17      0
 H                    15   R18      10   A18      17   D18      0
 H                    17   R19      15   A19      10   D19      0
 H                    17   R20      15   A20      19   D20      0
       Variables:
  R2                    1.39164                  
  R3                    1.52389                  
  R4                    1.08383                  
  R5                    1.5392                   
  R6                    1.37677                  
  R7                    1.08651                  
  R8                    1.09159                  
  R9                    1.09156                  
  R10                   1.52389                  
  R11                   1.07998                  
  R12                   1.0816                   
  R13                   1.09159                  
  R14                   1.09156                  
  R15                   1.39164                  
  R16                   1.08383                  
  R17                   1.37677                  
  R18                   1.08651                  
  R19                   1.07998                  
  R20                   1.0816                   
  A3                  123.93288                  
  A4                  117.05931                  
  A5                  102.25231                  
  A6                  124.75683                  
  A7                  116.33962                  
  A8                  110.76215                  
  A9                  111.71165                  
  A10                 102.25227                  
  A11                 121.28354                  
  A12                 120.14809                  
  A13                 112.61872                  
  A14                 112.82168                  
  A15                 123.93291                  
  A16                 116.4387                   
  A17                 124.75675                  
  A18                 116.33963                  
  A19                 121.28355                  
  A20                 120.14802                  
  D4                 -161.13551                  
  D5                  100.07311                  
  D6                  -18.89227                  
  D7                 -165.07196                  
  D8                  120.21326                  
  D9                 -120.90954                  
  D10                  -0.00018                  
  D11                  25.70267                  
  D12                 159.52712                  
  D13                 118.9114                   
  D14                -120.13858                  
  D15                -100.07285                  
  D16                -161.242                    
  D17                  18.89245                  
  D18                 165.07176                  
  D19                 -25.7028                   
  D20                -159.52692                  
 

 GradGradGradGradGradGradGradGradGradGradGradGradGradGradGradGradGradGrad
 Berny optimization.
 Initialization pass.
                       ----------------------------
                       !    Initial Parameters    !
                       ! (Angstroms and Degrees)  !
 ----------------------                            ----------------------
 !      Name          Value   Derivative information (Atomic Units)     !
 ------------------------------------------------------------------------
 !       R2          1.3916   calculate D2E/DX2 analytically            !
 !       R3          1.5239   calculate D2E/DX2 analytically            !
 !       R4          1.0838   calculate D2E/DX2 analytically            !
 !       R5          1.5392   calculate D2E/DX2 analytically            !
 !       R6          1.3768   calculate D2E/DX2 analytically            !
 !       R7          1.0865   calculate D2E/DX2 analytically            !
 !       R8          1.0916   calculate D2E/DX2 analytically            !
 !       R9          1.0916   calculate D2E/DX2 analytically            !
 !       R10         1.5239   calculate D2E/DX2 analytically            !
 !       R11         1.08     calculate D2E/DX2 analytically            !
 !       R12         1.0816   calculate D2E/DX2 analytically            !
 !       R13         1.0916   calculate D2E/DX2 analytically            !
 !       R14         1.0916   calculate D2E/DX2 analytically            !
 !       R15         1.3916   calculate D2E/DX2 analytically            !
 !       R16         1.0838   calculate D2E/DX2 analytically            !
 !       R17         1.3768   calculate D2E/DX2 analytically            !
 !       R18         1.0865   calculate D2E/DX2 analytically            !
 !       R19         1.08     calculate D2E/DX2 analytically            !
 !       R20         1.0816   calculate D2E/DX2 analytically            !
 !       A3        123.9329   calculate D2E/DX2 analytically            !
 !       A4        117.0593   calculate D2E/DX2 analytically            !
 !       A5        102.2523   calculate D2E/DX2 analytically            !
 !       A6        124.7568   calculate D2E/DX2 analytically            !
 !       A7        116.3396   calculate D2E/DX2 analytically            !
 !       A8        110.7621   calculate D2E/DX2 analytically            !
 !       A9        111.7116   calculate D2E/DX2 analytically            !
 !       A10       102.2523   calculate D2E/DX2 analytically            !
 !       A11       121.2835   calculate D2E/DX2 analytically            !
 !       A12       120.1481   calculate D2E/DX2 analytically            !
 !       A13       112.6187   calculate D2E/DX2 analytically            !
 !       A14       112.8217   calculate D2E/DX2 analytically            !
 !       A15       123.9329   calculate D2E/DX2 analytically            !
 !       A16       116.4387   calculate D2E/DX2 analytically            !
 !       A17       124.7567   calculate D2E/DX2 analytically            !
 !       A18       116.3396   calculate D2E/DX2 analytically            !
 !       A19       121.2836   calculate D2E/DX2 analytically            !
 !       A20       120.148    calculate D2E/DX2 analytically            !
 !       D4       -161.1355   calculate D2E/DX2 analytically            !
 !       D5        100.0731   calculate D2E/DX2 analytically            !
 !       D6        -18.8923   calculate D2E/DX2 analytically            !
 !       D7       -165.072    calculate D2E/DX2 analytically            !
 !       D8        120.2133   calculate D2E/DX2 analytically            !
 !       D9       -120.9095   calculate D2E/DX2 analytically            !
 !       D10        -0.0002   calculate D2E/DX2 analytically            !
 !       D11        25.7027   calculate D2E/DX2 analytically            !
 !       D12       159.5271   calculate D2E/DX2 analytically            !
 !       D13       118.9114   calculate D2E/DX2 analytically            !
 !       D14      -120.1386   calculate D2E/DX2 analytically            !
 !       D15      -100.0728   calculate D2E/DX2 analytically            !
 !       D16      -161.242    calculate D2E/DX2 analytically            !
 !       D17        18.8924   calculate D2E/DX2 analytically            !
 !       D18       165.0718   calculate D2E/DX2 analytically            !
 !       D19       -25.7028   calculate D2E/DX2 analytically            !
 !       D20      -159.5269   calculate D2E/DX2 analytically            !
 ------------------------------------------------------------------------
 Trust Radius=1.00D-01 FncErr=1.00D-07 GrdErr=1.00D-06 EigMax=2.50D+02 EigMin=1.00D-04
 Number of steps in this run=     64 maximum allowed number of steps=    108.
 Search for a saddle point of order  1.
 GradGradGradGradGradGradGradGradGradGradGradGradGradGradGradGradGradGrad

 ---------------------------------------------------------------------------------------------------
                            Z-MATRIX (ANGSTROMS AND DEGREES)
   CD    Cent   Atom    N1       Length/X        N2       Alpha/Y        N3        Beta/Z          J
 ---------------------------------------------------------------------------------------------------
      1      1  C 
      2      2  C        1   1.391636(     1)
      3      3  C        1   1.523892(     2)      2  123.933(    20)
      4      4  H        1   1.083832(     3)      2  117.059(    21)      3 -161.136(    38)      0
      5      5  C        3   1.539197(     4)      1  102.252(    22)      2  100.073(    39)      0
      6      6  C        2   1.376766(     5)      1  124.757(    23)      3  -18.892(    40)      0
      7      7  H        2   1.086512(     6)      1  116.340(    24)      6 -165.072(    41)      0
      8      8  H        3   1.091590(     7)      1  110.762(    25)      5  120.213(    42)      0
      9      9  H        3   1.091556(     8)      1  111.712(    26)      5 -120.910(    43)      0
     10     10  C        5   1.523893(     9)      3  102.252(    27)      1   -0.000(    44)      0
     11     11  H        6   1.079977(    10)      2  121.284(    28)      1   25.703(    45)      0
     12     12  H        6   1.081600(    11)      2  120.148(    29)     11  159.527(    46)      0
     13     13  H        5   1.091590(    12)      3  112.619(    30)     10  118.911(    47)      0
     14     14  H        5   1.091556(    13)      3  112.822(    31)     10 -120.139(    48)      0
     15     15  C       10   1.391637(    14)      5  123.933(    32)      3 -100.073(    49)      0
     16     16  H       10   1.083833(    15)      5  116.439(    33)     15 -161.242(    50)      0
     17     17  C       15   1.376766(    16)     10  124.757(    34)      5   18.892(    51)      0
     18     18  H       15   1.086512(    17)     10  116.340(    35)     17  165.072(    52)      0
     19     19  H       17   1.079977(    18)     15  121.284(    36)     10  -25.703(    53)      0
     20     20  H       17   1.081601(    19)     15  120.148(    37)     19 -159.527(    54)      0
 ---------------------------------------------------------------------------------------------------
                         Z-Matrix orientation:                         
 ---------------------------------------------------------------------
 Center     Atomic      Atomic             Coordinates (Angstroms)
 Number     Number       Type             X           Y           Z
 ---------------------------------------------------------------------
      1          6           0        0.000000    0.000000    0.000000
      2          6           0        0.000000    0.000000    1.391636
      3          6           0        1.264361    0.000000   -0.850669
      4          1           0       -0.913347    0.312077   -0.493049
      5          6           0        1.388518   -1.480952   -1.251284
      6          6           0        1.070187   -0.366246    2.176523
      7          1           0       -0.971381    0.067316    1.873712
      8          1           0        1.150777    0.659995   -1.712687
      9          1           0        2.128474    0.360723   -0.289704
     10          6           0        0.176331   -2.103269   -0.568955
     11          1           0        2.084291   -0.290219    1.812979
     12          1           0        0.962458   -0.419484    3.251427
     13          1           0        1.342659   -1.628827   -2.331840
     14          1           0        2.320934   -1.934939   -0.910710
     15          6           0        0.234767   -2.800270    0.634136
     16          1           0       -0.697393   -2.263833   -1.189858
     17          6           0        1.267135   -2.715399    1.541052
     18          1           0       -0.693281   -3.249819    0.976397
     19          1           0        2.264577   -2.440641    1.231265
     20          1           0        1.197681   -3.225155    2.492464
 ---------------------------------------------------------------------
                    Distance matrix (angstroms):
                    1          2          3          4          5
     1  C    0.000000
     2  C    1.391636   0.000000
     3  C    1.523892   2.574206   0.000000
     4  H    1.083832   2.117459   2.228833   0.000000
     5  C    2.384725   3.332601   1.539197   3.014707   0.000000
     6  C    2.452894   1.376766   3.055442   3.394281   3.618531
     7  H    2.111612   1.086512   3.524957   2.380091   4.210921
     8  H    2.166374   3.375900   1.091590   2.422638   2.202968
     9  H    2.178176   2.736316   1.091556   3.048999   2.205434
    10  C    2.185988   2.880755   2.384725   2.650859   1.523893
    11  H    2.777659   2.146165   2.802058   3.829668   3.360306
    12  H    3.416734   2.135677   4.134526   4.251462   4.645713
    13  H    3.145360   4.280196   2.202970   3.498260   1.091590
    14  H    3.155965   3.798884   2.205434   3.960315   1.091556
    15  C    2.880756   2.910401   3.332600   3.503629   2.574209
    16  H    2.650860   3.503628   3.014709   2.677217   2.228834
    17  C    3.369550   3.000225   3.618526   4.249433   3.055444
    18  H    3.463425   3.348788   4.210920   3.859378   3.524959
    19  H    3.549796   3.333280   3.360299   4.544218   2.802059
    20  H    4.248346   3.612186   4.645709   5.087410   4.134527
                    6          7          8          9         10
     6  C    0.000000
     7  H    2.108950   0.000000
     8  H    4.023135   4.209165   0.000000
     9  H    2.780419   3.791511   1.752237   0.000000
    10  C    3.369552   3.463424   3.145361   3.155963   0.000000
    11  H    1.079977   3.077117   3.768909   2.201580   3.549799
    12  H    1.081600   2.423800   5.083617   3.808927   4.248347
    13  H    4.689743   5.091006   2.378839   2.957386   2.166374
    14  H    3.681871   4.754089   2.957383   2.385949   2.178177
    15  C    3.000226   3.348790   4.280197   3.798879   1.391637
    16  H    4.249435   3.859376   3.498264   3.960316   1.083833
    17  C    2.441543   3.586798   4.689738   3.681861   2.452894
    18  H    3.586797   3.447593   5.091008   4.754085   2.111614
    19  H    2.573556   4.144153   4.418297   3.190535   2.777658
    20  H    2.879138   3.990996   5.725372   4.633072   3.416735
                   11         12         13         14         15
    11  H    0.000000
    12  H    1.828757   0.000000
    13  H    4.418304   5.725376   0.000000
    14  H    3.190546   4.633081   1.752237   0.000000
    15  C    3.333281   3.612186   3.375902   2.736319   0.000000
    16  H    4.544221   5.087410   2.422637   3.048999   2.117461
    17  C    2.573555   2.879138   4.023137   2.780422   1.376766
    18  H    4.144153   3.990993   4.209167   3.791513   1.086512
    19  H    2.234996   3.140325   3.768911   2.201584   2.146165
    20  H    3.140323   2.916015   5.083620   3.808931   2.135676
                   16         17         18         19         20
    16  H    0.000000
    17  C    3.394283   0.000000
    18  H    2.380093   2.108950   0.000000
    19  H    3.829669   1.079977   3.077117   0.000000
    20  H    4.251463   1.081601   2.423800   1.828757   0.000000
 Symmetry turned off by external request.
 Stoichiometry    C8H12
 Framework group  C1[X(C8H12)]
 Deg. of freedom    54
 Full point group                 C1      NOp   1
 Rotational constants (GHZ):           2.4921688           2.3101024           1.5833667
 Standard basis: def2TZVP (5D, 7F)
 The following finite field(s) will be applied:
 An electric field of             -0.0018 -0.0015  0.0009
   320 basis functions,   504 primitive gaussians,   360 cartesian basis functions
    30 alpha electrons       30 beta electrons
       nuclear repulsion energy       368.2317443619 Hartrees.
 NAtoms=   20 NActive=   20 NUniq=   20 SFac= 1.00D+00 NAtFMM=   60 NAOKFM=F Big=F
 Integral buffers will be    131072 words long.
 Raffenetti 2 integral format.
 Two-electron integral symmetry is turned off.
 One-electron integrals computed using PRISM.
   1 Symmetry operations used in ECPInt.
 ECPInt:  NShTT=    9316 NPrTT=   27240 LenC2=    9239 LenP2D=   22136.
 LDataN:  DoStor=T MaxTD1= 6 Len=  172
 NBasis=   320 RedAO= T EigKep=  2.55D-05  NBF=   320
 NBsUse=   320 1.00D-06 EigRej= -1.00D+00 NBFU=   320
 The nuclear repulsion energy is now       368.3194028895 hartrees.
 ExpMin= 9.52D-02 ExpMax= 1.36D+04 ExpMxC= 4.63D+02 IAcc=3 IRadAn=         5 AccDes= 0.00D+00
 Harris functional with IExCor=  402 and IRadAn=       5 diagonalized for initial guess.
 HarFok:  IExCor=  402 AccDes= 0.00D+00 IRadAn=         5 IDoV= 1 UseB2=F ITyADJ=14
 ICtDFT=  3500011 ScaDFX=  1.000000  1.000000  1.000000  1.000000
 FoFCou: FMM=F IPFlag=           0 FMFlag=      100000 FMFlg1=           0
         NFxFlg=           0 DoJE=T BraDBF=F KetDBF=T FulRan=T
         wScrn=  0.000000 ICntrl=       500 IOpCl=  0 I1Cent=   200000004 NGrid=           0
         NMat0=    1 NMatS0=      1 NMatT0=    0 NMatD0=    1 NMtDS0=    0 NMtDT0=    0
 Symmetry not used in FoFCou.
 Requested convergence on RMS density matrix=1.00D-08 within 128 cycles.
 Requested convergence on MAX density matrix=1.00D-06.
 Requested convergence on             energy=1.00D-06.
 No special actions if energy rises.
 Integral accuracy reduced to 1.0D-05 until final iterations.
 Initial convergence to 1.0D-05 achieved.  Increase integral accuracy.
 SCF Done:  E(RB3LYP) =  -312.080212059     A.U. after   14 cycles
            NFock= 14  Conv=0.73D-08     -V/T= 2.0056
 DoSCS=F DFT=T ScalE2(SS,OS)=  1.000000  1.000000
 Range of M.O.s used for correlation:     1   320
 NBasis=   320 NAE=    30 NBE=    30 NFC=     0 NFV=     0
 NROrb=    320 NOA=    30 NOB=    30 NVA=   290 NVB=   290

 **** Warning!!: The largest alpha MO coefficient is  0.39525184D+02

   1 Symmetry operations used in ECPInt.
 ECPInt:  NShTT=    9316 NPrTT=   27240 LenC2=    9239 LenP2D=   22136.
 LDataN:  DoStor=T MaxTD1= 7 Len=  274
 Symmetrizing basis deriv contribution to polar:
 IMax=3 JMax=2 DiffMx= 0.00D+00
 G2DrvN: will do    21 centers at a time, making    1 passes.
 Calling FoFCou, ICntrl=  3107 FMM=F I1Cent=   0 AccDes= 0.00D+00.
 End of G2Drv F.D. properties file   721 does not exist.
 End of G2Drv F.D. properties file   722 does not exist.
 End of G2Drv F.D. properties file   788 does not exist.
          IDoAtm=11111111111111111111
          Differentiating once with respect to nuclear coordinates.
 Keep R1 ints in memory in canonical form, NReq=1342482924.
          There are    63 degrees of freedom in the 1st order CPHF.  IDoFFX=6 NUNeed=     0.
     57 vectors produced by pass  0 Test12= 1.38D-14 1.59D-09 XBig12= 1.12D-01 1.23D-01.
 AX will form    57 AO Fock derivatives at one time.
     57 vectors produced by pass  1 Test12= 1.38D-14 1.59D-09 XBig12= 2.41D-02 4.58D-02.
     57 vectors produced by pass  2 Test12= 1.38D-14 1.59D-09 XBig12= 2.16D-04 2.23D-03.
     57 vectors produced by pass  3 Test12= 1.38D-14 1.59D-09 XBig12= 7.74D-07 1.21D-04.
     57 vectors produced by pass  4 Test12= 1.38D-14 1.59D-09 XBig12= 1.57D-09 5.41D-06.
     48 vectors produced by pass  5 Test12= 1.38D-14 1.59D-09 XBig12= 3.03D-12 2.11D-07.
      8 vectors produced by pass  6 Test12= 1.38D-14 1.59D-09 XBig12= 4.43D-15 7.82D-09.
 InvSVY:  IOpt=1 It=  1 EMax= 6.66D-16
 Solved reduced A of dimension   341 with    63 vectors.
 End of Minotr F.D. properties file   721 does not exist.
 End of Minotr F.D. properties file   722 does not exist.
 End of Minotr F.D. properties file   788 does not exist.
   1 Symmetry operations used in ECPInt.
 ECPInt:  NShTT=    9316 NPrTT=   27240 LenC2=    9239 LenP2D=   22136.
 LDataN:  DoStor=T MaxTD1= 8 Len=  415
 Calling FoFJK, ICntrl=    100147 FMM=F ISym2X=0 I1Cent= 0 IOpClX= 0 NMat=1 NMatS=1 NMatT=0.
 -------------------------------------------------------------------
 Center     Atomic                   Forces (Hartrees/Bohr)
 Number     Number              X              Y              Z
 -------------------------------------------------------------------
      1        6           0.000340559    0.000010622    0.000020427
      2        6           0.000030749   -0.000385614   -0.000023688
      3        6           0.000224720    0.000301023   -0.000106627
      4        1          -0.000053674    0.000078126   -0.000010273
      5        6          -0.000052372   -0.000044461   -0.000040481
      6        6           0.000054532   -0.000108156   -0.000273269
      7        1          -0.000169463    0.000137514    0.000118620
      8        1           0.000123748   -0.000146992    0.000318607
      9        1          -0.000236602   -0.000034595   -0.000257505
     10        6           0.000004534   -0.000076957    0.000038947
     11        1          -0.000145860    0.000131536    0.000139607
     12        1           0.000070876    0.000132770    0.000039917
     13        1           0.000093981    0.000079075    0.000166568
     14        1          -0.000119175    0.000106565   -0.000124242
     15        6           0.000276327   -0.000155565   -0.000429579
     16        1          -0.000152352   -0.000014414   -0.000099425
     17        6           0.000112028    0.000148309    0.000131738
     18        1          -0.000354194   -0.000032932    0.000178483
     19        1          -0.000123316   -0.000076544    0.000099190
     20        1           0.000074954   -0.000049311    0.000112984
 -------------------------------------------------------------------
 Cartesian Forces:  Max     0.000429579 RMS     0.000163382
 -----------------------------------------------------------------------------------------------
                       Internal Coordinate Forces (Hartree/Bohr or radian)
  Cent   Atom   N1       Length/X         N2         Alpha/Y        N3         Beta/Z          J
 -----------------------------------------------------------------------------------------------
      1  C 
      2  C        1   0.000001(     1)
      3  C        1  -0.000100(     2)      2  -0.000199(    20)
      4  H        1   0.000072(     3)      2  -0.000052(    21)      3   0.000103(    38)     0
      5  C        3   0.000084(     4)      1  -0.000075(    22)      2   0.000621(    39)     0
      6  C        2  -0.000111(     5)      1  -0.000029(    23)      3   0.000324(    40)     0
      7  H        2   0.000213(     6)      1   0.000056(    24)      6  -0.000231(    41)     0
      8  H        3  -0.000353(     7)      1   0.000110(    25)      5   0.000200(    42)     0
      9  H        3  -0.000331(     8)      1   0.000155(    26)      5  -0.000174(    43)     0
     10  C        5   0.000248(     9)      3   0.000450(    27)      1   0.000604(    44)     0
     11  H        6  -0.000175(    10)      2   0.000052(    28)      1   0.000021(    45)     0
     12  H        6   0.000026(    11)      2   0.000070(    29)     11  -0.000265(    46)     0
     13  H        5  -0.000180(    12)      3  -0.000096(    30)     10   0.000175(    47)     0
     14  H        5  -0.000185(    13)      3  -0.000018(    31)     10  -0.000156(    48)     0
     15  C       10   0.000163(    14)      5   0.000558(    32)      3  -0.000041(    49)     0
     16  H       10   0.000182(    15)      5   0.000004(    33)     15  -0.000027(    50)     0
     17  C       15   0.000276(    16)     10   0.000385(    34)      5   0.000034(    51)     0
     18  H       15   0.000372(    17)     10  -0.000021(    35)     17  -0.000258(    52)     0
     19  H       17  -0.000162(    18)     15   0.000125(    36)     10  -0.000009(    53)     0
     20  H       17   0.000118(    19)     15   0.000162(    37)     19   0.000046(    54)     0
 -----------------------------------------------------------------------------------------------
 Internal  Forces:  Max     0.000620663 RMS     0.000227012

 GradGradGradGradGradGradGradGradGradGradGradGradGradGradGradGradGradGrad
 Berny optimization.
 Search for a saddle point.
 Step number   1 out of a maximum of   64
 All quantities printed in internal units (Hartrees-Bohrs-Radians)
 Swapping is turned off.
 Second derivative matrix not updated -- analytic derivatives used.
 ITU=  0
     Eigenvalues ---   -0.14358   0.00450   0.01441   0.02236   0.03532
     Eigenvalues ---    0.06073   0.06102   0.07234   0.07338   0.11573
     Eigenvalues ---    0.11719   0.11886   0.13911   0.14262   0.14463
     Eigenvalues ---    0.16151   0.16814   0.16982   0.17158   0.17773
     Eigenvalues ---    0.19396   0.21976   0.23384   0.23823   0.25077
     Eigenvalues ---    0.26172   0.28236   0.29339   0.31061   0.31725
     Eigenvalues ---    0.32738   0.32958   0.33424   0.33892   0.34083
     Eigenvalues ---    0.35011   0.35175   0.35215   0.35616   0.35797
     Eigenvalues ---    0.36064   0.36760   0.36958   0.38320   0.38651
     Eigenvalues ---    0.42671   0.46284   0.47984   0.50694   0.52996
     Eigenvalues ---    0.58159   0.77766   1.22491   2.42686
 Eigenvectors required to have negative eigenvalues:
                          D15       D5        D11       D19       A5
   1                    0.45862  -0.45041   0.24500  -0.23598   0.22943
                          A10       D4        D16       R2        R15
   1                    0.22836  -0.22086  -0.21916  -0.20160  -0.19792
 RFO step:  Lambda0=2.182913504D-07 Lambda=-8.63966637D-06.
 Linear search not attempted -- option 19 set.
 Variable       Old X    -DE/DX   Delta X   Delta X   Delta X     New X
                                 (Linear)    (Quad)   (Total)
    R2        2.62981   0.00000   0.00000  -0.00004  -0.00004   2.62977
    R3        2.87974  -0.00010   0.00000  -0.00002  -0.00002   2.87972
    R4        2.04815   0.00007   0.00000   0.00026   0.00026   2.04840
    R5        2.90866   0.00008   0.00000   0.00009   0.00009   2.90875
    R6        2.60171  -0.00011   0.00000  -0.00032  -0.00032   2.60139
    R7        2.05321   0.00021   0.00000   0.00058   0.00058   2.05379
    R8        2.06281  -0.00035   0.00000  -0.00106  -0.00106   2.06175
    R9        2.06274  -0.00033   0.00000  -0.00094  -0.00094   2.06180
   R10        2.87974   0.00025   0.00000   0.00028   0.00028   2.88002
   R11        2.04086  -0.00017   0.00000  -0.00034  -0.00034   2.04052
   R12        2.04393   0.00003   0.00000   0.00016   0.00016   2.04409
   R13        2.06281  -0.00018   0.00000  -0.00049  -0.00049   2.06232
   R14        2.06274  -0.00018   0.00000  -0.00053  -0.00053   2.06221
   R15        2.62981   0.00016   0.00000   0.00027   0.00027   2.63008
   R16        2.04815   0.00018   0.00000   0.00051   0.00051   2.04866
   R17        2.60171   0.00028   0.00000   0.00080   0.00080   2.60251
   R18        2.05321   0.00037   0.00000   0.00113   0.00113   2.05434
   R19        2.04086  -0.00016   0.00000  -0.00037  -0.00037   2.04049
   R20        2.04393   0.00012   0.00000   0.00035   0.00035   2.04428
    A3        2.16304  -0.00020   0.00000  -0.00006  -0.00006   2.16298
    A4        2.04307  -0.00005   0.00000  -0.00067  -0.00067   2.04240
    A5        1.78464  -0.00008   0.00000  -0.00069  -0.00069   1.78395
    A6        2.17742  -0.00003   0.00000  -0.00055  -0.00055   2.17687
    A7        2.03051   0.00006   0.00000   0.00070   0.00070   2.03121
    A8        1.93316   0.00011   0.00000   0.00001   0.00001   1.93317
    A9        1.94974   0.00016   0.00000   0.00091   0.00091   1.95064
   A10        1.78464   0.00045   0.00000   0.00017   0.00017   1.78481
   A11        2.11680   0.00005   0.00000  -0.00037  -0.00037   2.11642
   A12        2.09698   0.00007   0.00000   0.00007   0.00007   2.09705
   A13        1.96557  -0.00010   0.00000  -0.00015  -0.00015   1.96542
   A14        1.96911  -0.00002   0.00000  -0.00053  -0.00053   1.96858
   A15        2.16304   0.00056   0.00000   0.00061   0.00061   2.16365
   A16        2.03224   0.00000   0.00000  -0.00019  -0.00019   2.03205
   A17        2.17742   0.00038   0.00000   0.00070   0.00070   2.17812
   A18        2.03051  -0.00002   0.00000  -0.00092  -0.00092   2.02959
   A19        2.11680   0.00012   0.00000   0.00021   0.00021   2.11701
   A20        2.09698   0.00016   0.00000   0.00017   0.00017   2.09715
    D4       -2.81235   0.00010   0.00000   0.00359   0.00359  -2.80876
    D5        1.74661   0.00062   0.00000  -0.00108  -0.00108   1.74553
    D6       -0.32973   0.00032   0.00000  -0.00202  -0.00202  -0.33175
    D7       -2.88105  -0.00023   0.00000  -0.00292  -0.00292  -2.88397
    D8        2.09812   0.00020   0.00000  -0.00013  -0.00013   2.09799
    D9       -2.11027  -0.00017   0.00000  -0.00071  -0.00071  -2.11098
   D10       -0.00000   0.00060   0.00000   0.00378   0.00378   0.00378
   D11        0.44860   0.00002   0.00000   0.00040   0.00040   0.44900
   D12        2.78427  -0.00026   0.00000  -0.00516  -0.00516   2.77911
   D13        2.07540   0.00017   0.00000   0.00132   0.00132   2.07672
   D14       -2.09681  -0.00016   0.00000  -0.00008  -0.00008  -2.09689
   D15       -1.74660  -0.00004   0.00000  -0.00231  -0.00231  -1.74891
   D16       -2.81420  -0.00003   0.00000  -0.00120  -0.00120  -2.81540
   D17        0.32974   0.00003   0.00000   0.00074   0.00074   0.33048
   D18        2.88105  -0.00026   0.00000  -0.00494  -0.00494   2.87610
   D19       -0.44860  -0.00001   0.00000  -0.00453  -0.00453  -0.45313
   D20       -2.78427   0.00005   0.00000   0.00222   0.00222  -2.78205
         Item               Value     Threshold  Converged?
 Maximum Force            0.000621     0.000450     NO 
 RMS     Force            0.000227     0.000300     YES
 Maximum Displacement     0.005159     0.001800     NO 
 RMS     Displacement     0.001597     0.001200     NO 
 Predicted change in Energy=-4.210687D-06
 GradGradGradGradGradGradGradGradGradGradGradGradGradGradGradGradGradGrad

 ---------------------------------------------------------------------------------------------------
                            Z-MATRIX (ANGSTROMS AND DEGREES)
   CD    Cent   Atom    N1       Length/X        N2       Alpha/Y        N3        Beta/Z          J
 ---------------------------------------------------------------------------------------------------
      1      1  C 
      2      2  C        1   1.391613(     1)
      3      3  C        1   1.523881(     2)      2  123.930(    20)
      4      4  H        1   1.083969(     3)      2  117.021(    21)      3 -160.930(    38)      0
      5      5  C        3   1.539243(     4)      1  102.213(    22)      2  100.011(    39)      0
      6      6  C        2   1.376595(     5)      1  124.725(    23)      3  -19.008(    40)      0
      7      7  H        2   1.086817(     6)      1  116.380(    24)      6 -165.239(    41)      0
      8      8  H        3   1.091029(     7)      1  110.763(    25)      5  120.206(    42)      0
      9      9  H        3   1.091060(     8)      1  111.764(    26)      5 -120.950(    43)      0
     10     10  C        5   1.524039(     9)      3  102.262(    27)      1    0.217(    44)      0
     11     11  H        6   1.079796(    10)      2  121.262(    28)      1   25.726(    45)      0
     12     12  H        6   1.081684(    11)      2  120.152(    29)     11  159.232(    46)      0
     13     13  H        5   1.091330(    12)      3  112.610(    30)     10  118.987(    47)      0
     14     14  H        5   1.091277(    13)      3  112.791(    31)     10 -120.143(    48)      0
     15     15  C       10   1.391778(    14)      5  123.968(    32)      3 -100.205(    49)      0
     16     16  H       10   1.084104(    15)      5  116.428(    33)     15 -161.311(    50)      0
     17     17  C       15   1.377187(    16)     10  124.797(    34)      5   18.935(    51)      0
     18     18  H       15   1.087112(    17)     10  116.287(    35)     17  164.789(    52)      0
     19     19  H       17   1.079778(    18)     15  121.296(    36)     10  -25.962(    53)      0
     20     20  H       17   1.081785(    19)     15  120.158(    37)     19 -159.400(    54)      0
 ---------------------------------------------------------------------------------------------------
                         Z-Matrix orientation:                         
 ---------------------------------------------------------------------
 Center     Atomic      Atomic             Coordinates (Angstroms)
 Number     Number       Type             X           Y           Z
 ---------------------------------------------------------------------
      1          6           0        0.000000    0.000000    0.000000
      2          6           0        0.000000    0.000000    1.391613
      3          6           0        1.264401    0.000000   -0.850590
      4          1           0       -0.912650    0.315498   -0.492464
      5          6           0        1.388593   -1.481501   -1.249336
      6          6           0        1.069720   -0.368503    2.175779
      7          1           0       -0.970972    0.072107    1.874506
      8          1           0        1.150487    0.658710   -1.712836
      9          1           0        2.128301    0.362120   -0.291164
     10          6           0        0.173335   -2.102306   -0.570774
     11          1           0        2.083502   -0.293984    1.811562
     12          1           0        0.963733   -0.417478    3.251144
     13          1           0        1.347774   -1.630056   -2.329737
     14          1           0        2.319309   -1.935394   -0.904903
     15          6           0        0.226449   -2.800774    0.631876
     16          1           0       -0.699530   -2.259565   -1.194198
     17          6           0        1.255567   -2.719052    1.543404
     18          1           0       -0.705527   -3.245149    0.972116
     19          1           0        2.255551   -2.449780    1.237715
     20          1           0        1.180538   -3.228295    2.494876
 ---------------------------------------------------------------------
                    Distance matrix (angstroms):
                    1          2          3          4          5
     1  C    0.000000
     2  C    1.391613   0.000000
     3  C    1.523881   2.574137   0.000000
     4  H    1.083969   2.117123   2.228754   0.000000
     5  C    2.384088   3.331313   1.539243   3.016252   0.000000
     6  C    2.452369   1.376595   3.054931   3.393695   3.615502
     7  H    2.112287   1.086817   3.525370   2.380165   4.211844
     8  H    2.165947   3.375666   1.091029   2.421495   2.202733
     9  H    2.178434   2.737249   1.091060   3.047963   2.205493
    10  C    2.185296   2.881093   2.385039   2.651654   1.524039
    11  H    2.776538   2.145638   2.800787   3.828436   3.355919
    12  H    3.416578   2.135632   4.133873   4.251195   4.644025
    13  H    3.146625   4.280423   2.202705   3.502894   1.091330
    14  H    3.153378   3.794592   2.204888   3.960073   1.091277
    15  C    2.880083   2.910809   3.334574   3.503260   2.574881
    16  H    2.649733   3.504482   3.013424   2.677462   2.229054
    17  C    3.369241   2.998788   3.622779   4.249048   3.057551
    18  H    3.460313   3.347347   4.211159   3.855658   3.525711
    19  H    3.552587   3.333559   3.368207   4.547282   2.806172
    20  H    4.247348   3.610090   4.649846   5.085676   4.136871
                    6          7          8          9         10
     6  C    0.000000
     7  H    2.109343   0.000000
     8  H    4.022812   4.208766   0.000000
     9  H    2.782124   3.792061   1.750782   0.000000
    10  C    3.369441   3.466540   3.143619   3.158080   0.000000
    11  H    1.079796   3.076978   3.768226   2.203165   3.548844
    12  H    1.081684   2.424439   5.082731   3.809454   4.250933
    13  H    4.687057   5.094075   2.378642   2.955295   2.167090
    14  H    3.675217   4.751959   2.957748   2.385735   2.178235
    15  C    3.001780   3.351326   4.280134   3.804332   1.391778
    16  H    4.250072   3.863589   3.493978   3.960471   1.084104
    17  C    2.441212   3.585759   4.692911   3.690654   2.453844
    18  H    3.588230   3.448036   5.088602   4.758029   2.111634
    19  H    2.572523   4.144377   4.426017   3.203193   2.779747
    20  H    2.879672   3.988296   5.728399   4.642344   3.417678
                   11         12         13         14         15
    11  H    0.000000
    12  H    1.827985   0.000000
    13  H    4.413246   5.723990   0.000000
    14  H    3.182611   4.627567   1.751361   0.000000
    15  C    3.335311   3.617215   3.376255   2.736902   0.000000
    16  H    4.543498   5.091247   2.424290   3.049945   2.117756
    17  C    2.576498   2.880761   4.024380   2.782062   1.377187
    18  H    4.146411   3.997013   4.210321   3.793190   1.087112
    19  H    2.237490   3.138940   3.771302   2.204420   2.146507
    20  H    3.145226   2.918842   5.085197   3.811416   2.136312
                   16         17         18         19         20
    16  H    0.000000
    17  C    3.395290   0.000000
    18  H    2.379985   2.109274   0.000000
    19  H    3.831825   1.079778   3.077521   0.000000
    20  H    4.252336   1.081785   2.424113   1.828167   0.000000
 Symmetry turned off by external request.
 Stoichiometry    C8H12
 Framework group  C1[X(C8H12)]
 Deg. of freedom    54
 Full point group                 C1      NOp   1
 Rotational constants (GHZ):           2.4922606           2.3094419           1.5830093
 Standard basis: def2TZVP (5D, 7F)
 The following finite field(s) will be applied:
 An electric field of             -0.0018 -0.0015  0.0009
   320 basis functions,   504 primitive gaussians,   360 cartesian basis functions
    30 alpha electrons       30 beta electrons
       nuclear repulsion energy       368.2096096436 Hartrees.
 NAtoms=   20 NActive=   20 NUniq=   20 SFac= 1.00D+00 NAtFMM=   60 NAOKFM=F Big=F
 Integral buffers will be    131072 words long.
 Raffenetti 2 integral format.
 Two-electron integral symmetry is turned off.
 One-electron integrals computed using PRISM.
   1 Symmetry operations used in ECPInt.
 ECPInt:  NShTT=    9316 NPrTT=   27240 LenC2=    9239 LenP2D=   22131.
 LDataN:  DoStor=T MaxTD1= 6 Len=  172
 NBasis=   320 RedAO= T EigKep=  2.55D-05  NBF=   320
 NBsUse=   320 1.00D-06 EigRej= -1.00D+00 NBFU=   320
 The nuclear repulsion energy is now       368.2979753371 hartrees.
 Initial guess from the checkpoint file:  "checkpoint.chk"
 B after Tr=     0.001611    0.002873   -0.000853
         Rot=    0.999999   -0.000186    0.000669    0.001378 Ang=  -0.18 deg.
 Requested convergence on RMS density matrix=1.00D-08 within 128 cycles.
 Requested convergence on MAX density matrix=1.00D-06.
 Requested convergence on             energy=1.00D-06.
 No special actions if energy rises.
 SCF Done:  E(RB3LYP) =  -312.080216263     A.U. after    8 cycles
            NFock=  8  Conv=0.76D-08     -V/T= 2.0056
   1 Symmetry operations used in ECPInt.
 ECPInt:  NShTT=    9316 NPrTT=   27240 LenC2=    9239 LenP2D=   22131.
 LDataN:  DoStor=T MaxTD1= 7 Len=  274
 Calling FoFJK, ICntrl=      2127 FMM=F ISym2X=0 I1Cent= 0 IOpClX= 0 NMat=1 NMatS=1 NMatT=0.
 -------------------------------------------------------------------
 Center     Atomic                   Forces (Hartrees/Bohr)
 Number     Number              X              Y              Z
 -------------------------------------------------------------------
      1        6           0.000151159    0.000306819   -0.000001537
      2        6          -0.000150702   -0.000192730    0.000001059
      3        6           0.000000500   -0.000117274    0.000000156
      4        1          -0.000000339   -0.000000009    0.000000095
      5        6          -0.000000944    0.000000865   -0.000000234
      6        6          -0.000000444    0.000002070    0.000000363
      7        1          -0.000000209    0.000000230    0.000000097
      8        1          -0.000000107    0.000000429   -0.000000559
      9        1           0.000000477    0.000000048    0.000000213
     10        6           0.000000173    0.000001082   -0.000000357
     11        1           0.000000234   -0.000000883   -0.000000452
     12        1          -0.000000402   -0.000000640    0.000000142
     13        1           0.000000042   -0.000000001   -0.000000272
     14        1           0.000000153    0.000000018    0.000000226
     15        6           0.000000480    0.000000826    0.000001721
     16        1          -0.000000125    0.000000029   -0.000000136
     17        6           0.000000957   -0.000001290   -0.000000854
     18        1          -0.000000802   -0.000000455   -0.000000076
     19        1           0.000000106    0.000000447    0.000000101
     20        1          -0.000000209    0.000000420    0.000000304
 -------------------------------------------------------------------
 Cartesian Forces:  Max     0.000306819 RMS     0.000056365
 -----------------------------------------------------------------------------------------------
                       Internal Coordinate Forces (Hartree/Bohr or radian)
  Cent   Atom   N1       Length/X         N2         Alpha/Y        N3         Beta/Z          J
 -----------------------------------------------------------------------------------------------
      1  C 
      2  C        1   0.000001(     1)
      3  C        1   0.000000(     2)      2   0.000003(    20)
      4  H        1   0.000000(     3)      2  -0.000000(    21)      3  -0.000000(    38)     0
      5  C        3  -0.000002(     4)      1  -0.000003(    22)      2  -0.000002(    39)     0
      6  C        2  -0.000001(     5)      1   0.000001(    23)      3  -0.000001(    40)     0
      7  H        2   0.000000(     6)      1  -0.000000(    24)      6  -0.000000(    41)     0
      8  H        3   0.000001(     7)      1  -0.000000(    25)      5  -0.000000(    42)     0
      9  H        3   0.000001(     8)      1   0.000000(    26)      5   0.000000(    43)     0
     10  C        5  -0.000001(     9)      3  -0.000004(    27)      1  -0.000004(    44)     0
     11  H        6   0.000000(    10)      2  -0.000000(    28)      1  -0.000000(    45)     0
     12  H        6   0.000000(    11)      2  -0.000000(    29)     11   0.000001(    46)     0
     13  H        5   0.000000(    12)      3  -0.000000(    30)     10   0.000000(    47)     0
     14  H        5   0.000000(    13)      3  -0.000000(    31)     10   0.000000(    48)     0
     15  C       10   0.000001(    14)      5  -0.000002(    32)      3   0.000000(    49)     0
     16  H       10   0.000000(    15)      5  -0.000000(    33)     15  -0.000000(    50)     0
     17  C       15   0.000000(    16)     10  -0.000001(    34)      5  -0.000001(    51)     0
     18  H       15   0.000001(    17)     10  -0.000001(    35)     17   0.000000(    52)     0
     19  H       17   0.000000(    18)     15   0.000000(    36)     10  -0.000000(    53)     0
     20  H       17   0.000000(    19)     15   0.000000(    37)     19  -0.000001(    54)     0
 -----------------------------------------------------------------------------------------------
 Internal  Forces:  Max     0.000003878 RMS     0.000001179

 GradGradGradGradGradGradGradGradGradGradGradGradGradGradGradGradGradGrad
 Berny optimization.
 Search for a saddle point.
 Step number   2 out of a maximum of   64
 All quantities printed in internal units (Hartrees-Bohrs-Radians)
 Swapping is turned off.
 Update second derivatives using D2CorN and points    1    2
 ITU=  0  0
     Eigenvalues ---   -0.14356   0.00455   0.01443   0.02236   0.03532
     Eigenvalues ---    0.06073   0.06105   0.07234   0.07338   0.11573
     Eigenvalues ---    0.11719   0.11886   0.13911   0.14262   0.14464
     Eigenvalues ---    0.16151   0.16814   0.16982   0.17159   0.17773
     Eigenvalues ---    0.19396   0.21976   0.23383   0.23823   0.25077
     Eigenvalues ---    0.26172   0.28236   0.29339   0.31061   0.31725
     Eigenvalues ---    0.32738   0.32958   0.33424   0.33892   0.34083
     Eigenvalues ---    0.35011   0.35175   0.35214   0.35616   0.35797
     Eigenvalues ---    0.36065   0.36760   0.36958   0.38320   0.38651
     Eigenvalues ---    0.42671   0.46284   0.47983   0.50694   0.52996
     Eigenvalues ---    0.58159   0.77767   1.22494   2.42686
 Eigenvectors required to have negative eigenvalues:
                          D15       D5        D11       D19       A5
   1                    0.45878  -0.45035   0.24499  -0.23580   0.22945
                          A10       D4        D16       R2        R15
   1                    0.22838  -0.22104  -0.21915  -0.20160  -0.19793
 RFO step:  Lambda0=2.659794607D-11 Lambda= 0.00000000D+00.
 Linear search not attempted -- option 19 set.
 Variable       Old X    -DE/DX   Delta X   Delta X   Delta X     New X
                                 (Linear)    (Quad)   (Total)
    R2        2.62977   0.00000   0.00000  -0.00000  -0.00000   2.62976
    R3        2.87972   0.00000   0.00000  -0.00000  -0.00000   2.87971
    R4        2.04840   0.00000   0.00000   0.00000   0.00000   2.04841
    R5        2.90875  -0.00000   0.00000  -0.00000  -0.00000   2.90874
    R6        2.60139  -0.00000   0.00000   0.00000   0.00000   2.60139
    R7        2.05379   0.00000   0.00000   0.00000   0.00000   2.05379
    R8        2.06175   0.00000   0.00000   0.00000   0.00000   2.06175
    R9        2.06180   0.00000   0.00000  -0.00000  -0.00000   2.06180
   R10        2.88002  -0.00000   0.00000   0.00000   0.00000   2.88002
   R11        2.04052   0.00000   0.00000  -0.00000  -0.00000   2.04052
   R12        2.04409   0.00000   0.00000   0.00000   0.00000   2.04409
   R13        2.06232   0.00000   0.00000  -0.00000  -0.00000   2.06232
   R14        2.06221   0.00000   0.00000   0.00000   0.00000   2.06222
   R15        2.63008   0.00000   0.00000   0.00000   0.00000   2.63008
   R16        2.04866   0.00000   0.00000   0.00000   0.00000   2.04866
   R17        2.60251   0.00000   0.00000  -0.00000  -0.00000   2.60251
   R18        2.05434   0.00000   0.00000   0.00000   0.00000   2.05435
   R19        2.04049   0.00000   0.00000   0.00000   0.00000   2.04049
   R20        2.04428   0.00000   0.00000  -0.00000  -0.00000   2.04428
    A3        2.16298   0.00000   0.00000   0.00000   0.00000   2.16298
    A4        2.04240  -0.00000   0.00000   0.00001   0.00001   2.04241
    A5        1.78395  -0.00000   0.00000  -0.00000  -0.00000   1.78394
    A6        2.17687   0.00000   0.00000   0.00000   0.00000   2.17687
    A7        2.03121  -0.00000   0.00000  -0.00000  -0.00000   2.03121
    A8        1.93317  -0.00000   0.00000   0.00001   0.00001   1.93319
    A9        1.95064   0.00000   0.00000  -0.00001  -0.00001   1.95064
   A10        1.78481  -0.00000   0.00000   0.00001   0.00001   1.78482
   A11        2.11642  -0.00000   0.00000   0.00001   0.00001   2.11643
   A12        2.09705  -0.00000   0.00000  -0.00000  -0.00000   2.09704
   A13        1.96542  -0.00000   0.00000  -0.00001  -0.00001   1.96540
   A14        1.96858  -0.00000   0.00000   0.00001   0.00001   1.96859
   A15        2.16365  -0.00000   0.00000   0.00000   0.00000   2.16365
   A16        2.03205  -0.00000   0.00000   0.00000   0.00000   2.03205
   A17        2.17812  -0.00000   0.00000   0.00000   0.00000   2.17812
   A18        2.02959  -0.00000   0.00000  -0.00000  -0.00000   2.02959
   A19        2.11701   0.00000   0.00000  -0.00000  -0.00000   2.11701
   A20        2.09715   0.00000   0.00000   0.00001   0.00001   2.09716
    D4       -2.80876  -0.00000   0.00000  -0.00004  -0.00004  -2.80879
    D5        1.74553  -0.00000   0.00000   0.00012   0.00012   1.74564
    D6       -0.33175  -0.00000   0.00000   0.00005   0.00005  -0.33170
    D7       -2.88397  -0.00000   0.00000  -0.00001  -0.00001  -2.88398
    D8        2.09799  -0.00000   0.00000   0.00002   0.00002   2.09801
    D9       -2.11098   0.00000   0.00000   0.00002   0.00002  -2.11096
   D10        0.00378  -0.00000   0.00000  -0.00017  -0.00017   0.00360
   D11        0.44900  -0.00000   0.00000   0.00002   0.00002   0.44902
   D12        2.77911   0.00000   0.00000   0.00002   0.00002   2.77913
   D13        2.07672   0.00000   0.00000  -0.00002  -0.00002   2.07670
   D14       -2.09689   0.00000   0.00000  -0.00002  -0.00002  -2.09691
   D15       -1.74891   0.00000   0.00000   0.00014   0.00014  -1.74877
   D16       -2.81540  -0.00000   0.00000   0.00000   0.00000  -2.81540
   D17        0.33048  -0.00000   0.00000   0.00002   0.00002   0.33050
   D18        2.87610   0.00000   0.00000   0.00001   0.00001   2.87612
   D19       -0.45313  -0.00000   0.00000   0.00004   0.00004  -0.45309
   D20       -2.78205  -0.00000   0.00000  -0.00002  -0.00002  -2.78207
         Item               Value     Threshold  Converged?
 Maximum Force            0.000004     0.000450     YES
 RMS     Force            0.000001     0.000300     YES
 Maximum Displacement     0.000175     0.001800     YES
 RMS     Displacement     0.000037     0.001200     YES
 Predicted change in Energy=-2.035344D-10
 Optimization completed.
    -- Stationary point found.
                       ----------------------------
                       !   Optimized Parameters   !
                       ! (Angstroms and Degrees)  !
 ----------------------                            ----------------------
 !      Name          Value   Derivative information (Atomic Units)     !
 ------------------------------------------------------------------------
 !       R2          1.3916   -DE/DX =    0.0                           !
 !       R3          1.5239   -DE/DX =    0.0                           !
 !       R4          1.084    -DE/DX =    0.0                           !
 !       R5          1.5392   -DE/DX =    0.0                           !
 !       R6          1.3766   -DE/DX =    0.0                           !
 !       R7          1.0868   -DE/DX =    0.0                           !
 !       R8          1.091    -DE/DX =    0.0                           !
 !       R9          1.0911   -DE/DX =    0.0                           !
 !       R10         1.524    -DE/DX =    0.0                           !
 !       R11         1.0798   -DE/DX =    0.0                           !
 !       R12         1.0817   -DE/DX =    0.0                           !
 !       R13         1.0913   -DE/DX =    0.0                           !
 !       R14         1.0913   -DE/DX =    0.0                           !
 !       R15         1.3918   -DE/DX =    0.0                           !
 !       R16         1.0841   -DE/DX =    0.0                           !
 !       R17         1.3772   -DE/DX =    0.0                           !
 !       R18         1.0871   -DE/DX =    0.0                           !
 !       R19         1.0798   -DE/DX =    0.0                           !
 !       R20         1.0818   -DE/DX =    0.0                           !
 !       A3        123.9296   -DE/DX =    0.0                           !
 !       A4        117.0209   -DE/DX =    0.0                           !
 !       A5        102.2127   -DE/DX =    0.0                           !
 !       A6        124.7253   -DE/DX =    0.0                           !
 !       A7        116.3798   -DE/DX =    0.0                           !
 !       A8        110.7626   -DE/DX =    0.0                           !
 !       A9        111.7637   -DE/DX =    0.0                           !
 !       A10       102.2621   -DE/DX =    0.0                           !
 !       A11       121.2621   -DE/DX =    0.0                           !
 !       A12       120.1518   -DE/DX =    0.0                           !
 !       A13       112.6101   -DE/DX =    0.0                           !
 !       A14       112.7912   -DE/DX =    0.0                           !
 !       A15       123.9681   -DE/DX =    0.0                           !
 !       A16       116.4278   -DE/DX =    0.0                           !
 !       A17       124.7971   -DE/DX =    0.0                           !
 !       A18       116.2871   -DE/DX =    0.0                           !
 !       A19       121.2959   -DE/DX =    0.0                           !
 !       A20       120.158    -DE/DX =    0.0                           !
 !       D4       -160.93     -DE/DX =    0.0                           !
 !       D5        100.0113   -DE/DX =    0.0                           !
 !       D6        -19.0081   -DE/DX =    0.0                           !
 !       D7       -165.239    -DE/DX =    0.0                           !
 !       D8        120.2057   -DE/DX =    0.0                           !
 !       D9       -120.95     -DE/DX =    0.0                           !
 !       D10         0.2165   -DE/DX =    0.0                           !
 !       D11        25.7258   -DE/DX =    0.0                           !
 !       D12       159.2315   -DE/DX =    0.0                           !
 !       D13       118.987    -DE/DX =    0.0                           !
 !       D14      -120.143    -DE/DX =    0.0                           !
 !       D15      -100.2054   -DE/DX =    0.0                           !
 !       D16      -161.3106   -DE/DX =    0.0                           !
 !       D17        18.9349   -DE/DX =    0.0                           !
 !       D18       164.7886   -DE/DX =    0.0                           !
 !       D19       -25.9623   -DE/DX =    0.0                           !
 !       D20      -159.3997   -DE/DX =    0.0                           !
 ------------------------------------------------------------------------
 GradGradGradGradGradGradGradGradGradGradGradGradGradGradGradGradGradGrad

 ---------------------------------------------------------------------------------------------------
                            Z-MATRIX (ANGSTROMS AND DEGREES)
   CD    Cent   Atom    N1       Length/X        N2       Alpha/Y        N3        Beta/Z          J
 ---------------------------------------------------------------------------------------------------
      1      1  C 
      2      2  C        1   1.391613(     1)
      3      3  C        1   1.523881(     2)      2  123.930(    20)
      4      4  H        1   1.083969(     3)      2  117.021(    21)      3 -160.930(    38)      0
      5      5  C        3   1.539243(     4)      1  102.213(    22)      2  100.011(    39)      0
      6      6  C        2   1.376595(     5)      1  124.725(    23)      3  -19.008(    40)      0
      7      7  H        2   1.086817(     6)      1  116.380(    24)      6 -165.239(    41)      0
      8      8  H        3   1.091029(     7)      1  110.763(    25)      5  120.206(    42)      0
      9      9  H        3   1.091060(     8)      1  111.764(    26)      5 -120.950(    43)      0
     10     10  C        5   1.524039(     9)      3  102.262(    27)      1    0.217(    44)      0
     11     11  H        6   1.079796(    10)      2  121.262(    28)      1   25.726(    45)      0
     12     12  H        6   1.081684(    11)      2  120.152(    29)     11  159.232(    46)      0
     13     13  H        5   1.091330(    12)      3  112.610(    30)     10  118.987(    47)      0
     14     14  H        5   1.091277(    13)      3  112.791(    31)     10 -120.143(    48)      0
     15     15  C       10   1.391778(    14)      5  123.968(    32)      3 -100.205(    49)      0
     16     16  H       10   1.084104(    15)      5  116.428(    33)     15 -161.311(    50)      0
     17     17  C       15   1.377187(    16)     10  124.797(    34)      5   18.935(    51)      0
     18     18  H       15   1.087112(    17)     10  116.287(    35)     17  164.789(    52)      0
     19     19  H       17   1.079778(    18)     15  121.296(    36)     10  -25.962(    53)      0
     20     20  H       17   1.081785(    19)     15  120.158(    37)     19 -159.400(    54)      0
 ---------------------------------------------------------------------------------------------------
                         Z-Matrix orientation:                         
 ---------------------------------------------------------------------
 Center     Atomic      Atomic             Coordinates (Angstroms)
 Number     Number       Type             X           Y           Z
 ---------------------------------------------------------------------
      1          6           0        0.000000    0.000000    0.000000
      2          6           0        0.000000    0.000000    1.391613
      3          6           0        1.264401    0.000000   -0.850590
      4          1           0       -0.912650    0.315498   -0.492464
      5          6           0        1.388593   -1.481501   -1.249336
      6          6           0        1.069720   -0.368503    2.175779
      7          1           0       -0.970972    0.072107    1.874506
      8          1           0        1.150487    0.658710   -1.712836
      9          1           0        2.128301    0.362120   -0.291164
     10          6           0        0.173335   -2.102306   -0.570774
     11          1           0        2.083502   -0.293984    1.811562
     12          1           0        0.963733   -0.417478    3.251144
     13          1           0        1.347774   -1.630056   -2.329737
     14          1           0        2.319309   -1.935394   -0.904903
     15          6           0        0.226449   -2.800774    0.631876
     16          1           0       -0.699530   -2.259565   -1.194198
     17          6           0        1.255567   -2.719052    1.543404
     18          1           0       -0.705527   -3.245149    0.972116
     19          1           0        2.255551   -2.449780    1.237715
     20          1           0        1.180538   -3.228295    2.494876
 ---------------------------------------------------------------------
                    Distance matrix (angstroms):
                    1          2          3          4          5
     1  C    0.000000
     2  C    1.391613   0.000000
     3  C    1.523881   2.574137   0.000000
     4  H    1.083969   2.117123   2.228754   0.000000
     5  C    2.384088   3.331313   1.539243   3.016252   0.000000
     6  C    2.452369   1.376595   3.054931   3.393695   3.615502
     7  H    2.112287   1.086817   3.525370   2.380165   4.211844
     8  H    2.165947   3.375666   1.091029   2.421495   2.202733
     9  H    2.178434   2.737249   1.091060   3.047963   2.205493
    10  C    2.185296   2.881093   2.385039   2.651654   1.524039
    11  H    2.776538   2.145638   2.800787   3.828436   3.355919
    12  H    3.416578   2.135632   4.133873   4.251195   4.644025
    13  H    3.146625   4.280423   2.202705   3.502894   1.091330
    14  H    3.153378   3.794592   2.204888   3.960073   1.091277
    15  C    2.880083   2.910809   3.334574   3.503260   2.574881
    16  H    2.649733   3.504482   3.013424   2.677462   2.229054
    17  C    3.369241   2.998788   3.622779   4.249048   3.057551
    18  H    3.460313   3.347347   4.211159   3.855658   3.525711
    19  H    3.552587   3.333559   3.368207   4.547282   2.806172
    20  H    4.247348   3.610090   4.649846   5.085676   4.136871
                    6          7          8          9         10
     6  C    0.000000
     7  H    2.109343   0.000000
     8  H    4.022812   4.208766   0.000000
     9  H    2.782124   3.792061   1.750782   0.000000
    10  C    3.369441   3.466540   3.143619   3.158080   0.000000
    11  H    1.079796   3.076978   3.768226   2.203165   3.548844
    12  H    1.081684   2.424439   5.082731   3.809454   4.250933
    13  H    4.687057   5.094075   2.378642   2.955295   2.167090
    14  H    3.675217   4.751959   2.957748   2.385735   2.178235
    15  C    3.001780   3.351326   4.280134   3.804332   1.391778
    16  H    4.250072   3.863589   3.493978   3.960471   1.084104
    17  C    2.441212   3.585759   4.692911   3.690654   2.453844
    18  H    3.588230   3.448036   5.088602   4.758029   2.111634
    19  H    2.572523   4.144377   4.426017   3.203193   2.779747
    20  H    2.879672   3.988296   5.728399   4.642344   3.417678
                   11         12         13         14         15
    11  H    0.000000
    12  H    1.827985   0.000000
    13  H    4.413246   5.723990   0.000000
    14  H    3.182611   4.627567   1.751361   0.000000
    15  C    3.335311   3.617215   3.376255   2.736902   0.000000
    16  H    4.543498   5.091247   2.424290   3.049945   2.117756
    17  C    2.576498   2.880761   4.024380   2.782062   1.377187
    18  H    4.146411   3.997013   4.210321   3.793190   1.087112
    19  H    2.237490   3.138940   3.771302   2.204420   2.146507
    20  H    3.145226   2.918842   5.085197   3.811416   2.136312
                   16         17         18         19         20
    16  H    0.000000
    17  C    3.395290   0.000000
    18  H    2.379985   2.109274   0.000000
    19  H    3.831825   1.079778   3.077521   0.000000
    20  H    4.252336   1.081785   2.424113   1.828167   0.000000
 Symmetry turned off by external request.
 Stoichiometry    C8H12
 Framework group  C1[X(C8H12)]
 Deg. of freedom    54
 Full point group                 C1      NOp   1
 Rotational constants (GHZ):           2.4922606           2.3094419           1.5830093
 1\1\GINC-BHC0068\FTS\RB3LYP\def2TZVP\C8H12\DHANAWAY\10-Jun-2022\1\\# O
 pt=(TS, CalcFC, noeigentest, Z-matrix, MaxStep=10) Field=read NoSymm B
 3LYP/Def2TZVP freq=noraman pop=none\\ts_zmat_initalOpt\\0,1\C\C,1,R2\C
 ,1,R3,2,A3\H,1,R4,2,A4,3,D4,0\C,3,R5,1,A5,2,D5,0\C,2,R6,1,A6,3,D6,0\H,
 2,R7,1,A7,6,D7,0\H,3,R8,1,A8,5,D8,0\H,3,R9,1,A9,5,D9,0\C,5,R10,3,A10,1
 ,D10,0\H,6,R11,2,A11,1,D11,0\H,6,R12,2,A12,11,D12,0\H,5,R13,3,A13,10,D
 13,0\H,5,R14,3,A14,10,D14,0\C,10,R15,5,A15,3,D15,0\H,10,R16,5,A16,15,D
 16,0\C,15,R17,10,A17,5,D17,0\H,15,R18,10,A18,17,D18,0\H,17,R19,15,A19,
 10,D19,0\H,17,R20,15,A20,19,D20,0\\R2=1.39161261\R3=1.52388075\R4=1.08
 39689\R5=1.53924277\R6=1.37659489\R7=1.08681685\R8=1.09102878\R9=1.091
 05981\R10=1.52403904\R11=1.07979629\R12=1.08168433\R13=1.09133023\R14=
 1.09127695\R15=1.39177793\R16=1.08410402\R17=1.37718709\R18=1.08711162
 \R19=1.07977846\R20=1.08178466\A3=123.92956911\A4=117.02088029\A5=102.
 21272539\A6=124.72528331\A7=116.37976441\A8=110.76260462\A9=111.763693
 94\A10=102.26207945\A11=121.26211785\A12=120.15183281\A13=112.61006237
 \A14=112.79123207\A15=123.96805523\A16=116.42779435\A17=124.79711115\A
 18=116.28714084\A19=121.29586121\A20=120.15795415\D4=-160.93001342\D5=
 100.01125197\D6=-19.00809123\D7=-165.2390396\D8=120.2056973\D9=-120.95
 004673\D10=0.21652708\D11=25.7257705\D12=159.23152632\D13=118.98703777
 \D14=-120.14300066\D15=-100.2054346\D16=-161.31058201\D17=18.93494511\
 D18=164.7886236\D19=-25.96226626\D20=-159.39970756\\Version=ES64L-G16R
 evA.03\HF=-312.0802163\RMSD=7.550e-09\RMSF=5.636e-05\Dipole=0.1074849,
 0.2042311,-0.2540904\PG=C01 [X(C8H12)]\\@


 WHAT THE SLIME CONTAINS, THE GLOWING REVEALS
 BY THE FLAME'S BRIGHT HUE WHEN YOU IGNITE IT.
   --  LEONARD THURNEYSSER, 1531-1596
 DESCRIBING HIS FLAME PHOTOLYSIS ANALYTIC METHOD
 Job cpu time:       0 days  2 hours  9 minutes 35.9 seconds.
 Elapsed time:       0 days  0 hours 10 minutes 49.1 seconds.
 File lengths (MBytes):  RWF=    163 Int=      0 D2E=      0 Chk=     32 Scr=      1
 Normal termination of Gaussian 16 at Fri Jun 10 22:43:54 2022.
 Link1:  Proceeding to internal job step number  2.
 --------------------------------------------------------------------
 #N Geom=AllCheck Guess=TCheck SCRF=Check GenChk RB3LYP/def2TZVP Freq
 --------------------------------------------------------------------
 1/5=1,8=10,10=4,11=1,29=7,30=1,38=1,40=1/1,3;
 2/12=2,15=1,40=1/2;
 3/5=44,7=101,11=2,14=-4,25=1,30=1,70=2,71=2,74=-5,116=1,140=1/1,2,3;
 4/5=101/1;
 5/5=2,38=6,98=1/2;
 8/6=4,10=90,11=11/1;
 11/6=1,8=1,9=11,15=111,16=1,31=1/1,2,10;
 10/6=1,31=1/2;
 7/8=1,10=1,25=1,30=1/1,2,3,16;
 1/5=1,8=10,10=4,11=1,30=1/3;
 99//99;
 Structure from the checkpoint file:  "checkpoint.chk"
 -----------------
 ts_zmat_initalOpt
 -----------------
 Charge =  0 Multiplicity = 1
 Z-Matrix found in chk file.
 C
 C,1,R2
 C,1,R3,2,A3
 H,1,R4,2,A4,3,D4,0
 C,3,R5,1,A5,2,D5,0
 C,2,R6,1,A6,3,D6,0
 H,2,R7,1,A7,6,D7,0
 H,3,R8,1,A8,5,D8,0
 H,3,R9,1,A9,5,D9,0
 C,5,R10,3,A10,1,D10,0
 H,6,R11,2,A11,1,D11,0
 H,6,R12,2,A12,11,D12,0
 H,5,R13,3,A13,10,D13,0
 H,5,R14,3,A14,10,D14,0
 C,10,R15,5,A15,3,D15,0
 H,10,R16,5,A16,15,D16,0
 C,15,R17,10,A17,5,D17,0
 H,15,R18,10,A18,17,D18,0
 H,17,R19,15,A19,10,D19,0
 H,17,R20,15,A20,19,D20,0
      Variables:
 R2=1.39161261
 R3=1.52388075
 R4=1.0839689
 R5=1.53924277
 R6=1.37659489
 R7=1.08681685
 R8=1.09102878
 R9=1.09105981
 R10=1.52403904
 R11=1.07979629
 R12=1.08168433
 R13=1.09133023
 R14=1.09127695
 R15=1.39177793
 R16=1.08410402
 R17=1.37718709
 R18=1.08711162
 R19=1.07977846
 R20=1.08178466
 A3=123.92956911
 A4=117.02088029
 A5=102.21272539
 A6=124.72528331
 A7=116.37976441
 A8=110.76260462
 A9=111.76369394
 A10=102.26207945
 A11=121.26211785
 A12=120.15183281
 A13=112.61006237
 A14=112.79123207
 A15=123.96805523
 A16=116.42779435
 A17=124.79711115
 A18=116.28714084
 A19=121.29586121
 A20=120.15795415
 D4=-160.93001342
 D5=100.01125197
 D6=-19.00809123
 D7=-165.2390396
 D8=120.2056973
 D9=-120.95004673
 D10=0.21652708
 D11=25.7257705
 D12=159.23152632
 D13=118.98703777
 D14=-120.14300066
 D15=-100.2054346
 D16=-161.31058201
 D17=18.93494511
 D18=164.7886236
 D19=-25.96226626
 D20=-159.39970756
 Recover connectivity data from disk.

 GradGradGradGradGradGradGradGradGradGradGradGradGradGradGradGradGradGrad
 Berny optimization.
 Initialization pass.
                       ----------------------------
                       !    Initial Parameters    !
                       ! (Angstroms and Degrees)  !
 ----------------------                            ----------------------
 !      Name          Value   Derivative information (Atomic Units)     !
 ------------------------------------------------------------------------
 !       R2          1.3916   calculate D2E/DX2 analytically            !
 !       R3          1.5239   calculate D2E/DX2 analytically            !
 !       R4          1.084    calculate D2E/DX2 analytically            !
 !       R5          1.5392   calculate D2E/DX2 analytically            !
 !       R6          1.3766   calculate D2E/DX2 analytically            !
 !       R7          1.0868   calculate D2E/DX2 analytically            !
 !       R8          1.091    calculate D2E/DX2 analytically            !
 !       R9          1.0911   calculate D2E/DX2 analytically            !
 !       R10         1.524    calculate D2E/DX2 analytically            !
 !       R11         1.0798   calculate D2E/DX2 analytically            !
 !       R12         1.0817   calculate D2E/DX2 analytically            !
 !       R13         1.0913   calculate D2E/DX2 analytically            !
 !       R14         1.0913   calculate D2E/DX2 analytically            !
 !       R15         1.3918   calculate D2E/DX2 analytically            !
 !       R16         1.0841   calculate D2E/DX2 analytically            !
 !       R17         1.3772   calculate D2E/DX2 analytically            !
 !       R18         1.0871   calculate D2E/DX2 analytically            !
 !       R19         1.0798   calculate D2E/DX2 analytically            !
 !       R20         1.0818   calculate D2E/DX2 analytically            !
 !       A3        123.9296   calculate D2E/DX2 analytically            !
 !       A4        117.0209   calculate D2E/DX2 analytically            !
 !       A5        102.2127   calculate D2E/DX2 analytically            !
 !       A6        124.7253   calculate D2E/DX2 analytically            !
 !       A7        116.3798   calculate D2E/DX2 analytically            !
 !       A8        110.7626   calculate D2E/DX2 analytically            !
 !       A9        111.7637   calculate D2E/DX2 analytically            !
 !       A10       102.2621   calculate D2E/DX2 analytically            !
 !       A11       121.2621   calculate D2E/DX2 analytically            !
 !       A12       120.1518   calculate D2E/DX2 analytically            !
 !       A13       112.6101   calculate D2E/DX2 analytically            !
 !       A14       112.7912   calculate D2E/DX2 analytically            !
 !       A15       123.9681   calculate D2E/DX2 analytically            !
 !       A16       116.4278   calculate D2E/DX2 analytically            !
 !       A17       124.7971   calculate D2E/DX2 analytically            !
 !       A18       116.2871   calculate D2E/DX2 analytically            !
 !       A19       121.2959   calculate D2E/DX2 analytically            !
 !       A20       120.158    calculate D2E/DX2 analytically            !
 !       D4       -160.93     calculate D2E/DX2 analytically            !
 !       D5        100.0113   calculate D2E/DX2 analytically            !
 !       D6        -19.0081   calculate D2E/DX2 analytically            !
 !       D7       -165.239    calculate D2E/DX2 analytically            !
 !       D8        120.2057   calculate D2E/DX2 analytically            !
 !       D9       -120.95     calculate D2E/DX2 analytically            !
 !       D10         0.2165   calculate D2E/DX2 analytically            !
 !       D11        25.7258   calculate D2E/DX2 analytically            !
 !       D12       159.2315   calculate D2E/DX2 analytically            !
 !       D13       118.987    calculate D2E/DX2 analytically            !
 !       D14      -120.143    calculate D2E/DX2 analytically            !
 !       D15      -100.2054   calculate D2E/DX2 analytically            !
 !       D16      -161.3106   calculate D2E/DX2 analytically            !
 !       D17        18.9349   calculate D2E/DX2 analytically            !
 !       D18       164.7886   calculate D2E/DX2 analytically            !
 !       D19       -25.9623   calculate D2E/DX2 analytically            !
 !       D20      -159.3997   calculate D2E/DX2 analytically            !
 ------------------------------------------------------------------------
 Trust Radius=1.00D-01 FncErr=1.00D-07 GrdErr=1.00D-07 EigMax=2.50D+02 EigMin=1.00D-04
 Number of steps in this run=      2 maximum allowed number of steps=      2.
 Search for a saddle point of order  1.
 GradGradGradGradGradGradGradGradGradGradGradGradGradGradGradGradGradGrad

                          Input orientation:                          
 ---------------------------------------------------------------------
 Center     Atomic      Atomic             Coordinates (Angstroms)
 Number     Number       Type             X           Y           Z
 ---------------------------------------------------------------------
      1          6           0        0.000000    0.000000    0.000000
      2          6           0        0.000000    0.000000    1.391613
      3          6           0        1.264401    0.000000   -0.850590
      4          1           0       -0.912650    0.315498   -0.492464
      5          6           0        1.388593   -1.481501   -1.249336
      6          6           0        1.069720   -0.368503    2.175779
      7          1           0       -0.970972    0.072107    1.874506
      8          1           0        1.150487    0.658710   -1.712836
      9          1           0        2.128301    0.362120   -0.291164
     10          6           0        0.173335   -2.102306   -0.570774
     11          1           0        2.083502   -0.293984    1.811562
     12          1           0        0.963733   -0.417478    3.251144
     13          1           0        1.347774   -1.630056   -2.329737
     14          1           0        2.319309   -1.935394   -0.904903
     15          6           0        0.226449   -2.800774    0.631876
     16          1           0       -0.699530   -2.259565   -1.194198
     17          6           0        1.255567   -2.719052    1.543404
     18          1           0       -0.705527   -3.245149    0.972116
     19          1           0        2.255551   -2.449780    1.237715
     20          1           0        1.180538   -3.228295    2.494876
 ---------------------------------------------------------------------
                    Distance matrix (angstroms):
                    1          2          3          4          5
     1  C    0.000000
     2  C    1.391613   0.000000
     3  C    1.523881   2.574137   0.000000
     4  H    1.083969   2.117123   2.228754   0.000000
     5  C    2.384088   3.331313   1.539243   3.016252   0.000000
     6  C    2.452369   1.376595   3.054931   3.393695   3.615502
     7  H    2.112287   1.086817   3.525370   2.380165   4.211844
     8  H    2.165947   3.375666   1.091029   2.421495   2.202733
     9  H    2.178434   2.737249   1.091060   3.047963   2.205493
    10  C    2.185296   2.881093   2.385039   2.651654   1.524039
    11  H    2.776538   2.145638   2.800787   3.828436   3.355919
    12  H    3.416578   2.135632   4.133873   4.251195   4.644025
    13  H    3.146625   4.280423   2.202705   3.502894   1.091330
    14  H    3.153378   3.794592   2.204888   3.960073   1.091277
    15  C    2.880083   2.910809   3.334574   3.503260   2.574881
    16  H    2.649733   3.504482   3.013424   2.677462   2.229054
    17  C    3.369241   2.998788   3.622779   4.249048   3.057551
    18  H    3.460313   3.347347   4.211159   3.855658   3.525711
    19  H    3.552587   3.333559   3.368207   4.547282   2.806172
    20  H    4.247348   3.610090   4.649846   5.085676   4.136871
                    6          7          8          9         10
     6  C    0.000000
     7  H    2.109343   0.000000
     8  H    4.022812   4.208766   0.000000
     9  H    2.782124   3.792061   1.750782   0.000000
    10  C    3.369441   3.466540   3.143619   3.158080   0.000000
    11  H    1.079796   3.076978   3.768226   2.203165   3.548844
    12  H    1.081684   2.424439   5.082731   3.809454   4.250933
    13  H    4.687057   5.094075   2.378642   2.955295   2.167090
    14  H    3.675217   4.751959   2.957748   2.385735   2.178235
    15  C    3.001780   3.351326   4.280134   3.804332   1.391778
    16  H    4.250072   3.863589   3.493978   3.960471   1.084104
    17  C    2.441212   3.585759   4.692911   3.690654   2.453844
    18  H    3.588230   3.448036   5.088602   4.758029   2.111634
[...]
 0.00009320,-0.00017465,-0.02017488,0.15075300,-0.00291591,0.00889524,-
 0.01599909,0.00312762,0.00042611,0.00026326,-0.02519007,0.12456442,-0.
 21313902,-0.00009137,-0.00063572,0.00146353,0.00126153,-0.00784747,0.0
 0857542,-0.00023212,0.00006001,0.00000719,0.00008870,-0.00032091,-0.00
 081526,0.02452628,-0.13308742,0.23051141,-0.02340440,-0.00467797,-0.01
 283773,0.00093827,0.00110256,-0.00249053,-0.20937322,-0.06614312,-0.10
 717804,-0.00282739,-0.00194822,0.00254941,0.00492332,0.00284957,0.0032
 9416,0.00061146,-0.00070993,-0.00008622,0.00015724,0.00027885,-0.00014
 657,-0.00216954,-0.00040272,-0.00215184,0.22836250,0.00204648,0.000663
 03,0.00274840,-0.00040814,0.00111062,-0.00075078,-0.06582188,-0.072706
 32,-0.04222998,0.00098491,-0.00053210,-0.00073238,-0.02222534,-0.01007
 697,-0.01664414,-0.00032500,-0.00093044,0.00031035,0.00007466,-0.00003
 941,0.00006436,0.01604981,0.00715907,0.00972870,0.07011142,0.07952899,
 0.01493272,0.00447886,0.01213252,-0.00002642,0.00038626,0.00046786,-0.
 10778273,-0.04279361,-0.12013172,0.00260446,-0.00011238,-0.00141645,-0
 .00531727,-0.00119759,-0.00553291,0.00061162,0.00109243,-0.00079564,-0
 .00028546,-0.00047222,0.00035068,-0.02101004,-0.00824903,-0.01331116,0
 .11652676,0.04750518,0.12818193,-0.00266798,-0.01222556,-0.02207523,0.
 00599310,-0.00152589,0.01889936,-0.00674979,-0.00807458,0.00590820,0.0
 0096407,0.00564140,0.00071314,-0.15694186,-0.03996785,0.03314005,-0.00
 801968,0.01049349,-0.00734158,0.00011206,-0.00101126,0.00018678,-0.000
 86173,0.00049082,0.00073727,-0.00038901,0.00071278,-0.00005902,0.52268
 119,0.00853350,0.07168823,0.05036869,-0.03108654,-0.00269647,-0.063961
 93,-0.03677870,-0.03684080,0.01693722,-0.00246134,-0.00844747,-0.00118
 284,-0.04821261,-0.07373693,0.03415965,0.02794200,-0.04078276,0.011169
 12,-0.00017118,0.00103942,-0.00056292,-0.00196804,-0.00319418,-0.00048
 851,-0.00090004,-0.00387487,0.00083868,0.12817023,0.20320740,-0.011760
 75,-0.00570630,-0.00951243,-0.00084423,-0.00606620,-0.00022395,0.00575
 902,-0.00467204,0.00000124,0.00130480,0.00486589,0.00038360,0.03375931
 ,0.02870550,-0.10601303,-0.00296083,0.01290145,-0.00133769,0.00024707,
 0.00039114,0.00017065,-0.00021343,-0.00044440,-0.00033960,0.00131504,-
 0.00000046,-0.00039864,0.10620733,-0.15742502,0.60219382,0.00039377,0.
 00003341,0.00183528,-0.02017250,-0.00179630,0.01063168,0.00044766,-0.0
 0089958,0.00029926,0.00016260,0.00007905,-0.00014377,0.00012675,-0.000
 19071,-0.00027943,-0.30624257,-0.01467720,0.09182540,-0.00202402,0.001
 09696,-0.00299961,0.00046491,0.00018069,0.00031960,0.00071319,0.000343
 82,-0.00010528,-0.00052474,0.00026527,-0.00002850,0.32503829,-0.001362
 77,-0.00748075,-0.00490265,0.01451574,0.00150125,0.00381843,0.00047414
 ,-0.00039338,-0.00046494,0.00013548,0.00002845,0.00010322,0.00027886,0
 .00048304,-0.00071527,-0.02642272,-0.02271454,0.00944326,0.00306300,0.
 00659382,0.00233026,0.00003729,0.00011462,-0.00013939,-0.00011579,0.00
 013481,0.00093676,-0.00145133,0.00474029,-0.00232102,0.01398184,0.0290
 6512,0.00012785,-0.00184027,-0.00139160,-0.01486869,-0.00271010,0.0137
 7321,-0.00125823,-0.00032928,-0.00134759,0.00045599,0.00056743,0.00022
 473,0.00024573,-0.00000538,-0.00001285,0.09244836,0.01208514,-0.091759
 89,-0.00270566,0.00222153,-0.00113781,0.00004175,0.00008626,0.00010111
 ,0.00046722,0.00057755,-0.00117901,-0.00042859,0.00135625,-0.00063035,
 -0.10070950,-0.01014928,0.08900145,-0.00387286,0.00158145,-0.00231269,
 0.00574465,-0.00048675,-0.02612386,-0.00050483,-0.00037993,0.00016765,
 -0.00000979,0.00030487,-0.00128622,0.00001962,-0.00006361,-0.00001315,
 -0.05963595,0.00165016,0.03423515,0.00121756,-0.00090370,0.00009998,0.
 00034184,0.00011882,0.00013749,0.00054611,0.00029817,0.00004652,-0.000
 51171,0.00102252,-0.00004302,0.00033797,-0.00052080,0.02674954,0.05598
 542,0.00243234,0.00403907,-0.00117254,0.00011390,0.00215812,0.01352058
 ,0.00057078,0.00025245,0.00009424,0.00014337,0.00025282,0.00006574,-0.
 00009846,-0.00015015,0.00016407,-0.00078130,-0.02782775,0.00951853,-0.
 00100920,-0.00474288,-0.00099907,0.00010565,0.00005067,0.00015701,-0.0
 0001235,0.00022352,-0.00046509,-0.00100471,0.00140199,-0.00041604,0.00
 004113,0.00138535,0.00227635,-0.00175505,0.02511399,-0.00268540,0.0021
 5492,0.00025586,0.00519105,-0.00068605,-0.01337057,-0.00015289,0.00007
 897,0.00033401,0.00007174,-0.00016212,-0.00092723,-0.00007213,0.000051
 53,0.00004078,0.03033849,0.01807718,-0.33675959,-0.00040405,-0.0005837
 5,0.00101468,-0.00003980,-0.00002521,-0.00004670,-0.00013665,-0.000097
 70,0.00007220,0.00008175,-0.00018509,0.00026134,-0.00086838,0.00027275
 ,-0.00650703,-0.03128485,-0.01877456,0.35552694,-0.00113183,0.00213427
 ,0.00097970,-0.00052641,-0.00001765,-0.00103393,-0.00105024,0.00070169
 ,0.00132700,-0.00007146,0.00025759,0.00010088,-0.04933556,-0.00093366,
 -0.01529794,0.00054729,-0.00048420,0.00026583,-0.00002069,-0.00011355,
 -0.00007073,0.00119853,0.00003365,0.00026581,0.00016686,-0.00068106,0.
 00011285,0.00149310,-0.00043676,0.02907181,0.00008825,0.00019682,0.000
 08943,0.00006576,0.00008019,-0.00000967,0.05112206,-0.00049318,-0.0027
 6192,-0.00094069,0.00106853,0.00026094,-0.00015306,-0.00314647,-0.0053
 5711,-0.03007291,0.00041464,-0.00002657,-0.00027865,-0.00130308,-0.049
 85073,-0.03234475,-0.00009098,-0.00002505,0.00016931,0.00006574,0.0003
 0195,-0.00015110,-0.00036379,0.00242600,0.00034892,0.00087556,-0.00358
 523,-0.00188120,0.00214665,0.00062350,0.01667022,-0.00002998,-0.000109
 35,0.00009601,0.00003347,0.00003946,-0.00002663,0.00301030,0.05641723,
 0.00050579,-0.00087393,-0.00060207,0.00041974,-0.00009249,0.00070515,-
 0.00141467,-0.00016529,-0.00440638,0.00014117,-0.00022249,-0.00011007,
 -0.01386858,-0.03288621,-0.30321763,-0.00033625,0.00023321,-0.00000904
 ,0.00004424,0.00009854,0.00001549,0.00017754,0.00012958,0.00170761,0.0
 0090865,-0.00073455,0.00011689,-0.00128097,0.00035525,-0.01289951,0.00
 003791,-0.00005960,0.00000434,0.00001514,0.00001564,-0.00002029,0.0132
 5306,0.03485749,0.32717650,-0.00041278,0.00057677,0.00181743,-0.000365
 98,0.00019370,-0.00088875,0.00124533,-0.00099548,-0.00024051,0.0000738
 5,0.00000817,-0.00002683,-0.23417870,0.09058896,-0.07227748,0.00045408
 ,-0.00039997,0.00050866,-0.00001852,-0.00005397,-0.00002642,0.00012330
 ,-0.00055044,0.00057957,0.00130637,-0.00008297,0.00026900,-0.02307152,
 0.00615257,-0.00903308,-0.00001366,0.00035467,0.00021904,0.00008084,0.
 00002559,-0.00001223,-0.00036845,0.00010015,-0.00119298,0.25496321,-0.
 00021217,-0.00264264,-0.00099438,0.00105318,-0.00032389,0.00063271,0.0
 2428301,-0.01349271,0.01143113,0.00037943,0.00014825,-0.00018654,0.090
 60333,-0.08958643,0.03574012,-0.00008816,0.00040159,-0.00008138,0.0000
 0065,0.00020650,-0.00016640,0.00124126,-0.00380964,-0.00149358,-0.0002
 8051,0.00249323,0.00040640,-0.01359989,0.00620293,-0.00778467,-0.00005
 384,-0.00014928,-0.00016712,-0.00008317,0.00002111,0.00000854,-0.00388
 952,0.00214634,-0.00084561,-0.09709809,0.09881481,-0.00004266,-0.00210
 040,-0.00155008,0.00057991,-0.00007336,0.00064371,0.00733310,-0.004242
 74,0.00149457,0.00008054,0.00016377,-0.00002656,-0.07307867,0.03616220
 ,-0.07747253,-0.00041728,0.00060645,-0.00030232,0.00002081,0.00013087,
 -0.00001560,0.00049801,-0.00036928,0.00036358,0.00022922,0.00020810,0.
 00150528,0.01155292,-0.00541462,0.00622415,-0.00014850,-0.00013089,-0.
 00006701,-0.00009098,-0.00011881,0.00001064,-0.02824839,0.01325922,-0.
 01017075,0.07964596,-0.03835506,0.08138942,0.00116826,0.03023069,0.015
 56423,-0.00733030,0.00883031,-0.02375868,-0.00651566,0.00065262,0.0050
 5417,-0.00004025,-0.00106429,-0.00014504,0.00289118,-0.01733329,0.0245
 1091,0.01052495,-0.02300823,0.00328035,-0.00029259,-0.00036269,-0.0003
 2814,-0.00037055,-0.00122024,-0.00021033,-0.00015531,-0.00125043,-0.00
 001150,-0.09635632,-0.04512308,0.00430730,0.00044375,0.00305903,0.0006
 6909,0.00067477,0.00114667,-0.00023219,-0.00450832,-0.00207431,0.00266
 816,0.00090738,0.00036114,0.00023017,0.63354633,-0.00255186,-0.0292616
 9,-0.01087438,0.00492213,-0.01398606,0.00970462,0.00201659,-0.00094956
 ,-0.00202780,0.00024565,0.00090872,0.00007179,0.00072620,-0.00356025,0
 .00682899,-0.00445924,0.00047119,-0.00229168,-0.00005341,0.00022759,0.
 00020026,0.00044395,0.00015568,-0.00016447,0.00023220,0.00002743,-0.00
 020970,-0.01410222,-0.10574172,0.13328829,0.00008931,-0.00065337,-0.00
 044541,-0.00026927,-0.00037457,0.00001750,0.00039470,-0.00105255,-0.00
 067254,0.00031771,0.00090668,-0.00017636,0.14284182,0.29293356,0.00881
 167,0.04818281,0.03081079,-0.02439203,0.00235369,-0.04264912,-0.008055
 39,0.00112449,0.00419215,-0.00132988,-0.00443407,-0.00034294,-0.000095
 56,0.00663999,-0.00469940,0.02056988,-0.04899646,0.00212668,0.00008091
 ,0.00087940,-0.00029054,-0.00088403,-0.00031086,0.00063982,-0.00071414
 ,-0.00112899,0.00011173,-0.00387534,0.07738258,-0.28434012,-0.00001239
 ,0.00530240,0.00157010,0.00060230,0.00097776,-0.00026318,-0.00068667,0
 .00052709,0.00052369,-0.00290781,0.00048064,0.00070642,0.07991095,-0.1
 7381333,0.58181236,0.00132139,0.00244087,0.00370316,-0.00024836,0.0006
 5422,-0.00191295,-0.00121914,0.00011550,0.00054017,0.00051916,-0.00069
 493,-0.00001413,-0.01617882,-0.00164434,-0.01290287,0.00083571,-0.0014
 0649,0.00077324,-0.00002304,0.00004730,-0.00005945,0.00003729,-0.00038
 626,-0.00010845,0.00014012,-0.00037063,-0.00009925,-0.23114318,-0.0395
 0299,-0.13130370,0.00006298,0.00027048,0.00011148,0.00006468,0.0000314
 7,-0.00002524,0.00144932,0.00043014,0.00005034,-0.00276277,-0.00246143
 ,0.00162389,-0.00127553,-0.00100708,-0.00131937,0.24411614,-0.00401714
 ,-0.00500307,-0.00756203,0.00104609,-0.00112322,0.00371635,0.00013442,
 -0.00015340,0.00104374,0.00054601,0.00093640,-0.00018301,-0.00797915,0
 .00058930,-0.00536918,-0.00172022,0.00236867,-0.00142177,0.00007877,-0
 .00016236,-0.00003482,-0.00023741,-0.00037071,0.00009906,0.00001993,0.
 00003065,-0.00010825,-0.04512278,-0.03763765,-0.02141209,-0.00002946,-
 0.00035760,-0.00006655,-0.00002237,-0.00015332,0.00002384,0.00019976,0
 .00124885,0.00049360,0.00015204,-0.00144178,0.00055853,0.01779483,0.00
 413898,0.01719225,0.04190184,0.03957733,-0.00179036,-0.00194524,-0.003
 48453,0.00045437,-0.00057586,0.00188361,0.00076269,-0.00011564,-0.0002
 4314,0.00028049,0.00042217,0.00057455,0.01349728,0.00259686,0.00874152
 ,-0.00076253,0.00144186,-0.00058181,0.00006354,-0.00002166,-0.00002551
 ,-0.00007743,0.00015272,0.00012293,-0.00006705,0.00022762,0.00001542,-
 0.13180008,-0.01167477,-0.14413849,0.00000260,-0.00016974,-0.00007461,
 -0.00003516,-0.00006172,0.00002689,-0.00041556,-0.00042483,0.00161235,
 0.00295652,0.00126032,-0.00060732,-0.02176509,-0.00627766,-0.01146727,
 0.13962754,0.01284535,0.15226757,-0.00331397,-0.01926771,-0.01225220,0
 .00686841,-0.00157231,0.01378568,0.00431060,-0.00118771,-0.00258255,0.
 00042414,0.00156837,0.00025692,0.00202031,0.00243586,-0.00175979,-0.01
 592291,0.01480484,-0.00154822,-0.00002604,-0.00055595,0.00025976,0.000
 45746,0.00030690,-0.00018377,0.00038149,0.00030215,-0.00027476,-0.0024
 4083,0.03434352,-0.02205245,-0.00116044,-0.00593967,-0.00109957,-0.000
 94801,0.00018098,0.00039581,-0.00014095,-0.00019009,-0.00037002,0.0004
 8290,0.00011314,0.00084901,-0.27197075,-0.03730269,-0.12396612,0.00324
 183,-0.00425268,-0.00008587,0.65461231,-0.00154378,-0.02411359,-0.0263
 8796,0.02141764,-0.01891416,0.03920408,0.00340575,-0.00058279,-0.00205
 007,0.00063336,0.00186832,-0.00009304,0.00348825,-0.00047419,-0.001389
 81,-0.02116691,0.04408462,-0.00064367,0.00011867,0.00002186,0.00047337
 ,0.00030945,0.00026459,-0.00014129,0.00004703,0.00052928,-0.00019378,0
 .00541738,0.03567417,-0.00208823,0.00040204,-0.01106582,-0.00285349,-0
 .00073967,-0.00159441,0.00037968,0.00074464,-0.00008085,-0.00018396,0.
 00078981,-0.00012730,-0.00064296,-0.00868874,-0.06665022,0.04569223,0.
 00022357,-0.00003429,0.00363244,0.09867888,0.18100418,-0.00732451,-0.0
 2498957,-0.02302628,0.01550070,-0.00915145,0.02561067,0.00330602,-0.00
 087451,-0.00135989,0.00098811,0.00292312,0.00023275,0.00311557,-0.0013
 1979,-0.00175139,-0.01379030,0.03083624,-0.01040767,-0.00007088,0.0002
 5497,0.00048053,0.00049840,0.00003354,-0.00017508,0.00057354,0.0006501
 1,-0.00032470,-0.03496324,0.04070837,-0.04120419,0.00061679,-0.0031457
 0,-0.00145493,-0.00102604,-0.00497712,0.00002213,-0.00007047,-0.000055
 64,-0.00007715,0.00042318,0.00004682,-0.00140012,-0.14205810,-0.000188
 40,-0.19167315,0.00034398,0.00207032,-0.00392300,0.07510332,-0.2043779
 6,0.58603406,-0.00001879,-0.00010421,0.00028219,-0.00034410,-0.0001367
 2,0.00015582,-0.00032527,-0.00042231,0.00013091,-0.00000942,-0.0000803
 8,0.00002442,0.00188994,-0.00082286,-0.00109691,-0.00008292,-0.0001106
 3,-0.00007713,0.00022669,0.00011455,-0.00003688,-0.00002066,-0.0001236
 1,-0.00000424,-0.00002053,-0.00004888,0.00002070,0.00173337,0.00084922
 ,-0.00173128,0.00016697,0.00009368,-0.00005835,-0.00001844,-0.00006169
 ,-0.00004908,0.00014451,-0.00008022,-0.00002858,0.00018949,0.00014275,
 -0.00032034,-0.24851160,-0.09859993,0.06868065,0.00083757,0.00117266,0
 .00060715,-0.02112663,-0.00995152,0.00853039,0.26590512,0.00067713,0.0
 0090951,0.00006564,0.00033440,0.00062682,-0.00036163,0.00075856,0.0012
 6800,-0.00031870,0.00001064,-0.00017316,-0.00005222,-0.00000875,0.0045
 8569,0.00443727,0.00027484,0.00050113,-0.00027986,0.00004355,-0.000581
 00,-0.00019373,0.00009649,0.00020427,0.00001982,0.00003391,0.00014109,
 -0.00004144,-0.01571293,-0.00611750,0.00787426,-0.00017453,0.00009600,
 0.00012453,-0.00000759,-0.00008626,-0.00000022,-0.00117167,-0.00070355
 ,0.00046584,-0.00012811,-0.00011973,0.00014186,-0.09411378,-0.08591040
 ,0.03680257,0.00191971,-0.00279737,-0.00154463,-0.00241634,0.00265721,
 0.00166756,0.10885019,0.08280144,0.00051882,0.00101870,0.00053217,-0.0
 0014923,0.00028428,-0.00064898,0.00053420,0.00059906,-0.00027337,-0.00
 006779,-0.00005259,-0.00003938,-0.00350522,0.00397300,-0.00147995,0.00
 056336,-0.00043348,0.00006251,-0.00005493,-0.00019914,0.00007038,-0.00
 004961,0.00024840,0.00011306,-0.00004438,0.00025133,0.00005445,0.02685
 508,0.01090325,-0.00876734,-0.00007245,0.00026349,0.00003734,0.0000043
 7,-0.00001728,-0.00000853,0.00040433,0.00041811,-0.00040543,-0.0002207
 9,-0.00037416,0.00040301,0.06930786,0.04089480,-0.08061098,0.00066158,
 -0.00214802,0.00005191,-0.02079079,-0.00718589,0.00900903,-0.07129823,
 -0.04827804,0.08305807,-0.00059941,-0.00085576,-0.00097134,0.00098586,
 -0.00026476,0.00086008,0.00015785,0.00030428,-0.00026566,0.00009437,0.
 00010575,0.00002543,0.00029873,0.00085649,0.00070426,-0.00229812,0.000
 87437,0.00071661,0.00014886,0.00017333,0.00005733,0.00011200,0.0000428
 0,0.00004739,0.00002988,0.00015929,-0.00010330,-0.00002604,0.00053998,
 0.00137201,0.00153714,-0.00074587,-0.00058003,0.00014667,0.00015409,-0
 .00010518,0.00050324,-0.00024522,0.00017736,0.00078393,-0.00022871,-0.
 00014109,-0.01768085,-0.00704948,0.01018268,0.00021173,-0.00000528,-0.
 00015230,-0.29915473,-0.07471370,0.07158393,-0.00141352,-0.00081255,-0
 .00344164,0.31499177,0.00068866,0.00317701,0.00444174,-0.00298206,0.00
 151547,-0.00519545,-0.00043424,0.00002826,0.00066010,-0.00021948,-0.00
 040805,-0.00002269,0.00042794,-0.00088610,0.00075371,0.00716214,-0.010
 34735,-0.00216121,-0.00006707,0.00027526,-0.00013704,-0.00018305,-0.00
 009654,0.00001379,-0.00035697,-0.00028625,-0.00000361,0.00254663,-0.00
 855240,0.00103036,0.00129522,-0.00066638,-0.00073048,-0.00002244,-0.00
 048925,-0.00018055,0.00000451,0.00003698,0.00016082,-0.00011753,0.0004
 3953,0.00000442,-0.00830382,0.00313688,-0.00782026,-0.00038108,0.00033
 574,-0.00004896,-0.06488822,-0.04493742,0.03591223,-0.00256276,0.00628
 935,0.00154832,0.08125394,0.05296799,0.00014650,0.00081088,0.00115804,
 -0.00100000,0.00054082,-0.00119133,0.00004320,0.00003999,0.00044382,-0
 .00001867,-0.00011392,-0.00004478,-0.00129690,0.00035803,-0.00073047,0
 .00244508,-0.00251509,-0.00112528,-0.00008710,-0.00000495,-0.00011742,
 0.00000682,-0.00013900,-0.00004117,0.00000430,0.00007522,0.00002569,0.
 00116295,-0.00235638,0.00007765,-0.00006310,-0.00010417,0.00078760,0.0
 0007158,-0.00022799,0.00001480,0.00004711,-0.00009548,0.00014023,0.000
 51069,0.00045493,-0.00147311,-0.02078009,-0.00569160,0.00977133,0.0004
 0280,-0.00042450,-0.00010846,0.07844062,0.03369879,-0.07591540,-0.0042
 1892,0.00166374,-0.00149137,-0.07897505,-0.03126424,0.07450099,-0.0004
 6440,-0.00112245,-0.00073521,0.00082166,0.00002712,0.00084829,-0.00000
 002,0.00006499,0.00005193,0.00005938,0.00007040,-0.00001139,-0.0004610
 2,0.00012664,0.00030685,-0.00109788,0.00155460,-0.00107978,-0.00003071
 ,0.00001166,0.00001129,0.00008053,-0.00002925,-0.00000316,0.00006259,0
 .00013085,-0.00004958,-0.00327250,-0.00117752,-0.00337242,0.00015369,0
 .00009791,0.00008313,0.00027568,-0.00030342,-0.00000108,0.00037498,-0.
 00012788,0.00009293,0.00058170,-0.00018241,-0.00015564,0.00485142,0.01
 316491,-0.02060031,0.00001292,0.00034015,-0.00130075,-0.05659418,-0.01
 887213,0.01871961,0.00079821,0.00154683,0.00084545,0.00117065,-0.01286
 031,0.02315817,0.05267727,0.00059696,0.00093008,0.00075715,-0.00078562
 ,-0.00003095,-0.00078265,0.00012689,0.00002235,-0.00016700,0.00001237,
 -0.00012104,-0.00002987,-0.00057310,0.00030189,-0.00004940,-0.00017240
 ,-0.00303844,0.00302991,0.00008673,-0.00006006,-0.00001580,-0.00005587
 ,0.00000420,0.00000568,-0.00000340,-0.00001012,0.00008333,-0.00182037,
 0.00304481,0.00260936,0.00004287,-0.00055228,-0.00009369,0.00024489,0.
 00048002,-0.00034302,-0.00003004,0.00005167,-0.00007333,0.00016642,-0.
 00008754,0.00038905,-0.00237422,0.00523368,-0.00703391,-0.00017988,0.0
 0000884,0.00028135,-0.01516124,-0.09752918,0.13397688,0.00188268,-0.00
 359153,-0.00171413,0.00045700,-0.00153272,0.00529494,0.01753932,0.0964
 7631,0.00041776,0.00059311,0.00080282,-0.00072834,0.00007179,-0.000735
 86,-0.00000368,-0.00008005,-0.00009210,-0.00001696,-0.00010927,-0.0000
 0528,-0.00044081,-0.00013204,0.00024195,0.00044968,-0.00211460,0.00156
 884,-0.00000794,-0.00003916,-0.00001973,-0.00005088,0.00003953,-0.0000
 0186,-0.00001515,-0.00002794,0.00005560,-0.00362079,-0.00092697,0.0004
 9290,-0.00013762,-0.00016790,0.00006280,0.00008624,0.00044029,0.000322
 85,-0.00008444,0.00007859,-0.00008394,-0.00010315,-0.00001271,0.000344
 62,0.00378599,0.01182707,-0.01592836,-0.00009277,0.00068719,-0.0006426
 3,0.01787499,0.12515153,-0.26869623,0.00048770,-0.00219261,0.00033341,
 -0.00099150,0.00303901,-0.00468137,-0.01680833,-0.13612485,0.28666157\
 \-0.00015109,-0.00030691,0.00000145,0.00015084,0.00019282,-0.00000082,
 -0.00000046,0.00011720,-0.00000017,0.00000016,0.00000008,-0.00000020,0
 .00000100,-0.00000095,0.00000030,0.00000059,-0.00000215,-0.00000025,0.
 00000010,-0.00000022,-0.00000009,0.00000009,-0.00000036,0.00000049,-0.
 00000044,-0.00000001,-0.00000018,-0.00000008,-0.00000114,0.00000036,-0
 .00000037,0.00000089,0.00000049,0.00000040,0.00000063,-0.00000028,-0.0
 0000004,0.00000001,0.00000024,-0.00000021,0.00000002,-0.00000026,-0.00
 000035,-0.00000076,-0.00000156,0.00000004,-0.00000004,0.00000007,-0.00
 000086,0.00000123,0.00000090,0.00000078,0.00000045,0.00000005,-0.00000
 031,-0.00000050,-0.00000005,0.00000022,-0.00000031,-0.00000050\\\@


 THESE ARE THE TIMES THAT TRY MENS SOULS.
 THE SUMMER SOLDIER AND THE SUNSHINE PATRIOT WILL IN THIS CRISIS,
 SHRINK FROM THE SERVICE OF HIS COUNTRY.  BUT HE THAT STANDS NOW,
 DESERVES THE LOVE AND THANKS OF MAN AND WOMAN.
 TYRANNY, LIKE HELL, IS NOT EASILY CONQUERED,
 YET WE HAVE THIS CONSOLATION WITH US,
 THAT THE HARDER THE CONFLICT, THE MORE GLORIOUS THE TRIUMPH.
 WHAT WE OBTAIN TOO CHEAP, WE ESTEEM TOO LIGHTLY, 
 'TIS DEARNESS ONLY THAT GIVES EVERYTHING ITS VALUE.

                                              -- TOM PAINE
 Job cpu time:       0 days  1 hours 50 minutes 50.8 seconds.
 Elapsed time:       0 days  0 hours  9 minutes 15.0 seconds.
 File lengths (MBytes):  RWF=    163 Int=      0 D2E=      0 Chk=     32 Scr=      1
 Normal termination of Gaussian 16 at Fri Jun 10 22:53:09 2022.
