 Entering Gaussian System, Link 0=g16
 Input=int_initalOptXYZ_aligned_sp.gjf
 Output=int_initalOptXYZ_aligned_sp.out
 Initial command:
 /software/gaussian/g16-a03/l1.exe "/local_scratch/9886692/Gau-14697.inp" -scrdir="/local_scratch/9886692/"
 Entering Link 1 = /software/gaussian/g16-a03/l1.exe PID=     14698.
  
 Copyright (c) 1988,1990,1992,1993,1995,1998,2003,2009,2016,
            Gaussian, Inc.  All Rights Reserved.
  
 This is part of the Gaussian(R) 16 program.  It is based on
 the Gaussian(R) 09 system (copyright 2009, Gaussian, Inc.),
 the Gaussian(R) 03 system (copyright 2003, Gaussian, Inc.),
 the Gaussian(R) 98 system (copyright 1998, Gaussian, Inc.),
 the Gaussian(R) 94 system (copyright 1995, Gaussian, Inc.),
 the Gaussian 92(TM) system (copyright 1992, Gaussian, Inc.),
 the Gaussian 90(TM) system (copyright 1990, Gaussian, Inc.),
 the Gaussian 88(TM) system (copyright 1988, Gaussian, Inc.),
 the Gaussian 86(TM) system (copyright 1986, Carnegie Mellon
 University), and the Gaussian 82(TM) system (copyright 1983,
 Carnegie Mellon University). Gaussian is a federally registered
 trademark of Gaussian, Inc.
  
 This software contains proprietary and confidential information,
 including trade secrets, belonging to Gaussian, Inc.
  
 This software is provided under written license and may be
 used, copied, transmitted, or stored only in accord with that
 written license.
  
 The following legend is applicable only to US Government
 contracts under FAR:
  
                    RESTRICTED RIGHTS LEGEND
  
 Use, reproduction and disclosure by the US Government is
 subject to restrictions as set forth in subparagraphs (a)
 and (c) of the Commercial Computer Software - Restricted
 Rights clause in FAR 52.227-19.
  
 Gaussian, Inc.
 340 Quinnipiac St., Bldg. 40, Wallingford CT 06492
  
  
 ---------------------------------------------------------------
 Warning -- This program may not be used in any manner that
 competes with the business of Gaussian, Inc. or will provide
 assistance to any competitor of Gaussian, Inc.  The licensee
 of this program is prohibited from giving any competitor of
 Gaussian, Inc. access to this program.  By using this program,
 the user acknowledges that Gaussian, Inc. is engaged in the
 business of creating and licensing software in the field of
 computational chemistry and represents and warrants to the
 licensee that it is not a competitor of Gaussian, Inc. and that
 it will not use this program in any manner prohibited above.
 ---------------------------------------------------------------
  

 Cite this work as:
 Gaussian 16, Revision A.03,
 M. J. Frisch, G. W. Trucks, H. B. Schlegel, G. E. Scuseria, 
 M. A. Robb, J. R. Cheeseman, G. Scalmani, V. Barone, 
 G. A. Petersson, H. Nakatsuji, X. Li, M. Caricato, A. V. Marenich, 
 J. Bloino, B. G. Janesko, R. Gomperts, B. Mennucci, H. P. Hratchian, 
 J. V. Ortiz, A. F. Izmaylov, J. L. Sonnenberg, D. Williams-Young, 
 F. Ding, F. Lipparini, F. Egidi, J. Goings, B. Peng, A. Petrone, 
 T. Henderson, D. Ranasinghe, V. G. Zakrzewski, J. Gao, N. Rega, 
 G. Zheng, W. Liang, M. Hada, M. Ehara, K. Toyota, R. Fukuda, 
 J. Hasegawa, M. Ishida, T. Nakajima, Y. Honda, O. Kitao, H. Nakai, 
 T. Vreven, K. Throssell, J. A. Montgomery, Jr., J. E. Peralta, 
 F. Ogliaro, M. J. Bearpark, J. J. Heyd, E. N. Brothers, K. N. Kudin, 
 V. N. Staroverov, T. A. Keith, R. Kobayashi, J. Normand, 
 K. Raghavachari, A. P. Rendell, J. C. Burant, S. S. Iyengar, 
 J. Tomasi, M. Cossi, J. M. Millam, M. Klene, C. Adamo, R. Cammi, 
 J. W. Ochterski, R. L. Martin, K. Morokuma, O. Farkas, 
 J. B. Foresman, and D. J. Fox, Gaussian, Inc., Wallingford CT, 2016.
 
 ******************************************
 Gaussian 16:  ES64L-G16RevA.03 25-Dec-2016
                18-Mar-2022 
 ******************************************
 %nprocshared=12
 Will use up to   12 processors via shared memory.
 %chk=checkpoint.chk
 %mem=12GB
 --------------------------
 # sp B3LYP/Def2TZVP NoSymm
 --------------------------
 1/38=1,172=1/1;
 2/12=2,15=1,17=6,18=5,40=1/2;
 3/5=44,7=101,11=2,25=1,30=1,74=-5/1,2,3;
 4//1;
 5/5=2,38=5/2;
 6/7=2,8=2,9=2,10=2,28=1/1;
 99/5=1,9=1/99;
 ----------------------------------
 int_initalOptXYZ_aligned_AlignedSp
 ----------------------------------
 Symbolic Z-matrix:
 Charge =  0 Multiplicity = 1
 1                     2.44959   0.00537  -0.4033 
 6                     1.39706   0.08447  -0.16453 
 6                     0.7428    1.24998  -0.15849 
 1                     1.24698   2.17986  -0.39115 
 6                    -0.69148   1.25798   0.07794 
 1                    -1.23852   2.17897   0.21388 
 6                    -1.3547    0.09657  -0.0276 
 1                    -2.43325   0.00677  -0.04207 
 8                    -0.73987  -1.09157  -0.23189 
 6                     0.63488  -1.15432   0.20683 
 1                     1.04448  -2.05024  -0.25685 
 1                     0.62932  -1.30437   1.29805 
 
                          Input orientation:                          
 ---------------------------------------------------------------------
 Center     Atomic      Atomic             Coordinates (Angstroms)
 Number     Number       Type             X           Y           Z
 ---------------------------------------------------------------------
      1          1           0        2.449586    0.005373   -0.403298
      2          6           0        1.397059    0.084473   -0.164530
      3          6           0        0.742803    1.249978   -0.158493
      4          1           0        1.246978    2.179860   -0.391147
      5          6           0       -0.691479    1.257983    0.077940
      6          1           0       -1.238516    2.178973    0.213880
      7          6           0       -1.354703    0.096568   -0.027602
      8          1           0       -2.433254    0.006770   -0.042074
      9          8           0       -0.739873   -1.091573   -0.231885
     10          6           0        0.634877   -1.154324    0.206825
     11          1           0        1.044479   -2.050238   -0.256846
     12          1           0        0.629323   -1.304366    1.298054
 ---------------------------------------------------------------------
                    Distance matrix (angstroms):
                    1          2          3          4          5
     1  H    0.000000
     2  C    1.082165   0.000000
     3  C    2.126518   1.336596   0.000000
     4  H    2.484916   2.112943   1.083052   0.000000
     5  C    3.415686   2.407885   1.453661   2.197161   0.000000
     6  H    4.325222   3.387681   2.219756   2.558073   1.079792
     7  C    3.823883   2.755193   2.397294   3.352762   1.341600
     8  H    4.896183   3.833058   3.412691   4.288156   2.147957
     9  O    3.377177   2.440102   2.772467   3.830824   2.370390
    10  C    2.238374   1.501148   2.434291   3.442241   2.755913
    11  H    2.494255   2.165601   3.315435   4.237071   3.750994
    12  H    2.814849   2.158111   2.942631   3.921062   3.130308
                    6          7          8          9         10
     6  H    0.000000
     7  C    2.099577   0.000000
     8  H    2.492263   1.082379   0.000000
     9  O    3.338236   1.353302   2.027295   0.000000
    10  C    3.823679   2.361803   3.289912   1.444417   0.000000
    11  H    4.829066   3.227600   4.046237   2.025728   1.088773
    12  H    4.098525   2.767009   3.590877   2.064144   1.101510
                   11         12
    11  H    0.000000
    12  H    1.773808   0.000000
 Symmetry turned off by external request.
 Stoichiometry    C5H6O
 Framework group  C1[X(C5H6O)]
 Deg. of freedom    30
 Full point group                 C1      NOp   1
 Rotational constants (GHZ):           5.5881709           5.3767944           2.8631586
 Standard basis: def2TZVP (5D, 7F)
   222 basis functions,   354 primitive gaussians,   252 cartesian basis functions
    22 alpha electrons       22 beta electrons
       nuclear repulsion energy       223.6886953113 Hartrees.
 NAtoms=   12 NActive=   12 NUniq=   12 SFac= 1.00D+00 NAtFMM=   60 NAOKFM=F Big=F
 Integral buffers will be    131072 words long.
 Raffenetti 2 integral format.
 Two-electron integral symmetry is turned off.
 One-electron integrals computed using PRISM.
   1 Symmetry operations used in ECPInt.
 ECPInt:  NShTT=    4095 NPrTT=   12396 LenC2=    4075 LenP2D=   10423.
 LDataN:  DoStor=T MaxTD1= 6 Len=  172
 NBasis=   222 RedAO= T EigKep=  9.59D-05  NBF=   222
 NBsUse=   222 1.00D-06 EigRej= -1.00D+00 NBFU=   222
 ExpMin= 9.52D-02 ExpMax= 2.70D+04 ExpMxC= 9.22D+02 IAcc=3 IRadAn=         5 AccDes= 0.00D+00
 Harris functional with IExCor=  402 and IRadAn=       5 diagonalized for initial guess.
 HarFok:  IExCor=  402 AccDes= 0.00D+00 IRadAn=         5 IDoV= 1 UseB2=F ITyADJ=14
 ICtDFT=  3500011 ScaDFX=  1.000000  1.000000  1.000000  1.000000
 FoFCou: FMM=F IPFlag=           0 FMFlag=      100000 FMFlg1=           0
         NFxFlg=           0 DoJE=T BraDBF=F KetDBF=T FulRan=T
         wScrn=  0.000000 ICntrl=       500 IOpCl=  0 I1Cent=   200000004 NGrid=           0
         NMat0=    1 NMatS0=      1 NMatT0=    0 NMatD0=    1 NMtDS0=    0 NMtDT0=    0
 Symmetry not used in FoFCou.
 Keep R1 ints in memory in canonical form, NReq=319363885.
 Requested convergence on RMS density matrix=1.00D-08 within 128 cycles.
 Requested convergence on MAX density matrix=1.00D-06.
 Requested convergence on             energy=1.00D-06.
 No special actions if energy rises.
 Integral accuracy reduced to 1.0D-05 until final iterations.
 Initial convergence to 1.0D-05 achieved.  Increase integral accuracy.
 SCF Done:  E(RB3LYP) =  -269.422508218     A.U. after   13 cycles
            NFock= 13  Conv=0.74D-08     -V/T= 2.0050

 **********************************************************************

            Population analysis using the SCF density.

 **********************************************************************

 Alpha  occ. eigenvalues --  -19.16116 -10.23274 -10.23078 -10.17926 -10.17313
 Alpha  occ. eigenvalues --  -10.16645  -1.07060  -0.81408  -0.77439  -0.66565
 Alpha  occ. eigenvalues --   -0.62635  -0.53389  -0.51176  -0.48548  -0.46309
 Alpha  occ. eigenvalues --   -0.43838  -0.40954  -0.37855  -0.36089  -0.33068
 Alpha  occ. eigenvalues --   -0.30118  -0.21129
 Alpha virt. eigenvalues --   -0.03376   0.04616   0.05587   0.07510   0.07893
 Alpha virt. eigenvalues --    0.09293   0.10034   0.10888   0.12582   0.16187
 Alpha virt. eigenvalues --    0.17805   0.19367   0.21561   0.22452   0.22634
 Alpha virt. eigenvalues --    0.24210   0.24995   0.27132   0.28593   0.30459
 Alpha virt. eigenvalues --    0.31096   0.33167   0.34717   0.36066   0.36844
 Alpha virt. eigenvalues --    0.37881   0.38654   0.41274   0.42109   0.42703
 Alpha virt. eigenvalues --    0.43475   0.44817   0.46271   0.49477   0.51103
 Alpha virt. eigenvalues --    0.53002   0.55485   0.57852   0.60143   0.62888
 Alpha virt. eigenvalues --    0.65478   0.66335   0.68609   0.72746   0.74001
 Alpha virt. eigenvalues --    0.78453   0.81336   0.84466   0.86169   0.89470
 Alpha virt. eigenvalues --    0.90780   0.92646   0.95667   0.97657   0.99584
 Alpha virt. eigenvalues --    1.05265   1.07297   1.09018   1.11005   1.11572
 Alpha virt. eigenvalues --    1.15257   1.18128   1.19969   1.23532   1.26425
 Alpha virt. eigenvalues --    1.29867   1.33687   1.36335   1.40362   1.43247
 Alpha virt. eigenvalues --    1.44494   1.45194   1.48299   1.51246   1.52267
 Alpha virt. eigenvalues --    1.56270   1.59933   1.62944   1.65206   1.67301
 Alpha virt. eigenvalues --    1.70312   1.72028   1.74465   1.77983   1.80358
 Alpha virt. eigenvalues --    1.85487   1.87329   1.90516   1.91627   1.96587
 Alpha virt. eigenvalues --    1.99987   2.00839   2.06055   2.10808   2.12982
 Alpha virt. eigenvalues --    2.14362   2.17373   2.20505   2.23013   2.27092
 Alpha virt. eigenvalues --    2.27513   2.37247   2.38710   2.45408   2.46014
 Alpha virt. eigenvalues --    2.50758   2.52137   2.53409   2.57191   2.60264
 Alpha virt. eigenvalues --    2.62118   2.62638   2.65608   2.67775   2.70532
 Alpha virt. eigenvalues --    2.71079   2.73713   2.76824   2.78821   2.80561
 Alpha virt. eigenvalues --    2.83199   2.83943   2.87613   2.88985   2.91545
 Alpha virt. eigenvalues --    2.93754   2.97411   3.02283   3.02809   3.07252
 Alpha virt. eigenvalues --    3.08001   3.11026   3.13479   3.15967   3.16227
 Alpha virt. eigenvalues --    3.18974   3.19868   3.22516   3.24312   3.25348
 Alpha virt. eigenvalues --    3.29222   3.30310   3.33059   3.36531   3.37725
 Alpha virt. eigenvalues --    3.39758   3.42357   3.44842   3.45672   3.49164
 Alpha virt. eigenvalues --    3.54712   3.58840   3.63223   3.67919   3.69424
 Alpha virt. eigenvalues --    3.78314   3.84384   3.86171   3.91153   3.93861
 Alpha virt. eigenvalues --    3.97881   4.03135   4.04072   4.12782   4.17259
 Alpha virt. eigenvalues --    4.19708   4.24915   4.29012   4.36661   4.39752
 Alpha virt. eigenvalues --    4.44999   4.52606   4.57489   4.63941   4.66743
 Alpha virt. eigenvalues --    4.68073   4.79010   4.84201   4.91273   4.95042
 Alpha virt. eigenvalues --    5.12319   5.18032   5.37267   5.45576   5.75615
 Alpha virt. eigenvalues --    5.85383   5.90455   6.23403   6.32207   6.65979
 Alpha virt. eigenvalues --    6.76533   6.86668   7.15211   7.24861  22.06634
 Alpha virt. eigenvalues --   22.31967  22.42788  22.74337  22.92176  44.05308
          Condensed to atoms (all electrons):
               1          2          3          4          5          6
     1  H    0.561522   0.402049  -0.041379  -0.008846   0.005330  -0.000209
     2  C    0.402049   5.041206   0.659503  -0.039869  -0.068529   0.005807
     3  C   -0.041379   0.659503   4.844236   0.418577   0.369352  -0.047691
     4  H   -0.008846  -0.039869   0.418577   0.562422  -0.049764  -0.004813
     5  C    0.005330  -0.068529   0.369352  -0.049764   5.091034   0.407511
     6  H   -0.000209   0.005807  -0.047691  -0.004813   0.407511   0.554041
     7  C    0.001767  -0.033713  -0.049385   0.003912   0.588272  -0.027617
     8  H    0.000168  -0.000360   0.005392  -0.000359  -0.069855  -0.003912
     9  O    0.004156  -0.021900  -0.021914  -0.001082  -0.072230   0.005248
    10  C   -0.038135   0.350165  -0.043246   0.008290  -0.032593  -0.000545
    11  H   -0.005770  -0.037399   0.004406  -0.000315   0.004570   0.000142
    12  H    0.007043  -0.079073  -0.009253  -0.000189  -0.005102  -0.000344
               7          8          9         10         11         12
     1  H    0.001767   0.000168   0.004156  -0.038135  -0.005770   0.007043
     2  C   -0.033713  -0.000360  -0.021900   0.350165  -0.037399  -0.079073
     3  C   -0.049385   0.005392  -0.021914  -0.043246   0.004406  -0.009253
     4  H    0.003912  -0.000359  -0.001082   0.008290  -0.000315  -0.000189
     5  C    0.588272  -0.069855  -0.072230  -0.032593   0.004570  -0.005102
     6  H   -0.027617  -0.003912   0.005248  -0.000545   0.000142  -0.000344
     7  C    4.736548   0.430205   0.335149  -0.041600  -0.000750   0.031099
     8  H    0.430205   0.550334  -0.039012   0.004843  -0.000576   0.002017
     9  O    0.335149  -0.039012   7.903652   0.274844  -0.030839  -0.065975
    10  C   -0.041600   0.004843   0.274844   4.670792   0.409615   0.401602
    11  H   -0.000750  -0.000576  -0.030839   0.409615   0.603382  -0.054810
    12  H    0.031099   0.002017  -0.065975   0.401602  -0.054810   0.696672
 Mulliken charges:
               1
     1  H    0.112305
     2  C   -0.177886
     3  C   -0.088599
     4  H    0.112036
     5  C   -0.167995
     6  H    0.112381
     7  C    0.026113
     8  H    0.121115
     9  O   -0.270095
    10  C    0.035968
    11  H    0.108345
    12  H    0.076313
 Sum of Mulliken charges =  -0.00000
 Mulliken charges with hydrogens summed into heavy atoms:
               1
     2  C   -0.065581
     3  C    0.023437
     5  C   -0.055614
     7  C    0.147228
     9  O   -0.270095
    10  C    0.220625
 Electronic spatial extent (au):  <R**2>=            461.0854
 Charge=             -0.0000 electrons
 Dipole moment (field-independent basis, Debye):
    X=              0.5570    Y=              0.3386    Z=              0.3041  Tot=              0.7192
 Quadrupole moment (field-independent basis, Debye-Ang):
   XX=            -32.3884   YY=            -34.1862   ZZ=            -38.4505
   XY=             -2.2120   XZ=             -0.7121   YZ=             -0.8101
 Traceless Quadrupole moment (field-independent basis, Debye-Ang):
   XX=              2.6200   YY=              0.8222   ZZ=             -3.4422
   XY=             -2.2120   XZ=             -0.7121   YZ=             -0.8101
 Octapole moment (field-independent basis, Debye-Ang**2):
  XXX=             -6.9392  YYY=             -3.6578  ZZZ=              4.6600  XYY=              3.1430
  XXY=             -2.5621  XXZ=             -0.4587  XZZ=             -0.6700  YZZ=             -5.6544
  YYZ=              1.0477  XYZ=             -0.5513
 Hexadecapole moment (field-independent basis, Debye-Ang**3):
 XXXX=           -259.8685 YYYY=           -265.1626 ZZZZ=            -58.8162 XXXY=              2.6895
 XXXZ=             -0.4371 YYYX=             -2.0137 YYYZ=              5.1355 ZZZX=              5.3654
 ZZZY=              4.2466 XXYY=            -92.8112 XXZZ=            -62.4021 YYZZ=            -59.4247
 XXYZ=              1.3380 YYXZ=             -2.7920 ZZXY=              1.4065
 N-N= 2.236886953113D+02 E-N=-1.075162999760D+03  KE= 2.680830780920D+02
 1\1\GINC-BHC0106\SP\RB3LYP\def2TZVP\C5H6O1\DHANAWAY\18-Mar-2022\0\\# s
 p B3LYP/Def2TZVP NoSymm\\int_initalOptXYZ_aligned_AlignedSp\\0,1\H,0,2
 .449586,0.005373,-0.403298\C,0,1.397059,0.084473,-0.16453\C,0,0.742803
 ,1.249978,-0.158493\H,0,1.246978,2.17986,-0.391147\C,0,-0.691479,1.257
 983,0.07794\H,0,-1.238516,2.178973,0.21388\C,0,-1.354703,0.096568,-0.0
 27602\H,0,-2.433254,0.00677,-0.042074\O,0,-0.739873,-1.091573,-0.23188
 5\C,0,0.634877,-1.154324,0.206825\H,0,1.044479,-2.050238,-0.256846\H,0
 ,0.629323,-1.304366,1.298054\\Version=ES64L-G16RevA.03\HF=-269.4225082
 \RMSD=7.390e-09\Dipole=0.2191215,0.1331965,0.1196465\Quadrupole=1.9478
 899,0.6112663,-2.5591561,-1.6445491,-0.5294556,-0.6022597\PG=C01 [X(C5
 H6O1)]\\@


 When cryptography is outlawed, bayl bhgynjf jvyy unir cevinpl.
 Job cpu time:       0 days  0 hours  3 minutes 57.1 seconds.
 Elapsed time:       0 days  0 hours  0 minutes 28.7 seconds.
 File lengths (MBytes):  RWF=     25 Int=      0 D2E=      0 Chk=     32 Scr=      1
 Normal termination of Gaussian 16 at Fri Mar 18 11:02:23 2022.
