 Entering Gaussian System, Link 0=g16
 Input=int_zmat_field_N50.gjf
 Output=int_zmat_field_N50.out
 Initial command:
 /software/gaussian/g16-a03/l1.exe "/local_scratch/9886751/Gau-30114.inp" -scrdir="/local_scratch/9886751/"
 Entering Link 1 = /software/gaussian/g16-a03/l1.exe PID=     30115.
  
 Copyright (c) 1988,1990,1992,1993,1995,1998,2003,2009,2016,
            Gaussian, Inc.  All Rights Reserved.
  
 This is part of the Gaussian(R) 16 program.  It is based on
 the Gaussian(R) 09 system (copyright 2009, Gaussian, Inc.),
 the Gaussian(R) 03 system (copyright 2003, Gaussian, Inc.),
 the Gaussian(R) 98 system (copyright 1998, Gaussian, Inc.),
 the Gaussian(R) 94 system (copyright 1995, Gaussian, Inc.),
 the Gaussian 92(TM) system (copyright 1992, Gaussian, Inc.),
 the Gaussian 90(TM) system (copyright 1990, Gaussian, Inc.),
 the Gaussian 88(TM) system (copyright 1988, Gaussian, Inc.),
 the Gaussian 86(TM) system (copyright 1986, Carnegie Mellon
 University), and the Gaussian 82(TM) system (copyright 1983,
 Carnegie Mellon University). Gaussian is a federally registered
 trademark of Gaussian, Inc.
  
 This software contains proprietary and confidential information,
 including trade secrets, belonging to Gaussian, Inc.
  
 This software is provided under written license and may be
 used, copied, transmitted, or stored only in accord with that
 written license.
  
 The following legend is applicable only to US Government
 contracts under FAR:
  
                    RESTRICTED RIGHTS LEGEND
  
 Use, reproduction and disclosure by the US Government is
 subject to restrictions as set forth in subparagraphs (a)
 and (c) of the Commercial Computer Software - Restricted
 Rights clause in FAR 52.227-19.
  
 Gaussian, Inc.
 340 Quinnipiac St., Bldg. 40, Wallingford CT 06492
  
  
 ---------------------------------------------------------------
 Warning -- This program may not be used in any manner that
 competes with the business of Gaussian, Inc. or will provide
 assistance to any competitor of Gaussian, Inc.  The licensee
 of this program is prohibited from giving any competitor of
 Gaussian, Inc. access to this program.  By using this program,
 the user acknowledges that Gaussian, Inc. is engaged in the
 business of creating and licensing software in the field of
 computational chemistry and represents and warrants to the
 licensee that it is not a competitor of Gaussian, Inc. and that
 it will not use this program in any manner prohibited above.
 ---------------------------------------------------------------
  

 Cite this work as:
 Gaussian 16, Revision A.03,
 M. J. Frisch, G. W. Trucks, H. B. Schlegel, G. E. Scuseria, 
 M. A. Robb, J. R. Cheeseman, G. Scalmani, V. Barone, 
 G. A. Petersson, H. Nakatsuji, X. Li, M. Caricato, A. V. Marenich, 
 J. Bloino, B. G. Janesko, R. Gomperts, B. Mennucci, H. P. Hratchian, 
 J. V. Ortiz, A. F. Izmaylov, J. L. Sonnenberg, D. Williams-Young, 
 F. Ding, F. Lipparini, F. Egidi, J. Goings, B. Peng, A. Petrone, 
 T. Henderson, D. Ranasinghe, V. G. Zakrzewski, J. Gao, N. Rega, 
 G. Zheng, W. Liang, M. Hada, M. Ehara, K. Toyota, R. Fukuda, 
 J. Hasegawa, M. Ishida, T. Nakajima, Y. Honda, O. Kitao, H. Nakai, 
 T. Vreven, K. Throssell, J. A. Montgomery, Jr., J. E. Peralta, 
 F. Ogliaro, M. J. Bearpark, J. J. Heyd, E. N. Brothers, K. N. Kudin, 
 V. N. Staroverov, T. A. Keith, R. Kobayashi, J. Normand, 
 K. Raghavachari, A. P. Rendell, J. C. Burant, S. S. Iyengar, 
 J. Tomasi, M. Cossi, J. M. Millam, M. Klene, C. Adamo, R. Cammi, 
 J. W. Ochterski, R. L. Martin, K. Morokuma, O. Farkas, 
 J. B. Foresman, and D. J. Fox, Gaussian, Inc., Wallingford CT, 2016.
 
 ******************************************
 Gaussian 16:  ES64L-G16RevA.03 25-Dec-2016
                18-Mar-2022 
 ******************************************
 %nprocshared=12
 Will use up to   12 processors via shared memory.
 %chk=checkpoint.chk
 %mem=12GB
 ----------------------------------------------------------------------
 # Opt=(Z-matrix, MaxStep=10) B3LYP/Def2TZVP geom=allcheckpoint guess=r
 ead Field=read NoSymm
 ----------------------------------------------------------------------
 1/8=10,10=7,18=40,26=3,29=7,38=1/1,3;
 2/12=2,15=1,29=3,40=1/2;
 3/5=44,7=101,11=2,14=-6,25=1,30=1,71=1,74=-5,116=-2/1,2,3;
 4/5=1/1;
 5/5=2,38=6/2;
 6/7=2,8=2,9=2,10=2,28=1/1;
 7/29=1,30=1/1,2,3,16;
 1/8=10,10=7,18=40,26=3/3(2);
 2/15=1,29=3/2;
 99//99;
 2/15=1,29=3/2;
 3/5=44,7=101,11=2,14=-2,25=1,30=1,71=1,74=-5/1,2,3;
 4/5=5,16=3,69=1/1;
 5/5=2,38=5/2;
 7/30=1/1,2,3,16;
 1/8=10,18=40,26=3/3(-5);
 2/15=1,29=3/2;
 6/7=2,8=2,9=2,10=2,19=2,28=1/1;
 99/9=1/99;
 Structure from the checkpoint file:  "checkpoint.chk"
 ------------------
 int_zmat_initalOpt
 ------------------
 Charge =  0 Multiplicity = 1
 Z-Matrix found in chk file.
 H
 C,1,R2
 C,2,R3,1,A3
 C,2,R4,1,A4,3,D4,0
 H,3,R5,2,A5,1,D5,0
 C,3,R6,2,A6,5,D6,0
 O,4,R7,2,A7,1,D7,0
 H,4,R8,2,A8,7,D8,0
 H,4,R9,2,A9,7,D9,0
 H,6,R10,3,A10,2,D10,0
 C,6,R11,3,A11,10,D11,0
 H,11,R12,6,A12,3,D12,0
      Variables:
 R2=1.08200632
 R3=1.33606219
 R4=1.50087212
 R5=1.08278042
 R6=1.45419866
 R7=1.44488628
 R8=1.08875385
 R9=1.10221617
 R10=1.07989105
 R11=1.34111712
 R12=1.08247682
 A3=122.64576001
 A4=119.0280727
 A5=121.27881243
 A6=119.2428805
 A7=112.11258502
 A8=112.3652402
 A9=111.05562525
 A10=121.57967367
 A11=118.12675633
 A12=124.3723196
 D4=-178.16254534
 D5=0.36266006
 D6=175.63442803
 D7=-148.61599757
 D8=118.42526542
 D9=-120.35077841
 D10=173.32504613
 D11=172.05653265
 D12=-168.89386103
 Recover connectivity data from disk.

 GradGradGradGradGradGradGradGradGradGradGradGradGradGradGradGradGradGrad
 Berny optimization.
 Initialization pass.
                       ----------------------------
                       !    Initial Parameters    !
                       ! (Angstroms and Degrees)  !
 ----------------------                            ----------------------
 !      Name          Value   Derivative information (Atomic Units)     !
 ------------------------------------------------------------------------
 !       R2          1.082    estimate D2E/DX2                          !
 !       R3          1.3361   estimate D2E/DX2                          !
 !       R4          1.5009   estimate D2E/DX2                          !
 !       R5          1.0828   estimate D2E/DX2                          !
 !       R6          1.4542   estimate D2E/DX2                          !
 !       R7          1.4449   estimate D2E/DX2                          !
 !       R8          1.0888   estimate D2E/DX2                          !
 !       R9          1.1022   estimate D2E/DX2                          !
 !       R10         1.0799   estimate D2E/DX2                          !
 !       R11         1.3411   estimate D2E/DX2                          !
 !       R12         1.0825   estimate D2E/DX2                          !
 !       A3        122.6458   estimate D2E/DX2                          !
 !       A4        119.0281   estimate D2E/DX2                          !
 !       A5        121.2788   estimate D2E/DX2                          !
 !       A6        119.2429   estimate D2E/DX2                          !
 !       A7        112.1126   estimate D2E/DX2                          !
 !       A8        112.3652   estimate D2E/DX2                          !
 !       A9        111.0556   estimate D2E/DX2                          !
 !       A10       121.5797   estimate D2E/DX2                          !
 !       A11       118.1268   estimate D2E/DX2                          !
 !       A12       124.3723   estimate D2E/DX2                          !
 !       D4       -178.1625   estimate D2E/DX2                          !
 !       D5          0.3627   estimate D2E/DX2                          !
 !       D6        175.6344   estimate D2E/DX2                          !
 !       D7       -148.616    estimate D2E/DX2                          !
 !       D8        118.4253   estimate D2E/DX2                          !
 !       D9       -120.3508   estimate D2E/DX2                          !
 !       D10       173.325    estimate D2E/DX2                          !
 !       D11       172.0565   estimate D2E/DX2                          !
 !       D12      -168.8939   estimate D2E/DX2                          !
 ------------------------------------------------------------------------
 Trust Radius=1.00D-01 FncErr=1.00D-07 GrdErr=1.00D-06 EigMax=2.50D+02 EigMin=1.00D-04
 Number of steps in this run=     40 maximum allowed number of steps=    100.
 GradGradGradGradGradGradGradGradGradGradGradGradGradGradGradGradGradGrad

 ---------------------------------------------------------------------------------------------------
                            Z-MATRIX (ANGSTROMS AND DEGREES)
   CD    Cent   Atom    N1       Length/X        N2       Alpha/Y        N3        Beta/Z          J
 ---------------------------------------------------------------------------------------------------
      1      1  H 
      2      2  C        1   1.082006(     1)
      3      3  C        2   1.336062(     2)      1  122.646(    12)
      4      4  C        2   1.500872(     3)      1  119.028(    13)      3 -178.163(    22)      0
      5      5  H        3   1.082780(     4)      2  121.279(    14)      1    0.363(    23)      0
      6      6  C        3   1.454199(     5)      2  119.243(    15)      5  175.634(    24)      0
      7      7  O        4   1.444886(     6)      2  112.113(    16)      1 -148.616(    25)      0
      8      8  H        4   1.088754(     7)      2  112.365(    17)      7  118.425(    26)      0
      9      9  H        4   1.102216(     8)      2  111.056(    18)      7 -120.351(    27)      0
     10     10  H        6   1.079891(     9)      3  121.580(    19)      2  173.325(    28)      0
     11     11  C        6   1.341117(    10)      3  118.127(    20)     10  172.057(    29)      0
     12     12  H       11   1.082477(    11)      6  124.372(    21)      3 -168.894(    30)      0
 ---------------------------------------------------------------------------------------------------
                         Z-Matrix orientation:                         
 ---------------------------------------------------------------------
 Center     Atomic      Atomic             Coordinates (Angstroms)
 Number     Number       Type             X           Y           Z
 ---------------------------------------------------------------------
      1          1           0        0.000000    0.000000    0.000000
      2          6           0        0.000000    0.000000    1.082006
      3          6           0        1.124994    0.000000    1.802736
      4          6           0       -1.311661   -0.042079    1.810287
      5          1           0        2.097554    0.005857    1.326811
      6          6           0        1.040347    0.088576    3.251765
      7          8           0       -1.255113    0.657203    3.073419
      8          1           0       -2.112026    0.438833    1.250354
      9          1           0       -1.615764   -1.080820    2.018658
     10          1           0        1.914941   -0.014811    3.876714
     11          6           0       -0.126913    0.463886    3.795126
     12          1           0       -0.259183    0.728957    4.836279
 ---------------------------------------------------------------------
                    Distance matrix (angstroms):
                    1          2          3          4          5
     1  H    0.000000
     2  C    1.082006   0.000000
     3  C    2.124963   1.336062   0.000000
     4  C    2.235925   1.500872   2.437029   0.000000
     5  H    2.481975   2.111800   1.082780   3.443660   0.000000
     6  C    3.415281   2.407908   1.454199   2.761679   2.197720
     7  O    3.384247   2.443962   2.776951   1.444886   3.836048
     8  H    2.493313   2.163693   3.313004   1.088754   4.232479
     9  H    2.802471   2.157819   2.954073   1.102216   3.930427
    10  H    4.323902   3.387862   2.219374   3.831687   2.556517
    11  C    3.825478   2.755416   2.398349   2.366267   3.354195
    12  H    4.897769   3.833160   3.413166   3.295275   4.288758
                    6          7          8          9         10
     6  C    0.000000
     7  O    2.371556   0.000000
     8  H    3.750437   2.026217   0.000000
     9  H    3.153247   2.064779   1.773672   0.000000
    10  H    1.079891   3.338581   4.829081   4.129724   0.000000
    11  C    1.341117   1.353170   3.227564   2.785433   2.098803
    12  H    2.146986   2.026006   4.046734   3.613114   2.490134
                   11         12
    11  C    0.000000
    12  H    1.082477   0.000000
 Symmetry turned off by external request.
 Stoichiometry    C5H6O
 Framework group  C1[X(C5H6O)]
 Deg. of freedom    30
 Full point group                 C1      NOp   1
 Rotational constants (GHZ):           5.5830000           5.3734196           2.8550966
 Standard basis: def2TZVP (5D, 7F)
 The following finite field(s) will be applied:
 An electric field of             -0.0012 -0.0032  0.0036
   222 basis functions,   354 primitive gaussians,   252 cartesian basis functions
    22 alpha electrons       22 beta electrons
       nuclear repulsion energy       223.5914302113 Hartrees.
 NAtoms=   12 NActive=   12 NUniq=   12 SFac= 1.00D+00 NAtFMM=   60 NAOKFM=F Big=F
 Integral buffers will be    131072 words long.
 Raffenetti 2 integral format.
 Two-electron integral symmetry is turned off.
 One-electron integrals computed using PRISM.
   1 Symmetry operations used in ECPInt.
 ECPInt:  NShTT=    4095 NPrTT=   12396 LenC2=    4075 LenP2D=   10418.
 LDataN:  DoStor=T MaxTD1= 6 Len=  172
 NBasis=   222 RedAO= T EigKep=  9.54D-05  NBF=   222
 NBsUse=   222 1.00D-06 EigRej= -1.00D+00 NBFU=   222
 The nuclear repulsion energy is now       224.2940669033 hartrees.
 Initial guess from the checkpoint file:  "checkpoint.chk"
 B after Tr=     0.000000    0.000000    0.000000
         Rot=    1.000000    0.000000    0.000000    0.000000 Ang=   0.00 deg.
 Keep R1 ints in memory in canonical form, NReq=319363885.
 Requested convergence on RMS density matrix=1.00D-08 within 128 cycles.
 Requested convergence on MAX density matrix=1.00D-06.
 Requested convergence on             energy=1.00D-06.
 No special actions if energy rises.
 SCF Done:  E(RB3LYP) =  -269.423420856     A.U. after   10 cycles
            NFock= 10  Conv=0.85D-08     -V/T= 2.0050

 **********************************************************************

            Population analysis using the SCF density.

 **********************************************************************

 Alpha  occ. eigenvalues --  -19.17839 -10.24900 -10.24896 -10.19147 -10.18607
 Alpha  occ. eigenvalues --  -10.18460  -1.08769  -0.82861  -0.79139  -0.68141
 Alpha  occ. eigenvalues --   -0.64238  -0.54999  -0.52671  -0.50195  -0.47959
 Alpha  occ. eigenvalues --   -0.45335  -0.42476  -0.39439  -0.37740  -0.34636
 Alpha  occ. eigenvalues --   -0.31713  -0.22683
 Alpha virt. eigenvalues --   -0.04892   0.02913   0.03719   0.05947   0.06251
 Alpha virt. eigenvalues --    0.07849   0.08017   0.09484   0.11674   0.14607
 Alpha virt. eigenvalues --    0.15938   0.17825   0.19560   0.20668   0.21307
 Alpha virt. eigenvalues --    0.22874   0.24043   0.25634   0.26849   0.28611
 Alpha virt. eigenvalues --    0.29302   0.31739   0.33163   0.34682   0.35471
 Alpha virt. eigenvalues --    0.36324   0.37295   0.39214   0.40135   0.41824
 Alpha virt. eigenvalues --    0.42096   0.43625   0.44649   0.47847   0.49610
 Alpha virt. eigenvalues --    0.51494   0.53934   0.56311   0.58431   0.61329
 Alpha virt. eigenvalues --    0.63904   0.64765   0.67132   0.71110   0.72119
 Alpha virt. eigenvalues --    0.76445   0.79722   0.83028   0.84340   0.87557
 Alpha virt. eigenvalues --    0.89319   0.91124   0.94059   0.95857   0.97957
 Alpha virt. eigenvalues --    1.03933   1.05696   1.07480   1.09546   1.10315
 Alpha virt. eigenvalues --    1.13758   1.16571   1.18268   1.22154   1.24915
 Alpha virt. eigenvalues --    1.28510   1.32007   1.34825   1.38694   1.41631
 Alpha virt. eigenvalues --    1.43062   1.43755   1.47031   1.49677   1.50841
 Alpha virt. eigenvalues --    1.54591   1.58268   1.61262   1.63655   1.65990
 Alpha virt. eigenvalues --    1.68618   1.70638   1.73066   1.76122   1.78576
 Alpha virt. eigenvalues --    1.83820   1.85775   1.89067   1.89950   1.95068
 Alpha virt. eigenvalues --    1.98593   1.99216   2.04563   2.09058   2.11257
 Alpha virt. eigenvalues --    2.12959   2.16065   2.19253   2.21351   2.25367
 Alpha virt. eigenvalues --    2.26036   2.35315   2.37078   2.43871   2.44269
 Alpha virt. eigenvalues --    2.49270   2.50499   2.51581   2.55798   2.58518
 Alpha virt. eigenvalues --    2.60355   2.60764   2.64190   2.66583   2.69128
 Alpha virt. eigenvalues --    2.69567   2.72256   2.75191   2.77426   2.79008
 Alpha virt. eigenvalues --    2.81721   2.82383   2.85967   2.87276   2.89729
 Alpha virt. eigenvalues --    2.92422   2.96250   3.00835   3.01131   3.05864
 Alpha virt. eigenvalues --    3.06572   3.09486   3.11850   3.14049   3.14487
 Alpha virt. eigenvalues --    3.17397   3.18184   3.20991   3.22640   3.23897
 Alpha virt. eigenvalues --    3.27332   3.28552   3.31338   3.34905   3.35991
 Alpha virt. eigenvalues --    3.38283   3.40526   3.43546   3.44002   3.47305
 Alpha virt. eigenvalues --    3.53139   3.57050   3.61467   3.66636   3.67742
 Alpha virt. eigenvalues --    3.76670   3.82672   3.84894   3.89543   3.92138
 Alpha virt. eigenvalues --    3.96312   4.01531   4.02707   4.10977   4.15955
 Alpha virt. eigenvalues --    4.18463   4.23497   4.27105   4.35075   4.38230
 Alpha virt. eigenvalues --    4.43640   4.50803   4.56505   4.62059   4.64992
 Alpha virt. eigenvalues --    4.66392   4.77805   4.82893   4.89813   4.93581
 Alpha virt. eigenvalues --    5.10857   5.16678   5.35115   5.43813   5.73666
 Alpha virt. eigenvalues --    5.83761   5.88773   6.21778   6.30762   6.63984
 Alpha virt. eigenvalues --    6.74832   6.84997   7.13409   7.23371  22.05173
 Alpha virt. eigenvalues --   22.30373  22.41134  22.72956  22.90899  44.03607
          Condensed to atoms (all electrons):
               1          2          3          4          5          6
     1  H    0.529628   0.401578  -0.031657  -0.037695  -0.007401   0.004791
     2  C    0.401578   5.013530   0.662225   0.362646  -0.030159  -0.065517
     3  C   -0.031657   0.662225   4.838792  -0.043407   0.416367   0.370663
     4  C   -0.037695   0.362646  -0.043407   4.682809   0.007544  -0.035028
     5  H   -0.007401  -0.030159   0.416367   0.007544   0.535620  -0.049185
     6  C    0.004791  -0.065517   0.370663  -0.035028  -0.049185   5.096923
     7  O    0.003499  -0.026323  -0.015986   0.278711  -0.001000  -0.072250
     8  H   -0.005115  -0.033191   0.002300   0.416207  -0.000286   0.004695
     9  H    0.007061  -0.082136  -0.009369   0.373808  -0.000206  -0.003167
    10  H   -0.000211   0.005574  -0.042967  -0.000426  -0.004544   0.402346
    11  C    0.002132  -0.032511  -0.053458  -0.050973   0.004087   0.585792
    12  H    0.000161  -0.001227   0.006519   0.004554  -0.000321  -0.077174
               7          8          9         10         11         12
     1  H    0.003499  -0.005115   0.007061  -0.000211   0.002132   0.000161
     2  C   -0.026323  -0.033191  -0.082136   0.005574  -0.032511  -0.001227
     3  C   -0.015986   0.002300  -0.009369  -0.042967  -0.053458   0.006519
     4  C    0.278711   0.416207   0.373808  -0.000426  -0.050973   0.004554
     5  H   -0.001000  -0.000286  -0.000206  -0.004544   0.004087  -0.000321
     6  C   -0.072250   0.004695  -0.003167   0.402346   0.585792  -0.077174
     7  O    7.909183  -0.029304  -0.070854   0.005481   0.332416  -0.041336
     8  H   -0.029304   0.584145  -0.059370   0.000137  -0.001710  -0.000617
     9  H   -0.070854  -0.059370   0.752903  -0.000335   0.036293   0.002274
    10  H    0.005481   0.000137  -0.000335   0.565953  -0.031670  -0.004458
    11  C    0.332416  -0.001710   0.036293  -0.031670   4.754290   0.433020
    12  H   -0.041336  -0.000617   0.002274  -0.004458   0.433020   0.575551
 Mulliken charges:
               1
     1  H    0.133228
     2  C   -0.174489
     3  C   -0.100024
     4  C    0.041251
     5  H    0.129485
     6  C   -0.162889
     7  O   -0.272237
     8  H    0.122108
     9  H    0.053099
    10  H    0.105120
    11  C    0.022292
    12  H    0.103056
 Sum of Mulliken charges =  -0.00000
 Mulliken charges with hydrogens summed into heavy atoms:
               1
     2  C   -0.041260
     3  C    0.029461
     4  C    0.216458
     6  C   -0.057769
     7  O   -0.272237
    11  C    0.125348
 Electronic spatial extent (au):  <R**2>=           1426.3852
 Charge=             -0.0000 electrons
 Dipole moment (field-independent basis, Debye):
    X=              0.4849    Y=             -0.1251    Z=             -1.0690  Tot=              1.1805
 Quadrupole moment (field-independent basis, Debye-Ang):
   XX=            -34.3068   YY=            -38.8155   ZZ=            -37.2777
   XY=              0.7948   XZ=              3.1698   YZ=             -0.0061
 Traceless Quadrupole moment (field-independent basis, Debye-Ang):
   XX=              2.4932   YY=             -2.0155   ZZ=             -0.4777
   XY=              0.7948   XZ=              3.1698   YZ=             -0.0061
 Octapole moment (field-independent basis, Debye-Ang**2):
  XXX=             14.2524  YYY=            -19.1011  ZZZ=           -254.7628  XYY=              1.1985
  XXY=             -7.4905  XXZ=            -89.0238  XZZ=             15.1857  YZZ=             -2.2338
  YYZ=            -94.6903  XYZ=              2.8189
 Hexadecapole moment (field-independent basis, Debye-Ang**3):
 XXXX=           -268.6316 YYYY=            -73.9103 ZZZZ=          -1470.3029 XXXY=              9.9200
 XXXZ=             36.1253 YYYX=             10.8024 YYYZ=            -68.5764 ZZZX=             55.8874
 ZZZY=            -33.1572 XXYY=            -62.6172 XXZZ=           -319.6187 YYZZ=           -293.4590
 XXYZ=            -29.3140 YYXZ=              1.5896 ZZXY=             10.8594
 N-N= 2.242940669033D+02 E-N=-1.075677187379D+03  KE= 2.680829465428D+02
   1 Symmetry operations used in ECPInt.
 ECPInt:  NShTT=    4095 NPrTT=   12396 LenC2=    4075 LenP2D=   10418.
 LDataN:  DoStor=T MaxTD1= 7 Len=  274
 Calling FoFJK, ICntrl=      2127 FMM=F ISym2X=0 I1Cent= 0 IOpClX= 0 NMat=1 NMatS=1 NMatT=0.
 -------------------------------------------------------------------
 Center     Atomic                   Forces (Hartrees/Bohr)
 Number     Number              X              Y              Z
 -------------------------------------------------------------------
      1        1          -0.000036071    0.000695093    0.000092812
      2        6           0.000131139   -0.001166796    0.000213396
      3        6           0.000214028    0.000043819   -0.000507733
      4        6           0.000199106    0.000893043   -0.000444916
      5        1          -0.000129254    0.000180642   -0.000033591
      6        6          -0.000489823   -0.000159816    0.000262103
      7        8          -0.000321408   -0.000251770    0.000442967
      8        1           0.000140965    0.000043597   -0.000023463
      9        1          -0.000072802   -0.000404981    0.000102496
     10        1           0.000159150    0.000204686   -0.000016788
     11        6           0.000151821   -0.000334093   -0.000177093
     12        1           0.000053150    0.000256576    0.000089809
 -------------------------------------------------------------------
 Cartesian Forces:  Max     0.001166796 RMS     0.000354252
 -----------------------------------------------------------------------------------------------
                       Internal Coordinate Forces (Hartree/Bohr or radian)
  Cent   Atom   N1       Length/X         N2         Alpha/Y        N3         Beta/Z          J
 -----------------------------------------------------------------------------------------------
      1  H 
      2  C        1  -0.000093(     1)
      3  C        2  -0.000241(     2)      1  -0.000979(    12)
      4  C        2   0.000077(     3)      1  -0.000877(    13)      3  -0.000404(    22)     0
      5  H        3  -0.000100(     4)      2  -0.000179(    14)      1   0.000019(    23)     0
      6  C        3   0.000163(     5)      2   0.000001(    15)      5  -0.000297(    24)     0
      7  O        4   0.000253(     6)      2   0.001202(    16)      1  -0.000852(    25)     0
      8  H        4  -0.000072(     7)      2  -0.000241(    17)      7  -0.000111(    26)     0
      9  H        4   0.000421(     8)      2  -0.000059(    18)      7   0.000079(    27)     0
     10  H        6   0.000100(     9)      3  -0.000157(    19)      2   0.000365(    28)     0
     11  C        6  -0.000235(    10)      3   0.000014(    20)     10  -0.000030(    29)     0
     12  H       11   0.000143(    11)      6  -0.000046(    21)      3   0.000399(    30)     0
 -----------------------------------------------------------------------------------------------
 Internal  Forces:  Max     0.001201654 RMS     0.000409216

 GradGradGradGradGradGradGradGradGradGradGradGradGradGradGradGradGradGrad
 Berny optimization.
 Search for a local minimum.
 Step number   1 out of a maximum of   40
 All quantities printed in internal units (Hartrees-Bohrs-Radians)
 Second derivative matrix not updated -- first step.
 ITU=  0
     Eigenvalues ---    0.01783   0.03457   0.05882   0.07313   0.08248
     Eigenvalues ---    0.12334   0.15089   0.18354   0.20737   0.23047
     Eigenvalues ---    0.23864   0.25572   0.29475   0.33438   0.33700
     Eigenvalues ---    0.34956   0.35661   0.35697   0.35753   0.36008
     Eigenvalues ---    0.37749   0.38186   0.39644   0.51783   0.53428
     Eigenvalues ---    0.56987   0.59501   2.40652   3.31087  39.95114
 RFO step:  Lambda=-1.96759957D-05 EMin= 1.78322826D-02
 Linear search not attempted -- first point.
 Variable       Old X    -DE/DX   Delta X   Delta X   Delta X     New X
                                 (Linear)    (Quad)   (Total)
    R2        2.04470  -0.00009   0.00000  -0.00026  -0.00026   2.04444
    R3        2.52479  -0.00024   0.00000  -0.00056  -0.00056   2.52423
    R4        2.83624   0.00008   0.00000  -0.00011  -0.00011   2.83612
    R5        2.04616  -0.00010   0.00000  -0.00027  -0.00027   2.04589
    R6        2.74804   0.00016   0.00000   0.00051   0.00051   2.74854
    R7        2.73044   0.00025   0.00000   0.00061   0.00061   2.73105
    R8        2.05745  -0.00007   0.00000  -0.00020  -0.00020   2.05724
    R9        2.08289   0.00042   0.00000   0.00126   0.00126   2.08415
   R10        2.04070   0.00010   0.00000   0.00029   0.00029   2.04098
   R11        2.53434  -0.00024   0.00000  -0.00020  -0.00020   2.53415
   R12        2.04558   0.00014   0.00000   0.00040   0.00040   2.04599
    A3        2.14057  -0.00098   0.00000  -0.00155  -0.00155   2.13902
    A4        2.07743  -0.00088   0.00000   0.00001   0.00001   2.07744
    A5        2.11671  -0.00018   0.00000  -0.00060  -0.00060   2.11611
    A6        2.08118   0.00000   0.00000  -0.00015  -0.00015   2.08103
    A7        1.95673   0.00120   0.00000   0.00270   0.00270   1.95943
    A8        1.96114  -0.00024   0.00000  -0.00053  -0.00053   1.96061
    A9        1.93829  -0.00006   0.00000  -0.00176  -0.00176   1.93653
   A10        2.12197  -0.00016   0.00000  -0.00127  -0.00127   2.12069
   A11        2.06170   0.00001   0.00000   0.00118   0.00118   2.06288
   A12        2.17071  -0.00005   0.00000  -0.00080  -0.00080   2.16991
    D4       -3.10952  -0.00040   0.00000   0.00474   0.00474  -3.10479
    D5        0.00633   0.00002   0.00000   0.00848   0.00848   0.01481
    D6        3.06540  -0.00030   0.00000  -0.00233  -0.00233   3.06307
    D7       -2.59384  -0.00085   0.00000  -0.01276  -0.01276  -2.60660
    D8        2.06691  -0.00011   0.00000   0.00223   0.00223   2.06914
    D9       -2.10052   0.00008   0.00000   0.00096   0.00096  -2.09956
   D10        3.02509   0.00036   0.00000   0.00747   0.00747   3.03256
   D11        3.00295  -0.00003   0.00000  -0.00280  -0.00280   3.00015
   D12       -2.94775   0.00040   0.00000   0.00195   0.00195  -2.94581
         Item               Value     Threshold  Converged?
 Maximum Force            0.001202     0.000450     NO 
 RMS     Force            0.000409     0.000300     NO 
 Maximum Displacement     0.012760     0.001800     NO 
 RMS     Displacement     0.003445     0.001200     NO 
 Predicted change in Energy=-9.837995D-06
 GradGradGradGradGradGradGradGradGradGradGradGradGradGradGradGradGradGrad

 ---------------------------------------------------------------------------------------------------
                            Z-MATRIX (ANGSTROMS AND DEGREES)
   CD    Cent   Atom    N1       Length/X        N2       Alpha/Y        N3        Beta/Z          J
 ---------------------------------------------------------------------------------------------------
      1      1  H 
      2      2  C        1   1.081869(     1)
      3      3  C        2   1.335765(     2)      1  122.557(    12)
      4      4  C        2   1.500812(     3)      1  119.029(    13)      3 -177.891(    22)      0
      5      5  H        3   1.082636(     4)      2  121.244(    14)      1    0.848(    23)      0
      6      6  C        3   1.454467(     5)      2  119.234(    15)      5  175.501(    24)      0
      7      7  O        4   1.445211(     6)      2  112.267(    16)      1 -149.347(    25)      0
      8      8  H        4   1.088646(     7)      2  112.335(    17)      7  118.553(    26)      0
      9      9  H        4   1.102882(     8)      2  110.955(    18)      7 -120.296(    27)      0
     10     10  H        6   1.080042(     9)      3  121.507(    19)      2  173.753(    28)      0
     11     11  C        6   1.341013(    10)      3  118.194(    20)     10  171.896(    29)      0
     12     12  H       11   1.082689(    11)      6  124.327(    21)      3 -168.782(    30)      0
 ---------------------------------------------------------------------------------------------------
                         Z-Matrix orientation:                         
 ---------------------------------------------------------------------
 Center     Atomic      Atomic             Coordinates (Angstroms)
 Number     Number       Type             X           Y           Z
 ---------------------------------------------------------------------
      1          1           0        0.000000    0.000000    0.000000
      2          6           0        0.000000    0.000000    1.081869
      3          6           0        1.125862    0.000000    1.800691
      4          6           0       -1.311387   -0.048291    1.810133
      5          1           0        2.097220    0.013703    1.322804
      6          6           0        1.042957    0.080816    3.250542
      7          8           0       -1.257059    0.636046    3.081891
      8          1           0       -2.111303    0.438131    1.254545
      9          1           0       -1.615019   -1.090090    2.007141
     10          1           0        1.920677   -0.016280    3.872372
     11          6           0       -0.125609    0.443976    3.799071
     12          1           0       -0.255877    0.704117    4.841938
 ---------------------------------------------------------------------
                    Distance matrix (angstroms):
                    1          2          3          4          5
     1  H    0.000000
     2  C    1.081869   0.000000
     3  C    2.123688   1.335765   0.000000
     4  C    2.235766   1.500812   2.437746   0.000000
     5  H    2.479583   2.111059   1.082636   3.443826   0.000000
     6  C    3.414720   2.407786   1.454467   2.763039   2.198215
     7  O    3.388629   2.446393   2.779270   1.445211   3.838344
     8  H    2.494682   2.163186   3.312019   1.088646   4.230421
     9  H    2.797356   2.157014   2.956914   1.102882   3.932861
    10  H    4.322560   3.387650   2.218977   3.834070   2.555848
    11  C    3.826988   2.756099   2.399337   2.367334   3.355295
    12  H    4.899553   3.833976   3.413820   3.297281   4.289294
                    6          7          8          9         10
     6  C    0.000000
     7  O    2.372087   0.000000
     8  H    3.749805   2.026844   0.000000
     9  H    3.159415   2.064646   1.774305   0.000000
    10  H    1.080042   3.338922   4.828703   4.139238   0.000000
    11  C    1.341013   1.353299   3.227635   2.789751   2.098689
    12  H    2.146629   2.026022   4.047560   3.619740   2.489261
                   11         12
    11  C    0.000000
    12  H    1.082689   0.000000
 Symmetry turned off by external request.
 Stoichiometry    C5H6O
 Framework group  C1[X(C5H6O)]
 Deg. of freedom    30
 Full point group                 C1      NOp   1
 Rotational constants (GHZ):           5.5829468           5.3695235           2.8518313
 Standard basis: def2TZVP (5D, 7F)
 The following finite field(s) will be applied:
 An electric field of             -0.0012 -0.0032  0.0036
   222 basis functions,   354 primitive gaussians,   252 cartesian basis functions
    22 alpha electrons       22 beta electrons
       nuclear repulsion energy       223.5453977753 Hartrees.
 NAtoms=   12 NActive=   12 NUniq=   12 SFac= 1.00D+00 NAtFMM=   60 NAOKFM=F Big=F
 Integral buffers will be    131072 words long.
 Raffenetti 2 integral format.
 Two-electron integral symmetry is turned off.
 One-electron integrals computed using PRISM.
   1 Symmetry operations used in ECPInt.
 ECPInt:  NShTT=    4095 NPrTT=   12396 LenC2=    4075 LenP2D=   10419.
 LDataN:  DoStor=T MaxTD1= 6 Len=  172
 NBasis=   222 RedAO= T EigKep=  9.52D-05  NBF=   222
 NBsUse=   222 1.00D-06 EigRej= -1.00D+00 NBFU=   222
 The nuclear repulsion energy is now       224.2508497566 hartrees.
 Initial guess from the checkpoint file:  "checkpoint.chk"
 B after Tr=    -0.003858    0.017408   -0.000229
         Rot=    0.999991   -0.003609   -0.000688   -0.002153 Ang=  -0.49 deg.
 Keep R1 ints in memory in canonical form, NReq=319363885.
 Requested convergence on RMS density matrix=1.00D-08 within 128 cycles.
 Requested convergence on MAX density matrix=1.00D-06.
 Requested convergence on             energy=1.00D-06.
 No special actions if energy rises.
 SCF Done:  E(RB3LYP) =  -269.423433831     A.U. after    9 cycles
            NFock=  9  Conv=0.27D-08     -V/T= 2.0050
   1 Symmetry operations used in ECPInt.
 ECPInt:  NShTT=    4095 NPrTT=   12396 LenC2=    4075 LenP2D=   10419.
 LDataN:  DoStor=T MaxTD1= 7 Len=  274
 Calling FoFJK, ICntrl=      2127 FMM=F ISym2X=0 I1Cent= 0 IOpClX= 0 NMat=1 NMatS=1 NMatT=0.
 -------------------------------------------------------------------
 Center     Atomic                   Forces (Hartrees/Bohr)
 Number     Number              X              Y              Z
 -------------------------------------------------------------------
      1        1          -0.000211125    0.000920402   -0.000016807
      2        6           0.000141221   -0.001206529    0.000294242
      3        6           0.000128174    0.000332870   -0.000203880
      4        6           0.000073744    0.000025027   -0.000247068
      5        1          -0.000020844   -0.000027413    0.000005138
      6        6          -0.000212386   -0.000042837    0.000216398
      7        8          -0.000044171   -0.000265395    0.000197823
      8        1           0.000041587    0.000068340   -0.000011150
      9        1          -0.000122321   -0.000037585   -0.000049968
     10        1           0.000010314    0.000048976    0.000004009
     11        6           0.000223544    0.000128016   -0.000162438
     12        1          -0.000007738    0.000056129   -0.000026300
 -------------------------------------------------------------------
 Cartesian Forces:  Max     0.001206529 RMS     0.000289694
 -----------------------------------------------------------------------------------------------
                       Internal Coordinate Forces (Hartree/Bohr or radian)
  Cent   Atom   N1       Length/X         N2         Alpha/Y        N3         Beta/Z          J
 -----------------------------------------------------------------------------------------------
      1  H 
      2  C        1   0.000017(     1)
      3  C        2   0.000012(     2)      1  -0.000363(    12)
      4  C        2  -0.000002(     3)      1  -0.000655(    13)      3   0.000184(    22)     0
      5  H        3  -0.000021(     4)      2  -0.000009(    14)      1  -0.001183(    23)     0
      6  C        3   0.000041(     5)      2  -0.000174(    15)      5  -0.001135(    24)     0
      7  O        4   0.000047(     6)      2   0.000370(    16)      1  -0.001085(    25)     0
      8  H        4   0.000006(     7)      2  -0.000103(    17)      7  -0.000120(    26)     0
      9  H        4   0.000060(     8)      2   0.000139(    18)      7  -0.000202(    27)     0
     10  H        6   0.000006(     9)      3   0.000007(    19)      2  -0.000463(    28)     0
     11  C        6  -0.000215(    10)      3  -0.000309(    20)     10  -0.000550(    29)     0
     12  H       11  -0.000011(    11)      6   0.000043(    21)      3   0.000098(    30)     0
 -----------------------------------------------------------------------------------------------
 Internal  Forces:  Max     0.001182551 RMS     0.000423839

 GradGradGradGradGradGradGradGradGradGradGradGradGradGradGradGradGradGrad
 Berny optimization.
 Search for a local minimum.
 Step number   2 out of a maximum of   40
 All quantities printed in internal units (Hartrees-Bohrs-Radians)
 Update second derivatives using D2CorN and points    1    2
 DE= -1.30D-05 DEPred=-9.84D-06 R= 1.32D+00
 TightC=F SS=  1.41D+00  RLast= 1.89D-02 DXNew= 1.6818D-01 5.6600D-02
 Trust test= 1.32D+00 RLast= 1.89D-02 DXMaxT set to 1.00D-01
 ITU=  1  0
     Eigenvalues ---    0.01376   0.03194   0.05848   0.07322   0.08329
     Eigenvalues ---    0.12387   0.14809   0.18083   0.20634   0.22650
     Eigenvalues ---    0.23863   0.25562   0.29423   0.33418   0.33688
     Eigenvalues ---    0.34957   0.35659   0.35698   0.35754   0.36007
     Eigenvalues ---    0.37752   0.38153   0.39656   0.51810   0.53405
     Eigenvalues ---    0.56988   0.59493   2.40565   3.31137  39.95113
 RFO step:  Lambda=-6.81628009D-06 EMin= 1.37634156D-02
 Quartic linear search produced a step of  0.47161.
 Variable       Old X    -DE/DX   Delta X   Delta X   Delta X     New X
                                 (Linear)    (Quad)   (Total)
    R2        2.04444   0.00002  -0.00012   0.00019   0.00007   2.04450
    R3        2.52423   0.00001  -0.00026   0.00024  -0.00003   2.52420
    R4        2.83612  -0.00000  -0.00005  -0.00035  -0.00041   2.83572
    R5        2.04589  -0.00002  -0.00013   0.00003  -0.00010   2.04579
    R6        2.74854   0.00004   0.00024   0.00012   0.00036   2.74890
    R7        2.73105   0.00005   0.00029   0.00010   0.00039   2.73144
    R8        2.05724   0.00001  -0.00010   0.00012   0.00003   2.05727
    R9        2.08415   0.00006   0.00059  -0.00029   0.00030   2.08445
   R10        2.04098   0.00001   0.00013  -0.00010   0.00004   2.04102
   R11        2.53415  -0.00022  -0.00009  -0.00042  -0.00051   2.53363
   R12        2.04599  -0.00001   0.00019  -0.00023  -0.00004   2.04595
    A3        2.13902  -0.00036  -0.00073   0.00103   0.00029   2.13931
    A4        2.07744  -0.00065   0.00000  -0.00241  -0.00241   2.07504
    A5        2.11611  -0.00001  -0.00028   0.00027  -0.00001   2.11610
    A6        2.08103  -0.00017  -0.00007  -0.00016  -0.00023   2.08080
    A7        1.95943   0.00037   0.00127  -0.00045   0.00082   1.96025
    A8        1.96061  -0.00010  -0.00025  -0.00079  -0.00104   1.95957
    A9        1.93653   0.00014  -0.00083   0.00134   0.00051   1.93704
   A10        2.12069   0.00001  -0.00060   0.00039  -0.00021   2.12048
   A11        2.06288  -0.00031   0.00055  -0.00026   0.00030   2.06317
   A12        2.16991   0.00004  -0.00038   0.00008  -0.00030   2.16961
    D4       -3.10479   0.00018   0.00223   0.00149   0.00372  -3.10106
    D5        0.01481  -0.00118   0.00400  -0.00069   0.00331   0.01811
    D6        3.06307  -0.00114  -0.00110  -0.00025  -0.00135   3.06172
    D7       -2.60660  -0.00108  -0.00602  -0.00287  -0.00888  -2.61548
    D8        2.06914  -0.00012   0.00105  -0.00196  -0.00091   2.06823
    D9       -2.09956  -0.00020   0.00045  -0.00248  -0.00203  -2.10159
   D10        3.03256  -0.00046   0.00352   0.00266   0.00618   3.03875
   D11        3.00015  -0.00055  -0.00132  -0.00035  -0.00167   2.99848
   D12       -2.94581   0.00010   0.00092  -0.00024   0.00068  -2.94513
         Item               Value     Threshold  Converged?
 Maximum Force            0.001183     0.000450     NO 
 RMS     Force            0.000424     0.000300     NO 
 Maximum Displacement     0.008885     0.001800     NO 
 RMS     Displacement     0.002317     0.001200     NO 
 Predicted change in Energy=-3.738959D-06
 GradGradGradGradGradGradGradGradGradGradGradGradGradGradGradGradGradGrad

 ---------------------------------------------------------------------------------------------------
                            Z-MATRIX (ANGSTROMS AND DEGREES)
   CD    Cent   Atom    N1       Length/X        N2       Alpha/Y        N3        Beta/Z          J
 ---------------------------------------------------------------------------------------------------
      1      1  H 
      2      2  C        1   1.081904(     1)
      3      3  C        2   1.335751(     2)      1  122.574(    12)
      4      4  C        2   1.500596(     3)      1  118.891(    13)      3 -177.678(    22)      0
      5      5  H        3   1.082585(     4)      2  121.244(    14)      1    1.038(    23)      0
      6      6  C        3   1.454657(     5)      2  119.221(    15)      5  175.424(    24)      0
      7      7  O        4   1.445417(     6)      2  112.314(    16)      1 -149.856(    25)      0
      8      8  H        4   1.088661(     7)      2  112.275(    17)      7  118.501(    26)      0
      9      9  H        4   1.103043(     8)      2  110.984(    18)      7 -120.412(    27)      0
     10     10  H        6   1.080063(     9)      3  121.495(    19)      2  174.107(    28)      0
     11     11  C        6   1.340741(    10)      3  118.211(    20)     10  171.801(    29)      0
     12     12  H       11   1.082669(    11)      6  124.310(    21)      3 -168.743(    30)      0
 ---------------------------------------------------------------------------------------------------
                         Z-Matrix orientation:                         
 ---------------------------------------------------------------------
 Center     Atomic      Atomic             Coordinates (Angstroms)
 Number     Number       Type             X           Y           Z
 ---------------------------------------------------------------------
      1          1           0        0.000000    0.000000    0.000000
      2          6           0        0.000000    0.000000    1.081904
      3          6           0        1.125639    0.000000    1.801047
      4          6           0       -1.312756   -0.053237    1.806906
      5          1           0        2.097059    0.016766    1.323499
      6          6           0        1.041877    0.078352    3.251175
      7          8           0       -1.261850    0.620873    3.084487
      8          1           0       -2.110303    0.439056    1.253056
      9          1           0       -1.618920   -1.096376    1.993531
     10          1           0        1.920307   -0.013226    3.872874
     11          6           0       -0.128445    0.434135    3.800130
     12          1           0       -0.259712    0.692545    4.843282
 ---------------------------------------------------------------------
                    Distance matrix (angstroms):
                    1          2          3          4          5
     1  H    0.000000
     2  C    1.081904   0.000000
     3  C    2.123873   1.335751   0.000000
     4  C    2.234070   1.500596   2.438983   0.000000
     5  H    2.479836   2.110997   1.082585   3.444622   0.000000
     6  C    3.414936   2.407776   1.454657   2.765416   2.198441
     7  O    3.389957   2.447057   2.780792   1.445417   3.840351
     8  H    2.493251   2.162277   3.311251   1.088661   4.229089
     9  H    2.792330   2.157314   2.961704   1.103043   3.936563
    10  H    4.322835   3.387811   2.219039   3.836994   2.555671
    11  C    3.827004   2.755672   2.399486   2.369191   3.355707
    12  H    4.899434   3.833410   3.413797   3.299193   4.289513
                    6          7          8          9         10
     6  C    0.000000
     7  O    2.372608   0.000000
     8  H    3.749510   2.026591   0.000000
     9  H    3.168831   2.065582   1.774067   0.000000
    10  H    1.080063   3.339125   4.828439   4.151056   0.000000
    11  C    1.340741   1.353374   3.227285   2.797817   2.098287
    12  H    2.146199   2.025531   4.047056   3.628879   2.488431
                   11         12
    11  C    0.000000
    12  H    1.082669   0.000000
 Symmetry turned off by external request.
 Stoichiometry    C5H6O
 Framework group  C1[X(C5H6O)]
 Deg. of freedom    30
 Full point group                 C1      NOp   1
 Rotational constants (GHZ):           5.5799916           5.3693118           2.8491496
 Standard basis: def2TZVP (5D, 7F)
 The following finite field(s) will be applied:
 An electric field of             -0.0012 -0.0032  0.0036
   222 basis functions,   354 primitive gaussians,   252 cartesian basis functions
    22 alpha electrons       22 beta electrons
       nuclear repulsion energy       223.5099736753 Hartrees.
 NAtoms=   12 NActive=   12 NUniq=   12 SFac= 1.00D+00 NAtFMM=   60 NAOKFM=F Big=F
 Integral buffers will be    131072 words long.
 Raffenetti 2 integral format.
 Two-electron integral symmetry is turned off.
 One-electron integrals computed using PRISM.
   1 Symmetry operations used in ECPInt.
 ECPInt:  NShTT=    4095 NPrTT=   12396 LenC2=    4075 LenP2D=   10418.
 LDataN:  DoStor=T MaxTD1= 6 Len=  172
 NBasis=   222 RedAO= T EigKep=  9.50D-05  NBF=   222
 NBsUse=   222 1.00D-06 EigRej= -1.00D+00 NBFU=   222
 The nuclear repulsion energy is now       224.2170527114 hartrees.
 Initial guess from the checkpoint file:  "checkpoint.chk"
 B after Tr=     0.001023    0.008316   -0.001035
         Rot=    0.999997   -0.001891    0.000351   -0.001693 Ang=  -0.29 deg.
 Keep R1 ints in memory in canonical form, NReq=319363885.
 Requested convergence on RMS density matrix=1.00D-08 within 128 cycles.
 Requested convergence on MAX density matrix=1.00D-06.
 Requested convergence on             energy=1.00D-06.
 No special actions if energy rises.
 SCF Done:  E(RB3LYP) =  -269.423439883     A.U. after    8 cycles
            NFock=  8  Conv=0.91D-08     -V/T= 2.0050
   1 Symmetry operations used in ECPInt.
 ECPInt:  NShTT=    4095 NPrTT=   12396 LenC2=    4075 LenP2D=   10418.
 LDataN:  DoStor=T MaxTD1= 7 Len=  274
 Calling FoFJK, ICntrl=      2127 FMM=F ISym2X=0 I1Cent= 0 IOpClX= 0 NMat=1 NMatS=1 NMatT=0.
 -------------------------------------------------------------------
 Center     Atomic                   Forces (Hartrees/Bohr)
 Number     Number              X              Y              Z
 -------------------------------------------------------------------
      1        1          -0.000108841    0.001000867   -0.000019012
      2        6           0.000194578   -0.001488415    0.000158883
      3        6          -0.000068396    0.000486029   -0.000119984
      4        6           0.000024500    0.000051471   -0.000137010
      5        1          -0.000006489   -0.000060404   -0.000006718
      6        6           0.000000578   -0.000005012    0.000063581
      7        8           0.000107150   -0.000225328    0.000214563
      8        1          -0.000023574    0.000027740   -0.000046448
      9        1          -0.000043948    0.000074536    0.000006259
     10        1          -0.000010944   -0.000005084   -0.000002602
     11        6          -0.000035901    0.000158770   -0.000109717
     12        1          -0.000028713   -0.000015170   -0.000001795
 -------------------------------------------------------------------
 Cartesian Forces:  Max     0.001488415 RMS     0.000322171
 -----------------------------------------------------------------------------------------------
                       Internal Coordinate Forces (Hartree/Bohr or radian)
  Cent   Atom   N1       Length/X         N2         Alpha/Y        N3         Beta/Z          J
 -----------------------------------------------------------------------------------------------
      1  H 
      2  C        1   0.000019(     1)
      3  C        2  -0.000222(     2)      1   0.000401(    12)
      4  C        2  -0.000036(     3)      1   0.000326(    13)      3  -0.000124(    22)     0
      5  H        3  -0.000004(     4)      2  -0.000017(    14)      1  -0.000728(    23)     0
      6  C        3  -0.000039(     5)      2  -0.000596(    15)      5  -0.000622(    24)     0
      7  O        4   0.000088(     6)      2  -0.000046(    16)      1  -0.000824(    25)     0
      8  H        4   0.000053(     7)      2  -0.000051(    17)      7   0.000004(    26)     0
      9  H        4  -0.000057(     8)      2   0.000132(    18)      7  -0.000028(    27)     0
     10  H        6  -0.000010(     9)      3   0.000007(    19)      2  -0.000275(    28)     0
     11  C        6   0.000049(    10)      3  -0.000401(    20)     10  -0.000264(    29)     0
     12  H       11  -0.000002(    11)      6   0.000053(    21)      3  -0.000033(    30)     0
 -----------------------------------------------------------------------------------------------
 Internal  Forces:  Max     0.000823959 RMS     0.000296452

 GradGradGradGradGradGradGradGradGradGradGradGradGradGradGradGradGradGrad
 Berny optimization.
 Search for a local minimum.
 Step number   3 out of a maximum of   40
 All quantities printed in internal units (Hartrees-Bohrs-Radians)
 Update second derivatives using D2CorN and points    1    2    3
 DE= -6.05D-06 DEPred=-3.74D-06 R= 1.62D+00
 TightC=F SS=  1.41D+00  RLast= 1.27D-02 DXNew= 1.6818D-01 3.8065D-02
 Trust test= 1.62D+00 RLast= 1.27D-02 DXMaxT set to 1.00D-01
 ITU=  1  1  0
     Eigenvalues ---    0.01321   0.03259   0.05802   0.07340   0.08215
     Eigenvalues ---    0.12399   0.14367   0.17821   0.20440   0.22233
     Eigenvalues ---    0.23866   0.25559   0.29317   0.33430   0.33679
     Eigenvalues ---    0.34959   0.35659   0.35698   0.35755   0.36008
     Eigenvalues ---    0.37753   0.38132   0.39657   0.51758   0.53391
     Eigenvalues ---    0.56988   0.59484   2.40398   3.30771  39.95124
 RFO step:  Lambda=-2.03032875D-06 EMin= 1.32131674D-02
 Quartic linear search produced a step of  0.68026.
 Variable       Old X    -DE/DX   Delta X   Delta X   Delta X     New X
                                 (Linear)    (Quad)   (Total)
    R2        2.04450   0.00002   0.00005   0.00006   0.00011   2.04461
    R3        2.52420  -0.00022  -0.00002  -0.00030  -0.00032   2.52388
    R4        2.83572  -0.00004  -0.00028   0.00019  -0.00009   2.83563
    R5        2.04579  -0.00000  -0.00007   0.00002  -0.00005   2.04574
    R6        2.74890  -0.00004   0.00024  -0.00006   0.00019   2.74909
    R7        2.73144   0.00009   0.00026   0.00026   0.00052   2.73196
    R8        2.05727   0.00005   0.00002   0.00025   0.00027   2.05754
    R9        2.08445  -0.00006   0.00021  -0.00040  -0.00019   2.08426
   R10        2.04102  -0.00001   0.00003  -0.00006  -0.00003   2.04099
   R11        2.53363   0.00005  -0.00035   0.00009  -0.00026   2.53337
   R12        2.04595  -0.00000  -0.00003   0.00001  -0.00001   2.04594
    A3        2.13931   0.00040   0.00020  -0.00054  -0.00034   2.13897
    A4        2.07504   0.00033  -0.00164   0.00020  -0.00144   2.07360
    A5        2.11610  -0.00002  -0.00001  -0.00025  -0.00026   2.11584
    A6        2.08080  -0.00060  -0.00016   0.00043   0.00027   2.08107
    A7        1.96025  -0.00005   0.00056   0.00063   0.00119   1.96144
    A8        1.95957  -0.00005  -0.00071   0.00013  -0.00058   1.95899
    A9        1.93704   0.00013   0.00035  -0.00004   0.00031   1.93735
   A10        2.12048   0.00001  -0.00014   0.00002  -0.00013   2.12036
   A11        2.06317  -0.00040   0.00020   0.00008   0.00028   2.06345
   A12        2.16961   0.00005  -0.00020   0.00017  -0.00004   2.16958
    D4       -3.10106  -0.00012   0.00253  -0.00095   0.00158  -3.09948
    D5        0.01811  -0.00073   0.00225  -0.00045   0.00180   0.01992
    D6        3.06172  -0.00062  -0.00092   0.00196   0.00104   3.06276
    D7       -2.61548  -0.00082  -0.00604  -0.00331  -0.00935  -2.62483
    D8        2.06823   0.00000  -0.00062   0.00138   0.00076   2.06899
    D9       -2.10159  -0.00003  -0.00138   0.00105  -0.00033  -2.10192
   D10        3.03875  -0.00028   0.00421  -0.00114   0.00307   3.04181
   D11        2.99848  -0.00026  -0.00114   0.00137   0.00023   2.99871
   D12       -2.94513  -0.00003   0.00046  -0.00247  -0.00200  -2.94713
         Item               Value     Threshold  Converged?
 Maximum Force            0.000824     0.000450     NO 
 RMS     Force            0.000296     0.000300     YES
 Maximum Displacement     0.009350     0.001800     NO 
 RMS     Displacement     0.001943     0.001200     NO 
 Predicted change in Energy=-1.781551D-06
 GradGradGradGradGradGradGradGradGradGradGradGradGradGradGradGradGradGrad

 ---------------------------------------------------------------------------------------------------
                            Z-MATRIX (ANGSTROMS AND DEGREES)
   CD    Cent   Atom    N1       Length/X        N2       Alpha/Y        N3        Beta/Z          J
 ---------------------------------------------------------------------------------------------------
      1      1  H 
      2      2  C        1   1.081960(     1)
      3      3  C        2   1.335581(     2)      1  122.554(    12)
      4      4  C        2   1.500551(     3)      1  118.809(    13)      3 -177.587(    22)      0
      5      5  H        3   1.082560(     4)      2  121.229(    14)      1    1.141(    23)      0
      6      6  C        3   1.454756(     5)      2  119.236(    15)      5  175.483(    24)      0
      7      7  O        4   1.445693(     6)      2  112.382(    16)      1 -150.392(    25)      0
      8      8  H        4   1.088805(     7)      2  112.242(    17)      7  118.544(    26)      0
      9      9  H        4   1.102943(     8)      2  111.002(    18)      7 -120.431(    27)      0
     10     10  H        6   1.080047(     9)      3  121.488(    19)      2  174.283(    28)      0
     11     11  C        6   1.340604(    10)      3  118.227(    20)     10  171.814(    29)      0
     12     12  H       11   1.082662(    11)      6  124.308(    21)      3 -168.858(    30)      0
 ---------------------------------------------------------------------------------------------------
                         Z-Matrix orientation:                         
 ---------------------------------------------------------------------
 Center     Atomic      Atomic             Coordinates (Angstroms)
 Number     Number       Type             X           Y           Z
 ---------------------------------------------------------------------
      1          1           0        0.000000    0.000000    0.000000
      2          6           0        0.000000    0.000000    1.081960
      3          6           0        1.125740    0.000000    1.800630
      4          6           0       -1.313669   -0.055351    1.805051
      5          1           0        2.096835    0.018438    1.322538
      6          6           0        1.042733    0.074738    3.251092
      7          8           0       -1.263851    0.607789    3.088715
      8          1           0       -2.109021    0.443380    1.253527
      9          1           0       -1.623509   -1.098886    1.982580
     10          1           0        1.922118   -0.014218    3.871794
     11          6           0       -0.128583    0.423606    3.802025
     12          1           0       -0.260287    0.677264    4.846281
 ---------------------------------------------------------------------
                    Distance matrix (angstroms):
                    1          2          3          4          5
     1  H    0.000000
     2  C    1.081960   0.000000
     3  C    2.123572   1.335581   0.000000
     4  C    2.233159   1.500551   2.440041   0.000000
     5  H    2.479146   2.110671   1.082560   3.445258   0.000000
     6  C    3.415037   2.407906   1.454756   2.767777   2.198549
     7  O    3.392180   2.448222   2.781855   1.445693   3.841995
     8  H    2.493168   2.161942   3.310526   1.088805   4.227832
     9  H    2.788181   2.157417   2.966315   1.102943   3.940181
    10  H    4.322676   3.387907   2.219041   3.839718   2.555445
    11  C    3.827711   2.755854   2.399657   2.371019   3.356263
    12  H    4.900293   3.833608   3.414052   3.300820   4.290319
                    6          7          8          9         10
     6  C    0.000000
     7  O    2.372939   0.000000
     8  H    3.749629   2.027131   0.000000
     9  H    3.177320   2.065340   1.773648   0.000000
    10  H    1.080047   3.339237   4.828540   4.161383   0.000000
    11  C    1.340604   1.353354   3.227595   2.804134   2.098078
    12  H    2.146049   2.025094   4.047271   3.635088   2.488104
                   11         12
    11  C    0.000000
    12  H    1.082662   0.000000
 Symmetry turned off by external request.
 Stoichiometry    C5H6O
 Framework group  C1[X(C5H6O)]
 Deg. of freedom    30
 Full point group                 C1      NOp   1
 Rotational constants (GHZ):           5.5772427           5.3688328           2.8463730
 Standard basis: def2TZVP (5D, 7F)
 The following finite field(s) will be applied:
 An electric field of             -0.0012 -0.0032  0.0036
   222 basis functions,   354 primitive gaussians,   252 cartesian basis functions
    22 alpha electrons       22 beta electrons
       nuclear repulsion energy       223.4740805078 Hartrees.
 NAtoms=   12 NActive=   12 NUniq=   12 SFac= 1.00D+00 NAtFMM=   60 NAOKFM=F Big=F
 Integral buffers will be    131072 words long.
 Raffenetti 2 integral format.
 Two-electron integral symmetry is turned off.
 One-electron integrals computed using PRISM.
   1 Symmetry operations used in ECPInt.
 ECPInt:  NShTT=    4095 NPrTT=   12396 LenC2=    4075 LenP2D=   10418.
 LDataN:  DoStor=T MaxTD1= 6 Len=  172
 NBasis=   222 RedAO= T EigKep=  9.47D-05  NBF=   222
 NBsUse=   222 1.00D-06 EigRej= -1.00D+00 NBFU=   222
 The nuclear repulsion energy is now       224.1826689866 hartrees.
 Initial guess from the checkpoint file:  "checkpoint.chk"
 B after Tr=    -0.000920    0.011408   -0.000498
         Rot=    0.999997   -0.002163   -0.000082   -0.001018 Ang=  -0.27 deg.
 Keep R1 ints in memory in canonical form, NReq=319363885.
 Requested convergence on RMS density matrix=1.00D-08 within 128 cycles.
 Requested convergence on MAX density matrix=1.00D-06.
 Requested convergence on             energy=1.00D-06.
 No special actions if energy rises.
 SCF Done:  E(RB3LYP) =  -269.423442382     A.U. after    9 cycles
            NFock=  9  Conv=0.27D-08     -V/T= 2.0050
   1 Symmetry operations used in ECPInt.
 ECPInt:  NShTT=    4095 NPrTT=   12396 LenC2=    4075 LenP2D=   10418.
 LDataN:  DoStor=T MaxTD1= 7 Len=  274
 Calling FoFJK, ICntrl=      2127 FMM=F ISym2X=0 I1Cent= 0 IOpClX= 0 NMat=1 NMatS=1 NMatT=0.
 -------------------------------------------------------------------
 Center     Atomic                   Forces (Hartrees/Bohr)
 Number     Number              X              Y              Z
 -------------------------------------------------------------------
      1        1          -0.000098354    0.001065930   -0.000002760
      2        6           0.000117217   -0.001519710    0.000052017
      3        6          -0.000039231    0.000480780   -0.000021201
      4        6           0.000003522   -0.000027588    0.000000035
      5        1           0.000001793   -0.000074639   -0.000010466
      6        6           0.000029445    0.000072889    0.000036372
      7        8           0.000128868   -0.000062899    0.000103710
      8        1           0.000008793    0.000028937    0.000007323
      9        1          -0.000026285    0.000008000   -0.000036224
     10        1          -0.000010537   -0.000040703    0.000001759
     11        6          -0.000092779    0.000095912   -0.000132641
     12        1          -0.000022453   -0.000026908    0.000002076
 -------------------------------------------------------------------
 Cartesian Forces:  Max     0.001519710 RMS     0.000324539
 -----------------------------------------------------------------------------------------------
                       Internal Coordinate Forces (Hartree/Bohr or radian)
  Cent   Atom   N1       Length/X         N2         Alpha/Y        N3         Beta/Z          J
 -----------------------------------------------------------------------------------------------
      1  H 
      2  C        1   0.000003(     1)
      3  C        2  -0.000180(     2)      1   0.000647(    12)
      4  C        2  -0.000063(     3)      1   0.000598(    13)      3  -0.000131(    22)     0
      5  H        3   0.000005(     4)      2  -0.000016(    14)      1  -0.000494(    23)     0
      6  C        3  -0.000081(     5)      2  -0.000750(    15)      5  -0.000363(    24)     0
      7  O        4   0.000068(     6)      2  -0.000255(    16)      1  -0.000483(    25)     0
      8  H        4   0.000003(     7)      2  -0.000014(    17)      7  -0.000057(    26)     0
      9  H        4  -0.000006(     8)      2   0.000017(    18)      7  -0.000086(    27)     0
     10  H        6  -0.000004(     9)      3   0.000006(    19)      2  -0.000149(    28)     0
     11  C        6   0.000065(    10)      3  -0.000462(    20)     10  -0.000076(    29)     0
     12  H       11  -0.000002(    11)      6   0.000036(    21)      3  -0.000051(    30)     0
 -----------------------------------------------------------------------------------------------
 Internal  Forces:  Max     0.000749760 RMS     0.000279088

 GradGradGradGradGradGradGradGradGradGradGradGradGradGradGradGradGradGrad
 Berny optimization.
 Search for a local minimum.
 Step number   4 out of a maximum of   40
 All quantities printed in internal units (Hartrees-Bohrs-Radians)
 Update second derivatives using D2CorN and points    1    2    3    4
 DE= -2.50D-06 DEPred=-1.78D-06 R= 1.40D+00
 TightC=F SS=  1.41D+00  RLast= 1.06D-02 DXNew= 1.6818D-01 3.1933D-02
 Trust test= 1.40D+00 RLast= 1.06D-02 DXMaxT set to 1.00D-01
 ITU=  1  1  1  0
     Eigenvalues ---    0.01683   0.03480   0.05758   0.07268   0.08166
     Eigenvalues ---    0.12405   0.14034   0.17717   0.20317   0.22085
     Eigenvalues ---    0.23872   0.25559   0.29267   0.33428   0.33677
     Eigenvalues ---    0.34958   0.35659   0.35699   0.35755   0.36008
     Eigenvalues ---    0.37752   0.38127   0.39655   0.51729   0.53389
     Eigenvalues ---    0.56988   0.59478   2.40318   3.30517  39.95115
 RFO step:  Lambda=-5.60835916D-07 EMin= 1.68341121D-02
 Quartic linear search produced a step of  0.35538.
 Variable       Old X    -DE/DX   Delta X   Delta X   Delta X     New X
                                 (Linear)    (Quad)   (Total)
    R2        2.04461   0.00000   0.00004  -0.00002   0.00002   2.04463
    R3        2.52388  -0.00018  -0.00011   0.00002  -0.00009   2.52379
    R4        2.83563  -0.00006  -0.00003  -0.00001  -0.00004   2.83559
    R5        2.04574   0.00000  -0.00002   0.00002   0.00001   2.04575
    R6        2.74909  -0.00008   0.00007  -0.00003   0.00004   2.74913
    R7        2.73196   0.00007   0.00019  -0.00004   0.00014   2.73211
    R8        2.05754   0.00000   0.00010  -0.00005   0.00004   2.05759
    R9        2.08426  -0.00001  -0.00007   0.00005  -0.00002   2.08424
   R10        2.04099  -0.00000  -0.00001  -0.00000  -0.00001   2.04098
   R11        2.53337   0.00006  -0.00009  -0.00001  -0.00010   2.53328
   R12        2.04594  -0.00000  -0.00000   0.00000  -0.00000   2.04593
    A3        2.13897   0.00065  -0.00012   0.00008  -0.00004   2.13893
    A4        2.07360   0.00060  -0.00051  -0.00007  -0.00058   2.07302
    A5        2.11584  -0.00002  -0.00009  -0.00005  -0.00015   2.11570
    A6        2.08107  -0.00075   0.00009   0.00005   0.00014   2.08121
    A7        1.96144  -0.00025   0.00042  -0.00008   0.00034   1.96178
    A8        1.95899  -0.00001  -0.00021  -0.00018  -0.00039   1.95860
    A9        1.93735   0.00002   0.00011   0.00007   0.00018   1.93753
   A10        2.12036   0.00001  -0.00004   0.00010   0.00005   2.12041
   A11        2.06345  -0.00046   0.00010  -0.00010  -0.00000   2.06345
   A12        2.16958   0.00004  -0.00001   0.00004   0.00003   2.16961
    D4       -3.09948  -0.00013   0.00056  -0.00074  -0.00018  -3.09966
    D5        0.01992  -0.00049   0.00064  -0.00128  -0.00064   0.01928
    D6        3.06276  -0.00036   0.00037   0.00060   0.00097   3.06373
    D7       -2.62483  -0.00048  -0.00332   0.00058  -0.00274  -2.62758
    D8        2.06899  -0.00006   0.00027  -0.00075  -0.00048   2.06851
    D9       -2.10192  -0.00009  -0.00012  -0.00083  -0.00095  -2.10286
   D10        3.04181  -0.00015   0.00109  -0.00065   0.00044   3.04226
   D11        2.99871  -0.00008   0.00008   0.00081   0.00089   2.99960
   D12       -2.94713  -0.00005  -0.00071  -0.00092  -0.00163  -2.94876
         Item               Value     Threshold  Converged?
 Maximum Force            0.000750     0.000450     NO 
 RMS     Force            0.000279     0.000300     YES
 Maximum Displacement     0.002742     0.001800     NO 
 RMS     Displacement     0.000693     0.001200     YES
 Predicted change in Energy=-3.719317D-07
 GradGradGradGradGradGradGradGradGradGradGradGradGradGradGradGradGradGrad

 ---------------------------------------------------------------------------------------------------
                            Z-MATRIX (ANGSTROMS AND DEGREES)
   CD    Cent   Atom    N1       Length/X        N2       Alpha/Y        N3        Beta/Z          J
 ---------------------------------------------------------------------------------------------------
      1      1  H 
      2      2  C        1   1.081971(     1)
      3      3  C        2   1.335532(     2)      1  122.552(    12)
      4      4  C        2   1.500527(     3)      1  118.775(    13)      3 -177.598(    22)      0
      5      5  H        3   1.082564(     4)      2  121.220(    14)      1    1.104(    23)      0
      6      6  C        3   1.454777(     5)      2  119.245(    15)      5  175.539(    24)      0
      7      7  O        4   1.445768(     6)      2  112.402(    16)      1 -150.549(    25)      0
      8      8  H        4   1.088828(     7)      2  112.220(    17)      7  118.517(    26)      0
      9      9  H        4   1.102931(     8)      2  111.012(    18)      7 -120.485(    27)      0
     10     10  H        6   1.080039(     9)      3  121.491(    19)      2  174.309(    28)      0
     11     11  C        6   1.340553(    10)      3  118.227(    20)     10  171.865(    29)      0
     12     12  H       11   1.082660(    11)      6  124.309(    21)      3 -168.952(    30)      0
 ---------------------------------------------------------------------------------------------------
                         Z-Matrix orientation:                         
 ---------------------------------------------------------------------
 Center     Atomic      Atomic             Coordinates (Angstroms)
 Number     Number       Type             X           Y           Z
 ---------------------------------------------------------------------
      1          1           0        0.000000    0.000000    0.000000
      2          6           0        0.000000    0.000000    1.081971
      3          6           0        1.125730    0.000000    1.800564
      4          6           0       -1.314075   -0.055129    1.804293
      5          1           0        2.096744    0.017844    1.322277
      6          6           0        1.042983    0.074321    3.251084
      7          8           0       -1.264342    0.604744    3.089726
      8          1           0       -2.108052    0.446653    1.253509
      9          1           0       -1.626198   -1.098552    1.978378
     10          1           0        1.922513   -0.014249    3.871622
     11          6           0       -0.128669    0.421315    3.802363
     12          1           0       -0.260789    0.673166    4.847001
 ---------------------------------------------------------------------
                    Distance matrix (angstroms):
                    1          2          3          4          5
     1  H    0.000000
     2  C    1.081971   0.000000
     3  C    2.123511   1.335532   0.000000
     4  C    2.232780   1.500527   2.440431   0.000000
     5  H    2.478925   2.110545   1.082564   3.445483   0.000000
     6  C    3.415096   2.407984   1.454777   2.768698   2.198613
     7  O    3.392740   2.448542   2.782103   1.445768   3.842555
     8  H    2.492924   2.161668   3.310003   1.088828   4.227164
     9  H    2.786631   2.157517   2.968424   1.102931   3.941713
    10  H    4.322698   3.387981   2.219087   3.840706   2.555494
    11  C    3.827796   2.755829   2.399629   2.371596   3.356498
    12  H    4.900467   3.833616   3.414142   3.301197   4.290814
                    6          7          8          9         10
     6  C    0.000000
     7  O    2.373001   0.000000
     8  H    3.749394   2.026951   0.000000
     9  H    3.181185   2.065732   1.773493   0.000000
    10  H    1.080039   3.339245   4.828291   4.165745   0.000000
    11  C    1.340553   1.353236   3.227267   2.807045   2.098061
    12  H    2.146016   2.024800   4.046834   3.637626   2.488113
                   11         12
    11  C    0.000000
    12  H    1.082660   0.000000
 Symmetry turned off by external request.
 Stoichiometry    C5H6O
 Framework group  C1[X(C5H6O)]
 Deg. of freedom    30
 Full point group                 C1      NOp   1
 Rotational constants (GHZ):           5.5762605           5.3689573           2.8454741
 Standard basis: def2TZVP (5D, 7F)
 The following finite field(s) will be applied:
 An electric field of             -0.0012 -0.0032  0.0036
   222 basis functions,   354 primitive gaussians,   252 cartesian basis functions
    22 alpha electrons       22 beta electrons
       nuclear repulsion energy       223.4645028057 Hartrees.
 NAtoms=   12 NActive=   12 NUniq=   12 SFac= 1.00D+00 NAtFMM=   60 NAOKFM=F Big=F
 Integral buffers will be    131072 words long.
 Raffenetti 2 integral format.
 Two-electron integral symmetry is turned off.
 One-electron integrals computed using PRISM.
   1 Symmetry operations used in ECPInt.
 ECPInt:  NShTT=    4095 NPrTT=   12396 LenC2=    4075 LenP2D=   10418.
 LDataN:  DoStor=T MaxTD1= 6 Len=  172
 NBasis=   222 RedAO= T EigKep=  9.46D-05  NBF=   222
 NBsUse=   222 1.00D-06 EigRej= -1.00D+00 NBFU=   222
 The nuclear repulsion energy is now       224.1733636265 hartrees.
 Initial guess from the checkpoint file:  "checkpoint.chk"
 B after Tr=    -0.000063    0.003438   -0.000290
         Rot=    1.000000   -0.000549    0.000018   -0.000128 Ang=  -0.06 deg.
 Keep R1 ints in memory in canonical form, NReq=319363885.
 Requested convergence on RMS density matrix=1.00D-08 within 128 cycles.
 Requested convergence on MAX density matrix=1.00D-06.
 Requested convergence on             energy=1.00D-06.
 No special actions if energy rises.
 SCF Done:  E(RB3LYP) =  -269.423442969     A.U. after    8 cycles
            NFock=  8  Conv=0.50D-08     -V/T= 2.0050
   1 Symmetry operations used in ECPInt.
 ECPInt:  NShTT=    4095 NPrTT=   12396 LenC2=    4075 LenP2D=   10418.
 LDataN:  DoStor=T MaxTD1= 7 Len=  274
 Calling FoFJK, ICntrl=      2127 FMM=F ISym2X=0 I1Cent= 0 IOpClX= 0 NMat=1 NMatS=1 NMatT=0.
 -------------------------------------------------------------------
 Center     Atomic                   Forces (Hartrees/Bohr)
 Number     Number              X              Y              Z
 -------------------------------------------------------------------
      1        1          -0.000084007    0.001052140   -0.000003418
      2        6           0.000102971   -0.001502423    0.000035630
      3        6          -0.000009490    0.000446316   -0.000016179
      4        6          -0.000020253    0.000041859   -0.000009197
      5        1          -0.000001430   -0.000045225   -0.000007126
      6        6           0.000016428    0.000060713    0.000020769
      7        8           0.000073792   -0.000065092    0.000036656
      8        1          -0.000005855    0.000005228   -0.000010181
      9        1          -0.000005926    0.000013572    0.000003753
     10        1          -0.000009570   -0.000039178    0.000000227
     11        6          -0.000055424    0.000040139   -0.000057152
     12        1          -0.000001238   -0.000008049    0.000006219
 -------------------------------------------------------------------
 Cartesian Forces:  Max     0.001502423 RMS     0.000316781
 -----------------------------------------------------------------------------------------------
                       Internal Coordinate Forces (Hartree/Bohr or radian)
  Cent   Atom   N1       Length/X         N2         Alpha/Y        N3         Beta/Z          J
 -----------------------------------------------------------------------------------------------
      1  H 
      2  C        1   0.000003(     1)
      3  C        2  -0.000080(     2)      1   0.000280(    12)
      4  C        2  -0.000026(     3)      1   0.000268(    13)      3  -0.000105(    22)     0
      5  H        3   0.000001(     4)      2  -0.000013(    14)      1  -0.000262(    23)     0
      6  C        3  -0.000024(     5)      2  -0.000325(    15)      5  -0.000183(    24)     0
      7  O        4   0.000005(     6)      2  -0.000138(    16)      1  -0.000228(    25)     0
      8  H        4   0.000012(     7)      2  -0.000010(    17)      7   0.000003(    26)     0
      9  H        4  -0.000011(     8)      2   0.000023(    18)      7   0.000001(    27)     0
     10  H        6  -0.000004(     9)      3   0.000003(    19)      2  -0.000107(    28)     0
     11  C        6   0.000037(    10)      3  -0.000178(    20)     10  -0.000037(    29)     0
     12  H       11   0.000004(    11)      6  -0.000002(    21)      3  -0.000016(    30)     0
 -----------------------------------------------------------------------------------------------
 Internal  Forces:  Max     0.000324853 RMS     0.000128445

 GradGradGradGradGradGradGradGradGradGradGradGradGradGradGradGradGradGrad
 Berny optimization.
 Search for a local minimum.
 Step number   5 out of a maximum of   40
 All quantities printed in internal units (Hartrees-Bohrs-Radians)
 Update second derivatives using D2CorN and points    1    2    3    4    5

 DE= -5.87D-07 DEPred=-3.72D-07 R= 1.58D+00
 Trust test= 1.58D+00 RLast= 3.79D-03 DXMaxT set to 1.00D-01
 ITU=  0  1  1  1  0
     Eigenvalues ---    0.01576   0.03684   0.05627   0.06853   0.07881
     Eigenvalues ---    0.12411   0.13629   0.17601   0.20103   0.21970
     Eigenvalues ---    0.23883   0.25560   0.29208   0.33422   0.33678
     Eigenvalues ---    0.34957   0.35659   0.35699   0.35754   0.36007
     Eigenvalues ---    0.37751   0.38127   0.39652   0.51627   0.53388
     Eigenvalues ---    0.56987   0.59478   2.40236   3.30078  39.94935
 RFO step:  Lambda=-2.27336351D-07 EMin= 1.57619196D-02
 Quartic linear search produced a step of  0.67837.
 Variable       Old X    -DE/DX   Delta X   Delta X   Delta X     New X
                                 (Linear)    (Quad)   (Total)
    R2        2.04463   0.00000   0.00001   0.00000   0.00002   2.04465
    R3        2.52379  -0.00008  -0.00006   0.00002  -0.00005   2.52374
    R4        2.83559  -0.00003  -0.00003   0.00008   0.00005   2.83563
    R5        2.04575   0.00000   0.00000  -0.00000   0.00000   2.04575
    R6        2.74913  -0.00002   0.00003  -0.00002   0.00001   2.74914
    R7        2.73211   0.00001   0.00010  -0.00006   0.00004   2.73214
    R8        2.05759   0.00001   0.00003   0.00004   0.00007   2.05765
    R9        2.08424  -0.00001  -0.00001  -0.00003  -0.00005   2.08419
   R10        2.04098  -0.00000  -0.00001  -0.00001  -0.00002   2.04096
   R11        2.53328   0.00004  -0.00007   0.00000  -0.00007   2.53321
   R12        2.04593   0.00000  -0.00000   0.00002   0.00002   2.04595
    A3        2.13893   0.00028  -0.00003  -0.00012  -0.00015   2.13878
    A4        2.07302   0.00027  -0.00039   0.00013  -0.00027   2.07276
    A5        2.11570  -0.00001  -0.00010  -0.00003  -0.00013   2.11557
    A6        2.08121  -0.00032   0.00010   0.00002   0.00012   2.08133
    A7        1.96178  -0.00014   0.00023  -0.00000   0.00023   1.96201
    A8        1.95860  -0.00001  -0.00026   0.00016  -0.00010   1.95850
    A9        1.93753   0.00002   0.00012  -0.00010   0.00003   1.93756
   A10        2.12041   0.00000   0.00004   0.00001   0.00005   2.12046
   A11        2.06345  -0.00018  -0.00000   0.00000   0.00000   2.06345
   A12        2.16961  -0.00000   0.00002  -0.00009  -0.00007   2.16954
    D4       -3.09966  -0.00010  -0.00012  -0.00090  -0.00103  -3.10069
    D5        0.01928  -0.00026  -0.00044  -0.00064  -0.00107   0.01820
    D6        3.06373  -0.00018   0.00066   0.00046   0.00112   3.06485
    D7       -2.62758  -0.00023  -0.00186   0.00035  -0.00151  -2.62908
    D8        2.06851   0.00000  -0.00032   0.00055   0.00023   2.06874
    D9       -2.10286   0.00000  -0.00064   0.00064  -0.00000  -2.10286
   D10        3.04226  -0.00011   0.00030  -0.00091  -0.00061   3.04165
   D11        2.99960  -0.00004   0.00060   0.00051   0.00111   3.00071
   D12       -2.94876  -0.00002  -0.00111  -0.00018  -0.00129  -2.95005
         Item               Value     Threshold  Converged?
 Maximum Force            0.000325     0.000450     YES
 RMS     Force            0.000128     0.000300     YES
 Maximum Displacement     0.001507     0.001800     YES
 RMS     Displacement     0.000556     0.001200     YES
 Predicted change in Energy=-1.640689D-07
 Optimization completed.
    -- Stationary point found.
                       ----------------------------
                       !   Optimized Parameters   !
                       ! (Angstroms and Degrees)  !
 ----------------------                            ----------------------
 !      Name          Value   Derivative information (Atomic Units)     !
 ------------------------------------------------------------------------
 !       R2          1.082    -DE/DX =    0.0                           !
 !       R3          1.3355   -DE/DX =   -0.0001                        !
 !       R4          1.5005   -DE/DX =    0.0                           !
 !       R5          1.0826   -DE/DX =    0.0                           !
 !       R6          1.4548   -DE/DX =    0.0                           !
 !       R7          1.4458   -DE/DX =    0.0                           !
 !       R8          1.0888   -DE/DX =    0.0                           !
 !       R9          1.1029   -DE/DX =    0.0                           !
 !       R10         1.08     -DE/DX =    0.0                           !
 !       R11         1.3406   -DE/DX =    0.0                           !
 !       R12         1.0827   -DE/DX =    0.0                           !
 !       A3        122.5515   -DE/DX =    0.0003                        !
 !       A4        118.7755   -DE/DX =    0.0003                        !
 !       A5        121.2205   -DE/DX =    0.0                           !
 !       A6        119.2446   -DE/DX =   -0.0003                        !
 !       A7        112.4019   -DE/DX =   -0.0001                        !
 !       A8        112.2196   -DE/DX =    0.0                           !
 !       A9        111.0122   -DE/DX =    0.0                           !
 !       A10       121.4907   -DE/DX =    0.0                           !
 !       A11       118.227    -DE/DX =   -0.0002                        !
 !       A12       124.3093   -DE/DX =    0.0                           !
 !       D4       -177.5977   -DE/DX =   -0.0001                        !
 !       D5          1.1044   -DE/DX =   -0.0003                        !
 !       D6        175.539    -DE/DX =   -0.0002                        !
 !       D7       -150.549    -DE/DX =   -0.0002                        !
 !       D8        118.5171   -DE/DX =    0.0                           !
 !       D9       -120.4851   -DE/DX =    0.0                           !
 !       D10       174.3085   -DE/DX =   -0.0001                        !
 !       D11       171.8645   -DE/DX =    0.0                           !
 !       D12      -168.9517   -DE/DX =    0.0                           !
 ------------------------------------------------------------------------
 GradGradGradGradGradGradGradGradGradGradGradGradGradGradGradGradGradGrad

 ---------------------------------------------------------------------------------------------------
                            Z-MATRIX (ANGSTROMS AND DEGREES)
   CD    Cent   Atom    N1       Length/X        N2       Alpha/Y        N3        Beta/Z          J
 ---------------------------------------------------------------------------------------------------
      1      1  H 
      2      2  C        1   1.081971(     1)
      3      3  C        2   1.335532(     2)      1  122.552(    12)
      4      4  C        2   1.500527(     3)      1  118.775(    13)      3 -177.598(    22)      0
      5      5  H        3   1.082564(     4)      2  121.220(    14)      1    1.104(    23)      0
      6      6  C        3   1.454777(     5)      2  119.245(    15)      5  175.539(    24)      0
      7      7  O        4   1.445768(     6)      2  112.402(    16)      1 -150.549(    25)      0
      8      8  H        4   1.088828(     7)      2  112.220(    17)      7  118.517(    26)      0
      9      9  H        4   1.102931(     8)      2  111.012(    18)      7 -120.485(    27)      0
     10     10  H        6   1.080039(     9)      3  121.491(    19)      2  174.309(    28)      0
     11     11  C        6   1.340553(    10)      3  118.227(    20)     10  171.865(    29)      0
     12     12  H       11   1.082660(    11)      6  124.309(    21)      3 -168.952(    30)      0
 ---------------------------------------------------------------------------------------------------
                         Z-Matrix orientation:                         
 ---------------------------------------------------------------------
 Center     Atomic      Atomic             Coordinates (Angstroms)
 Number     Number       Type             X           Y           Z
 ---------------------------------------------------------------------
      1          1           0        0.000000    0.000000    0.000000
      2          6           0        0.000000    0.000000    1.081971
      3          6           0        1.125730    0.000000    1.800564
      4          6           0       -1.314075   -0.055129    1.804293
      5          1           0        2.096744    0.017844    1.322277
      6          6           0        1.042983    0.074321    3.251084
      7          8           0       -1.264342    0.604744    3.089726
      8          1           0       -2.108052    0.446653    1.253509
      9          1           0       -1.626198   -1.098552    1.978378
     10          1           0        1.922513   -0.014249    3.871622
     11          6           0       -0.128669    0.421315    3.802363
     12          1           0       -0.260789    0.673166    4.847001
 ---------------------------------------------------------------------
                    Distance matrix (angstroms):
                    1          2          3          4          5
     1  H    0.000000
     2  C    1.081971   0.000000
     3  C    2.123511   1.335532   0.000000
     4  C    2.232780   1.500527   2.440431   0.000000
     5  H    2.478925   2.110545   1.082564   3.445483   0.000000
     6  C    3.415096   2.407984   1.454777   2.768698   2.198613
     7  O    3.392740   2.448542   2.782103   1.445768   3.842555
     8  H    2.492924   2.161668   3.310003   1.088828   4.227164
     9  H    2.786631   2.157517   2.968424   1.102931   3.941713
    10  H    4.322698   3.387981   2.219087   3.840706   2.555494
    11  C    3.827796   2.755829   2.399629   2.371596   3.356498
    12  H    4.900467   3.833616   3.414142   3.301197   4.290814
                    6          7          8          9         10
     6  C    0.000000
     7  O    2.373001   0.000000
     8  H    3.749394   2.026951   0.000000
     9  H    3.181185   2.065732   1.773493   0.000000
    10  H    1.080039   3.339245   4.828291   4.165745   0.000000
    11  C    1.340553   1.353236   3.227267   2.807045   2.098061
    12  H    2.146016   2.024800   4.046834   3.637626   2.488113
                   11         12
    11  C    0.000000
    12  H    1.082660   0.000000
 Symmetry turned off by external request.
 Stoichiometry    C5H6O
 Framework group  C1[X(C5H6O)]
 Deg. of freedom    30
 Full point group                 C1      NOp   1
 Rotational constants (GHZ):           5.5762605           5.3689573           2.8454741

 **********************************************************************

            Population analysis using the SCF density.

 **********************************************************************

 Alpha  occ. eigenvalues --  -19.17856 -10.24932 -10.24905 -10.19147 -10.18625
 Alpha  occ. eigenvalues --  -10.18439  -1.08744  -0.82863  -0.79170  -0.68167
 Alpha  occ. eigenvalues --   -0.64279  -0.54995  -0.52563  -0.50218  -0.48027
 Alpha  occ. eigenvalues --   -0.45321  -0.42491  -0.39399  -0.37774  -0.34643
 Alpha  occ. eigenvalues --   -0.31824  -0.22614
 Alpha virt. eigenvalues --   -0.04873   0.02880   0.03753   0.05928   0.06223
 Alpha virt. eigenvalues --    0.07795   0.08087   0.09471   0.11681   0.14531
 Alpha virt. eigenvalues --    0.15936   0.17815   0.19503   0.20619   0.21317
 Alpha virt. eigenvalues --    0.22968   0.24085   0.25564   0.26758   0.28548
 Alpha virt. eigenvalues --    0.29326   0.31720   0.33192   0.34634   0.35361
 Alpha virt. eigenvalues --    0.36355   0.37456   0.39207   0.40132   0.41806
 Alpha virt. eigenvalues --    0.42197   0.43619   0.44619   0.47930   0.49715
 Alpha virt. eigenvalues --    0.51427   0.54050   0.56471   0.58369   0.61350
 Alpha virt. eigenvalues --    0.63886   0.64846   0.67194   0.71007   0.71962
 Alpha virt. eigenvalues --    0.76156   0.79435   0.83095   0.84088   0.87077
 Alpha virt. eigenvalues --    0.89422   0.91163   0.93972   0.95649   0.97930
 Alpha virt. eigenvalues --    1.04070   1.05712   1.07520   1.09533   1.10537
 Alpha virt. eigenvalues --    1.13892   1.16575   1.18181   1.22214   1.25032
 Alpha virt. eigenvalues --    1.28602   1.31783   1.34760   1.38770   1.41710
 Alpha virt. eigenvalues --    1.43205   1.43821   1.47159   1.49659   1.51066
 Alpha virt. eigenvalues --    1.54548   1.58176   1.61173   1.63651   1.66155
 Alpha virt. eigenvalues --    1.68475   1.70813   1.73267   1.75909   1.78264
 Alpha virt. eigenvalues --    1.83781   1.85739   1.89131   1.89861   1.95145
 Alpha virt. eigenvalues --    1.98584   1.99252   2.04774   2.08998   2.11089
 Alpha virt. eigenvalues --    2.13012   2.16341   2.19595   2.21292   2.25080
 Alpha virt. eigenvalues --    2.26209   2.35071   2.37107   2.43985   2.44066
 Alpha virt. eigenvalues --    2.49150   2.50395   2.51555   2.55831   2.58505
 Alpha virt. eigenvalues --    2.59879   2.60525   2.64320   2.66864   2.69248
 Alpha virt. eigenvalues --    2.69447   2.72395   2.75054   2.77633   2.79018
 Alpha virt. eigenvalues --    2.81537   2.82436   2.85929   2.87227   2.89576
 Alpha virt. eigenvalues --    2.92584   2.96657   3.00796   3.01254   3.05937
 Alpha virt. eigenvalues --    3.06759   3.09495   3.11863   3.13329   3.14546
 Alpha virt. eigenvalues --    3.17319   3.18034   3.20973   3.22321   3.24228
 Alpha virt. eigenvalues --    3.27024   3.28406   3.31119   3.34683   3.35523
 Alpha virt. eigenvalues --    3.38516   3.40399   3.43606   3.43995   3.47039
 Alpha virt. eigenvalues --    3.53157   3.56815   3.61161   3.66897   3.67620
 Alpha virt. eigenvalues --    3.76545   3.82552   3.85087   3.89485   3.91907
 Alpha virt. eigenvalues --    3.96082   4.01356   4.02872   4.10728   4.16338
 Alpha virt. eigenvalues --    4.18787   4.23675   4.26807   4.34935   4.38235
 Alpha virt. eigenvalues --    4.43789   4.50520   4.57319   4.61640   4.64783
 Alpha virt. eigenvalues --    4.66138   4.78259   4.83178   4.90130   4.93580
 Alpha virt. eigenvalues --    5.10885   5.16799   5.34596   5.43713   5.73385
 Alpha virt. eigenvalues --    5.83818   5.88796   6.21832   6.31025   6.63644
 Alpha virt. eigenvalues --    6.74864   6.85038   7.13318   7.23620  22.05150
 Alpha virt. eigenvalues --   22.30330  22.41096  22.73090  22.91161  44.03626
          Condensed to atoms (all electrons):
               1          2          3          4          5          6
     1  H    0.530305   0.401526  -0.031629  -0.037858  -0.007524   0.004987
     2  C    0.401526   5.012452   0.662156   0.361658  -0.030236  -0.064413
     3  C   -0.031629   0.662156   4.840976  -0.042615   0.416674   0.367579
     4  C   -0.037858   0.361658  -0.042615   4.681359   0.007507  -0.034835
     5  H   -0.007524  -0.030236   0.416674   0.007507   0.535138  -0.049210
     6  C    0.004987  -0.064413   0.367579  -0.034835  -0.049210   5.097524
     7  O    0.003496  -0.025657  -0.015911   0.277965  -0.000985  -0.072097
     8  H   -0.004955  -0.033043   0.001735   0.416509  -0.000295   0.004885
     9  H    0.006766  -0.083745  -0.007889   0.375721  -0.000178  -0.003916
    10  H   -0.000207   0.005718  -0.043203  -0.000378  -0.004552   0.402488
    11  C    0.002023  -0.033442  -0.051798  -0.049143   0.004122   0.585674
    12  H    0.000158  -0.001296   0.006525   0.004784  -0.000317  -0.076508
               7          8          9         10         11         12
     1  H    0.003496  -0.004955   0.006766  -0.000207   0.002023   0.000158
     2  C   -0.025657  -0.033043  -0.083745   0.005718  -0.033442  -0.001296
     3  C   -0.015911   0.001735  -0.007889  -0.043203  -0.051798   0.006525
     4  C    0.277965   0.416509   0.375721  -0.000378  -0.049143   0.004784
     5  H   -0.000985  -0.000295  -0.000178  -0.004552   0.004122  -0.000317
     6  C   -0.072097   0.004885  -0.003916   0.402488   0.585674  -0.076508
     7  O    7.909541  -0.029759  -0.070161   0.005451   0.332569  -0.041084
     8  H   -0.029759   0.585879  -0.060570   0.000140  -0.001923  -0.000611
     9  H   -0.070161  -0.060570   0.752706  -0.000334   0.035261   0.002048
    10  H    0.005451   0.000140  -0.000334   0.565481  -0.031638  -0.004524
    11  C    0.332569  -0.001923   0.035261  -0.031638   4.752875   0.432733
    12  H   -0.041084  -0.000611   0.002048  -0.004524   0.432733   0.574935
 Mulliken charges:
               1
     1  H    0.132914
     2  C   -0.171677
     3  C   -0.102599
     4  C    0.039326
     5  H    0.129857
     6  C   -0.162157
     7  O   -0.273366
     8  H    0.122007
     9  H    0.054293
    10  H    0.105558
    11  C    0.022687
    12  H    0.103158
 Sum of Mulliken charges =  -0.00000
 Mulliken charges with hydrogens summed into heavy atoms:
               1
     2  C   -0.038763
     3  C    0.027258
     4  C    0.215626
     6  C   -0.056599
     7  O   -0.273366
    11  C    0.125844
 Electronic spatial extent (au):  <R**2>=           1427.7373
 Charge=             -0.0000 electrons
 Dipole moment (field-independent basis, Debye):
    X=              0.4906    Y=             -0.0910    Z=             -1.1017  Tot=              1.2094
 Quadrupole moment (field-independent basis, Debye-Ang):
   XX=            -34.3388   YY=            -38.7641   ZZ=            -37.4444
   XY=              0.7815   XZ=              3.2116   YZ=              0.0577
 Traceless Quadrupole moment (field-independent basis, Debye-Ang):
   XX=              2.5103   YY=             -1.9150   ZZ=             -0.5953
   XY=              0.7815   XZ=              3.2116   YZ=              0.0577
 Octapole moment (field-independent basis, Debye-Ang**2):
  XXX=             14.5887  YYY=            -16.9234  ZZZ=           -255.4984  XYY=              1.0898
  XXY=             -6.5821  XXZ=            -89.2233  XZZ=             15.4478  YZZ=             -1.5742
  YYZ=            -94.7400  XYZ=              2.7698
 Hexadecapole moment (field-independent basis, Debye-Ang**3):
 XXXX=           -270.1750 YYYY=            -70.3077 ZZZZ=          -1475.0024 XXXY=              8.7719
 XXXZ=             37.2660 YYYX=              9.5153 YYYZ=            -61.7393 ZZZX=             57.2458
 ZZZY=            -27.8071 XXYY=            -61.9979 XXZZ=           -321.1107 YYZZ=           -294.0624
 XXYZ=            -26.5024 YYXZ=              1.3930 ZZXY=             10.4469
 N-N= 2.241733636265D+02 E-N=-1.075431342669D+03  KE= 2.680814758765D+02
 1\1\GINC-BHC0107\FOpt\RB3LYP\def2TZVP\C5H6O1\DHANAWAY\18-Mar-2022\1\\#
  Opt=(Z-matrix, MaxStep=10) B3LYP/Def2TZVP geom=allcheckpoint guess=re
 ad Field=read NoSymm\\int_zmat_initalOpt\\0,1\H\C,1,R2\C,2,R3,1,A3\C,2
 ,R4,1,A4,3,D4,0\H,3,R5,2,A5,1,D5,0\C,3,R6,2,A6,5,D6,0\O,4,R7,2,A7,1,D7
 ,0\H,4,R8,2,A8,7,D8,0\H,4,R9,2,A9,7,D9,0\H,6,R10,3,A10,2,D10,0\C,6,R11
 ,3,A11,10,D11,0\H,11,R12,6,A12,3,D12,0\\R2=1.0819706\R3=1.33553199\R4=
 1.50052734\R5=1.08256386\R6=1.45477749\R7=1.44576796\R8=1.0888278\R9=1
 .10293148\R10=1.08003931\R11=1.34055294\R12=1.08266041\A3=122.55153678
 \A4=118.77548833\A5=121.22049604\A6=119.24458406\A7=112.4018897\A8=112
 .2196102\A9=111.01219992\A10=121.4907173\A11=118.22698186\A12=124.3092
 806\D4=-177.59771772\D5=1.10442266\D6=175.53896599\D7=-150.54900275\D8
 =118.51705179\D9=-120.48513163\D10=174.30850768\D11=171.86453187\D12=-
 168.9516597\\Version=ES64L-G16RevA.03\HF=-269.423443\RMSD=5.022e-09\RM
 SF=3.168e-04\Dipole=0.1930342,-0.0357927,-0.4334383\Quadrupole=1.86633
 01,-1.423743,-0.4425872,0.5810545,2.3877431,0.0429198\PG=C01 [X(C5H6O1
 )]\\@


 SCIENCE AT ITS BEST PROVIDES US WITH BETTER QUESTIONS, 
 NOT ABSOLUTE ANSWERS

                                    -- NORMAN COUSINS, 1976
 Job cpu time:       0 days  0 hours 17 minutes 58.4 seconds.
 Elapsed time:       0 days  0 hours  1 minutes 53.5 seconds.
 File lengths (MBytes):  RWF=     24 Int=      0 D2E=      0 Chk=     32 Scr=      1
 Normal termination of Gaussian 16 at Fri Mar 18 11:06:21 2022.
