 Entering Gaussian System, Link 0=g16
 Input=ts_initalOptXYZ_aligned_sp.gjf
 Output=ts_initalOptXYZ_aligned_sp.out
 Initial command:
 /software/gaussian/g16-a03/l1.exe "/local_scratch/11171391/Gau-4304.inp" -scrdir="/local_scratch/11171391/"
 Entering Link 1 = /software/gaussian/g16-a03/l1.exe PID=      4305.
  
 Copyright (c) 1988,1990,1992,1993,1995,1998,2003,2009,2016,
            Gaussian, Inc.  All Rights Reserved.
  
 This is part of the Gaussian(R) 16 program.  It is based on
 the Gaussian(R) 09 system (copyright 2009, Gaussian, Inc.),
 the Gaussian(R) 03 system (copyright 2003, Gaussian, Inc.),
 the Gaussian(R) 98 system (copyright 1998, Gaussian, Inc.),
 the Gaussian(R) 94 system (copyright 1995, Gaussian, Inc.),
 the Gaussian 92(TM) system (copyright 1992, Gaussian, Inc.),
 the Gaussian 90(TM) system (copyright 1990, Gaussian, Inc.),
 the Gaussian 88(TM) system (copyright 1988, Gaussian, Inc.),
 the Gaussian 86(TM) system (copyright 1986, Carnegie Mellon
 University), and the Gaussian 82(TM) system (copyright 1983,
 Carnegie Mellon University). Gaussian is a federally registered
 trademark of Gaussian, Inc.
  
 This software contains proprietary and confidential information,
 including trade secrets, belonging to Gaussian, Inc.
  
 This software is provided under written license and may be
 used, copied, transmitted, or stored only in accord with that
 written license.
  
 The following legend is applicable only to US Government
 contracts under FAR:
  
                    RESTRICTED RIGHTS LEGEND
  
 Use, reproduction and disclosure by the US Government is
 subject to restrictions as set forth in subparagraphs (a)
 and (c) of the Commercial Computer Software - Restricted
 Rights clause in FAR 52.227-19.
  
 Gaussian, Inc.
 340 Quinnipiac St., Bldg. 40, Wallingford CT 06492
  
  
 ---------------------------------------------------------------
 Warning -- This program may not be used in any manner that
 competes with the business of Gaussian, Inc. or will provide
 assistance to any competitor of Gaussian, Inc.  The licensee
 of this program is prohibited from giving any competitor of
 Gaussian, Inc. access to this program.  By using this program,
 the user acknowledges that Gaussian, Inc. is engaged in the
 business of creating and licensing software in the field of
 computational chemistry and represents and warrants to the
 licensee that it is not a competitor of Gaussian, Inc. and that
 it will not use this program in any manner prohibited above.
 ---------------------------------------------------------------
  

 Cite this work as:
 Gaussian 16, Revision A.03,
 M. J. Frisch, G. W. Trucks, H. B. Schlegel, G. E. Scuseria, 
 M. A. Robb, J. R. Cheeseman, G. Scalmani, V. Barone, 
 G. A. Petersson, H. Nakatsuji, X. Li, M. Caricato, A. V. Marenich, 
 J. Bloino, B. G. Janesko, R. Gomperts, B. Mennucci, H. P. Hratchian, 
 J. V. Ortiz, A. F. Izmaylov, J. L. Sonnenberg, D. Williams-Young, 
 F. Ding, F. Lipparini, F. Egidi, J. Goings, B. Peng, A. Petrone, 
 T. Henderson, D. Ranasinghe, V. G. Zakrzewski, J. Gao, N. Rega, 
 G. Zheng, W. Liang, M. Hada, M. Ehara, K. Toyota, R. Fukuda, 
 J. Hasegawa, M. Ishida, T. Nakajima, Y. Honda, O. Kitao, H. Nakai, 
 T. Vreven, K. Throssell, J. A. Montgomery, Jr., J. E. Peralta, 
 F. Ogliaro, M. J. Bearpark, J. J. Heyd, E. N. Brothers, K. N. Kudin, 
 V. N. Staroverov, T. A. Keith, R. Kobayashi, J. Normand, 
 K. Raghavachari, A. P. Rendell, J. C. Burant, S. S. Iyengar, 
 J. Tomasi, M. Cossi, J. M. Millam, M. Klene, C. Adamo, R. Cammi, 
 J. W. Ochterski, R. L. Martin, K. Morokuma, O. Farkas, 
 J. B. Foresman, and D. J. Fox, Gaussian, Inc., Wallingford CT, 2016.
 
 ******************************************
 Gaussian 16:  ES64L-G16RevA.03 25-Dec-2016
                10-Jun-2022 
 ******************************************
 %nprocshared=12
 Will use up to   12 processors via shared memory.
 %chk=checkpoint.chk
 %mem=12GB
 --------------------------
 # sp B3LYP/Def2TZVP NoSymm
 --------------------------
 1/38=1,172=1/1;
 2/12=2,15=1,17=6,18=5,40=1/2;
 3/5=44,7=101,11=2,25=1,30=1,74=-5/1,2,3;
 4//1;
 5/5=2,38=5/2;
 6/7=2,8=2,9=2,10=2,28=1/1;
 99/5=1,9=1/99;
 ---------------------------------
 ts_initalOptXYZ_aligned_AlignedSp
 ---------------------------------
 Symbolic Z-matrix:
 Charge =  0 Multiplicity = 1
 6                     1.78018   0.47731   1.42403 
 6                     0.7095   -0.42362   1.44701 
 6                     2.08077  -0.34531  -0.85085 
 6                     2.47069   0.57698   0.2468 
 6                    -0.3325    0.53159  -0.47674 
 6                     0.69006   0.09055  -1.46958 
 1                     0.30447  -0.74226  -2.05426 
 1                     0.8907    0.93992  -2.12428 
 1                     2.81553  -0.33389  -1.65541 
 1                    -0.05562  -0.3112    2.20676 
 6                     1.93572  -1.767    -0.27507 
 1                     1.67931  -2.46249  -1.07543 
 1                     2.89248  -2.08793   0.14129 
 6                     0.84563  -1.77564   0.80827 
 1                    -0.11168  -2.11344   0.40875 
 1                     1.09788  -2.48197   1.60788 
 1                     3.24769   1.31539   0.10782 
 1                     1.88497   1.23356   2.19037 
 7                    -0.25938   1.80323   0.01486 
 8                     0.81467   2.37849  -0.27235 
 6                    -1.63324  -0.16391  -0.39237 
 8                    -1.85914  -1.22211  -0.94579 
 8                    -2.54046   0.47048   0.36908 
 6                    -3.82924  -0.15228   0.4533 
 1                    -4.42444   0.50136   1.0852 
 1                    -4.27944  -0.24114  -0.53511 
 1                    -3.75205  -1.14536   0.896 
 
                          Input orientation:                          
 ---------------------------------------------------------------------
 Center     Atomic      Atomic             Coordinates (Angstroms)
 Number     Number       Type             X           Y           Z
 ---------------------------------------------------------------------
      1          6           0        1.780179    0.477309    1.424031
      2          6           0        0.709499   -0.423621    1.447011
      3          6           0        2.080769   -0.345311   -0.850849
      4          6           0        2.470689    0.576979    0.246801
      5          6           0       -0.332501    0.531590   -0.476739
      6          6           0        0.690059    0.090549   -1.469579
      7          1           0        0.304469   -0.742261   -2.054259
      8          1           0        0.890699    0.939919   -2.124279
      9          1           0        2.815529   -0.333891   -1.655409
     10          1           0       -0.055621   -0.311201    2.206761
     11          6           0        1.935718   -1.767001   -0.275069
     12          1           0        1.679308   -2.462491   -1.075429
     13          1           0        2.892478   -2.087931    0.141291
     14          6           0        0.845628   -1.775641    0.808271
     15          1           0       -0.111682   -2.113441    0.408751
     16          1           0        1.097878   -2.481971    1.607881
     17          1           0        3.247689    1.315389    0.107821
     18          1           0        1.884969    1.233559    2.190371
     19          7           0       -0.259381    1.803229    0.014861
     20          8           0        0.814669    2.378489   -0.272349
     21          6           0       -1.633241   -0.163910   -0.392369
     22          8           0       -1.859141   -1.222110   -0.945789
     23          8           0       -2.540461    0.470480    0.369081
     24          6           0       -3.829241   -0.152280    0.453301
     25          1           0       -4.424441    0.501361    1.085201
     26          1           0       -4.279441   -0.241140   -0.535109
     27          1           0       -3.752051   -1.145360    0.896001
 ---------------------------------------------------------------------
                    Distance matrix (angstroms):
                    1          2          3          4          5
     1  C    0.000000
     2  C    1.399485   0.000000
     3  C    2.437650   2.677065   0.000000
     4  C    1.368433   2.354463   1.485763   0.000000
     5  C    2.842409   2.387259   2.594761   2.895418   0.000000
     6  C    3.116236   2.961629   1.583311   2.520559   1.491937
     7  H    3.970337   3.538993   2.181973   3.424585   2.125323
     8  H    3.687233   3.827034   2.165573   2.872301   2.092209
     9  H    3.348574   3.750790   1.089642   2.137054   3.471082
    10  H    2.145828   1.084097   3.730188   3.318516   2.826328
    11  C    2.819230   2.504764   1.540703   2.460241   3.235585
    12  H    3.860039   3.385295   2.166578   3.407778   3.656546
    13  H    3.076213   3.039775   2.163316   2.700145   4.200517
    14  C    2.515617   1.501492   2.514776   2.913914   2.891808
    15  H    3.364806   2.146582   3.085404   3.732724   2.798043
    16  H    3.042478   2.100838   3.402461   3.618608   3.933596
    17  H    2.142049   3.355591   2.244699   1.080876   3.711309
    18  H    1.081745   2.163460   3.432228   2.133455   3.538843
    19  N    2.811339   2.819334   3.292716   3.001794   1.365314
    20  O    2.724775   3.289237   3.058882   2.501471   2.183761
    21  C    3.919427   2.989849   3.746596   4.218969   1.477418
    22  O    4.663552   3.600137   4.037410   4.838018   2.371940
    23  O    4.447572   3.538868   4.848661   5.013773   2.365213
    24  C    5.727503   4.654164   6.055269   6.345359   3.682369
    25  H    6.213911   5.229134   6.839803   6.946326   4.380016
    26  H    6.408853   5.371371   6.368894   6.844338   4.022295
    27  H    5.789425   4.553015   6.141120   6.489253   4.048444
                    6          7          8          9         10
     6  C    0.000000
     7  H    1.088165   0.000000
     8  H    1.091017   1.782778   0.000000
     9  H    2.175386   2.575125   2.355292   0.000000
    10  H    3.772654   4.297880   4.606379   4.812523   0.000000
    11  C    2.535550   2.622324   3.440793   2.175594   3.499181
    12  H    2.766221   2.409872   3.646695   2.481595   4.290781
    13  H    3.491608   3.650898   4.278762   2.512112   4.014253
    14  C    2.948808   3.091085   3.997017   3.468266   2.216441
    15  H    3.004744   2.849515   4.091945   3.999515   2.546380
    16  H    4.031741   4.131266   5.067669   4.267743   2.530111
    17  H    3.244980   4.191785   3.267820   2.452726   4.238302
    18  H    4.016157   4.941531   4.437454   4.255921   2.480412
    19  N    2.457289   3.328469   2.577578   4.100263   3.052336
    20  O    2.585258   3.629682   2.346254   3.643254   3.760030
    21  C    2.573491   2.617458   3.253955   4.627712   3.044020
    22  O    2.914764   2.477936   3.691182   4.810929   3.744464
    23  O    3.736479   3.928988   4.267327   5.782059   3.187871
    24  C    4.917368   4.870677   5.487682   6.973708   4.164143
    25  H    5.731821   5.810800   6.224452   7.786254   4.583093
    26  H    5.067463   4.855015   5.536308   7.183472   5.036210
    27  H    5.182256   5.032085   5.918244   7.092340   4.009677
                   11         12         13         14         15
    11  C    0.000000
    12  H    1.090884   0.000000
    13  H    1.091669   1.758546   0.000000
    14  C    1.536879   2.171431   2.175312   0.000000
    15  H    2.186202   2.352078   3.016150   1.090948   0.000000
    16  H    2.181435   2.745650   2.350903   1.096316   1.742631
    17  H    3.371795   4.258201   3.421971   3.976807   4.809658
    18  H    3.883855   4.936449   4.030645   3.470694   4.285230
    19  N    4.201079   4.810781   5.009124   3.828688   3.939196
    20  O    4.294397   4.982733   4.943409   4.292493   4.636751
    21  C    3.914221   4.089380   4.946593   3.191239   2.599540
    22  O    3.892008   3.751796   4.950684   3.270917   2.383876
    23  O    5.045536   5.338106   6.009508   4.086997   3.546433
    24  C    6.030970   6.165890   7.001828   4.961422   4.203377
    25  H    6.888209   7.120990   7.818740   5.747613   5.088680
    26  H    6.405004   6.382244   7.436705   5.515949   4.665469
    27  H    5.840253   5.926300   6.753354   4.641509   3.798273
                   16         17         18         19         20
    16  H    0.000000
    17  H    4.614305   0.000000
    18  H    3.842391   2.490124   0.000000
    19  N    4.768942   3.542057   3.107347   0.000000
    20  O    5.219152   2.682219   2.919143   1.251798   0.000000
    21  C    4.102855   5.124646   4.582714   2.433714   3.531354
    22  O    4.105173   5.799026   5.466642   3.554540   4.535096
    23  O    4.846556   5.855323   4.846010   2.665524   3.912650
    24  C    5.571088   7.235769   6.131081   4.093916   5.338282
    25  H    6.298371   7.776856   6.447183   4.493130   5.728423
    26  H    6.207197   7.713224   6.899488   4.543434   5.734235
    27  H    5.080858   7.461426   6.253850   4.655033   5.885362
                   21         22         23         24         25
    21  C    0.000000
    22  O    1.215357   0.000000
    23  O    1.343616   2.248987   0.000000
    24  C    2.353234   2.642590   1.433833   0.000000
    25  H    3.227475   3.698113   2.015729   1.086650   0.000000
    26  H    2.651172   2.643636   2.085189   1.089739   1.788222
    27  H    2.666927   2.642194   2.087231   1.090023   1.788741
                   26         27
    26  H    0.000000
    27  H    1.773085   0.000000
 Symmetry turned off by external request.
 Stoichiometry    C10H13NO3
 Framework group  C1[X(C10H13NO3)]
 Deg. of freedom    75
 Full point group                 C1      NOp   1
 Rotational constants (GHZ):           1.1855524           0.6004362           0.5174902
 Standard basis: def2TZVP (5D, 7F)
   512 basis functions,   818 primitive gaussians,   582 cartesian basis functions
    52 alpha electrons       52 beta electrons
       nuclear repulsion energy       961.4201778613 Hartrees.
 NAtoms=   27 NActive=   27 NUniq=   27 SFac= 1.00D+00 NAtFMM=   60 NAOKFM=F Big=F
 Integral buffers will be    131072 words long.
 Raffenetti 2 integral format.
 Two-electron integral symmetry is turned off.
 One-electron integrals computed using PRISM.
   1 Symmetry operations used in ECPInt.
 ECPInt:  NShTT=   21321 NPrTT=   64608 LenC2=   20329 LenP2D=   46796.
 LDataN:  DoStor=T MaxTD1= 6 Len=  172
 NBasis=   512 RedAO= T EigKep=  1.89D-05  NBF=   512
 NBsUse=   512 1.00D-06 EigRej= -1.00D+00 NBFU=   512
 ExpMin= 9.52D-02 ExpMax= 2.70D+04 ExpMxC= 9.22D+02 IAcc=3 IRadAn=         5 AccDes= 0.00D+00
 Harris functional with IExCor=  402 and IRadAn=       5 diagonalized for initial guess.
 HarFok:  IExCor=  402 AccDes= 0.00D+00 IRadAn=         5 IDoV= 1 UseB2=F ITyADJ=14
 ICtDFT=  3500011 ScaDFX=  1.000000  1.000000  1.000000  1.000000
 FoFCou: FMM=F IPFlag=           0 FMFlag=      100000 FMFlg1=           0
         NFxFlg=           0 DoJE=T BraDBF=F KetDBF=T FulRan=T
         wScrn=  0.000000 ICntrl=       500 IOpCl=  0 I1Cent=   200000004 NGrid=           0
         NMat0=    1 NMatS0=      1 NMatT0=    0 NMatD0=    1 NMtDS0=    0 NMtDT0=    0
 Symmetry not used in FoFCou.
 Requested convergence on RMS density matrix=1.00D-08 within 128 cycles.
 Requested convergence on MAX density matrix=1.00D-06.
 Requested convergence on             energy=1.00D-06.
 No special actions if energy rises.
 Integral accuracy reduced to 1.0D-05 until final iterations.
 Initial convergence to 1.0D-05 achieved.  Increase integral accuracy.
 SCF Done:  E(RB3LYP) =  -669.437795004     A.U. after   17 cycles
            NFock= 17  Conv=0.38D-08     -V/T= 2.0048

 **********************************************************************

            Population analysis using the SCF density.

 **********************************************************************

 Alpha  occ. eigenvalues --  -19.16941 -19.13958 -19.11160 -14.38077 -10.30056
 Alpha  occ. eigenvalues --  -10.23233 -10.22463 -10.21685 -10.21646 -10.20286
 Alpha  occ. eigenvalues --  -10.19380 -10.19006 -10.18893 -10.18494  -1.10930
 Alpha  occ. eigenvalues --   -1.09974  -1.01762  -0.88531  -0.82296  -0.78481
 Alpha  occ. eigenvalues --   -0.77454  -0.72923  -0.70046  -0.63604  -0.62952
 Alpha  occ. eigenvalues --   -0.60878  -0.55272  -0.54185  -0.52130  -0.50460
 Alpha  occ. eigenvalues --   -0.49755  -0.48090  -0.47952  -0.45184  -0.44784
 Alpha  occ. eigenvalues --   -0.43588  -0.43473  -0.43169  -0.41932  -0.40894
 Alpha  occ. eigenvalues --   -0.39520  -0.39114  -0.37135  -0.36125  -0.35193
 Alpha  occ. eigenvalues --   -0.35021  -0.33848  -0.30910  -0.29436  -0.28485
 Alpha  occ. eigenvalues --   -0.25094  -0.20762
 Alpha virt. eigenvalues --   -0.10027  -0.04575   0.00814   0.02416   0.04042
 Alpha virt. eigenvalues --    0.05572   0.05663   0.06652   0.06817   0.07777
 Alpha virt. eigenvalues --    0.08419   0.08988   0.09703   0.10752   0.11387
 Alpha virt. eigenvalues --    0.12015   0.12351   0.13909   0.15108   0.16196
 Alpha virt. eigenvalues --    0.16579   0.18432   0.18679   0.19211   0.19689
 Alpha virt. eigenvalues --    0.20525   0.20988   0.22236   0.22517   0.23317
 Alpha virt. eigenvalues --    0.24007   0.24639   0.25364   0.26321   0.26962
 Alpha virt. eigenvalues --    0.27399   0.29570   0.30393   0.31312   0.32078
 Alpha virt. eigenvalues --    0.32480   0.33477   0.34847   0.35197   0.35601
 Alpha virt. eigenvalues --    0.35915   0.36640   0.36771   0.37490   0.38726
 Alpha virt. eigenvalues --    0.39062   0.39315   0.39681   0.40882   0.41036
 Alpha virt. eigenvalues --    0.42047   0.42442   0.43006   0.43406   0.44059
 Alpha virt. eigenvalues --    0.44610   0.44724   0.45446   0.46025   0.46494
 Alpha virt. eigenvalues --    0.47241   0.48054   0.48458   0.48760   0.49229
 Alpha virt. eigenvalues --    0.50868   0.51498   0.52334   0.52769   0.54344
 Alpha virt. eigenvalues --    0.54942   0.55321   0.56354   0.57497   0.58235
 Alpha virt. eigenvalues --    0.60285   0.61065   0.62053   0.63208   0.64460
 Alpha virt. eigenvalues --    0.65091   0.66417   0.68256   0.69417   0.70301
 Alpha virt. eigenvalues --    0.71417   0.72841   0.74418   0.74654   0.76201
 Alpha virt. eigenvalues --    0.77022   0.78347   0.80093   0.81339   0.83661
 Alpha virt. eigenvalues --    0.84119   0.85451   0.85902   0.86530   0.87190
 Alpha virt. eigenvalues --    0.88080   0.91023   0.91776   0.92367   0.93725
 Alpha virt. eigenvalues --    0.94120   0.94892   0.95727   0.97674   0.99407
 Alpha virt. eigenvalues --    1.01206   1.01780   1.03599   1.04442   1.05887
 Alpha virt. eigenvalues --    1.07047   1.07650   1.09150   1.09836   1.10423
 Alpha virt. eigenvalues --    1.11043   1.12024   1.14399   1.16093   1.17034
 Alpha virt. eigenvalues --    1.17457   1.18703   1.19506   1.21448   1.23057
 Alpha virt. eigenvalues --    1.24191   1.25120   1.25360   1.28427   1.29196
 Alpha virt. eigenvalues --    1.30148   1.30853   1.31838   1.33000   1.34509
 Alpha virt. eigenvalues --    1.35421   1.37559   1.39701   1.41205   1.44194
 Alpha virt. eigenvalues --    1.45213   1.46414   1.47314   1.47755   1.49521
 Alpha virt. eigenvalues --    1.50049   1.50516   1.52050   1.52990   1.53177
 Alpha virt. eigenvalues --    1.54304   1.55123   1.57776   1.58411   1.59242
 Alpha virt. eigenvalues --    1.59984   1.61240   1.62556   1.63326   1.65796
 Alpha virt. eigenvalues --    1.66961   1.68171   1.69200   1.70135   1.72167
 Alpha virt. eigenvalues --    1.74344   1.74983   1.75598   1.77857   1.79375
 Alpha virt. eigenvalues --    1.80530   1.81392   1.83471   1.84366   1.85469
 Alpha virt. eigenvalues --    1.86870   1.87575   1.88084   1.90982   1.92748
 Alpha virt. eigenvalues --    1.93267   1.94866   1.95576   1.97601   1.99169
 Alpha virt. eigenvalues --    2.00039   2.01051   2.02112   2.03672   2.04752
 Alpha virt. eigenvalues --    2.05890   2.06597   2.07787   2.08658   2.11190
 Alpha virt. eigenvalues --    2.11955   2.13639   2.14723   2.15466   2.17477
 Alpha virt. eigenvalues --    2.20103   2.20644   2.21004   2.23102   2.23824
 Alpha virt. eigenvalues --    2.24489   2.25824   2.27987   2.28410   2.30388
 Alpha virt. eigenvalues --    2.30972   2.32022   2.33299   2.34213   2.37406
 Alpha virt. eigenvalues --    2.39820   2.41258   2.42281   2.42969   2.43416
 Alpha virt. eigenvalues --    2.45435   2.47394   2.48450   2.49464   2.51118
 Alpha virt. eigenvalues --    2.51195   2.52913   2.53667   2.55041   2.55829
 Alpha virt. eigenvalues --    2.56471   2.57160   2.58632   2.60884   2.61283
 Alpha virt. eigenvalues --    2.61845   2.62810   2.63582   2.65358   2.66443
 Alpha virt. eigenvalues --    2.68121   2.69374   2.70550   2.70826   2.73637
 Alpha virt. eigenvalues --    2.74439   2.75745   2.77019   2.77442   2.78948
 Alpha virt. eigenvalues --    2.79786   2.80800   2.81663   2.82242   2.83794
 Alpha virt. eigenvalues --    2.84711   2.87536   2.87691   2.90015   2.90552
 Alpha virt. eigenvalues --    2.92297   2.92766   2.94647   2.94945   2.96813
 Alpha virt. eigenvalues --    2.98566   3.00399   3.00760   3.02991   3.04720
 Alpha virt. eigenvalues --    3.05773   3.05874   3.06700   3.07811   3.09256
 Alpha virt. eigenvalues --    3.10246   3.10900   3.11368   3.13035   3.13814
 Alpha virt. eigenvalues --    3.15417   3.16086   3.18799   3.19871   3.20311
 Alpha virt. eigenvalues --    3.21905   3.23082   3.24293   3.25834   3.26774
 Alpha virt. eigenvalues --    3.27414   3.28291   3.30170   3.30593   3.31147
 Alpha virt. eigenvalues --    3.31789   3.33391   3.34422   3.34539   3.36904
 Alpha virt. eigenvalues --    3.37465   3.39384   3.39962   3.41151   3.42382
 Alpha virt. eigenvalues --    3.42823   3.43366   3.45103   3.45777   3.46707
 Alpha virt. eigenvalues --    3.47908   3.49375   3.51197   3.51543   3.52169
 Alpha virt. eigenvalues --    3.53487   3.55060   3.56572   3.56747   3.58081
 Alpha virt. eigenvalues --    3.58801   3.59422   3.60966   3.63711   3.65432
 Alpha virt. eigenvalues --    3.67108   3.68720   3.70981   3.73201   3.74947
 Alpha virt. eigenvalues --    3.77059   3.78877   3.79526   3.82145   3.86401
 Alpha virt. eigenvalues --    3.88158   3.88868   3.90794   3.92657   3.94278
 Alpha virt. eigenvalues --    3.95421   3.96390   3.98629   3.99935   4.00455
 Alpha virt. eigenvalues --    4.03471   4.04061   4.05345   4.07019   4.08990
 Alpha virt. eigenvalues --    4.12487   4.13366   4.16149   4.16724   4.17896
 Alpha virt. eigenvalues --    4.18965   4.22111   4.23393   4.24424   4.27619
 Alpha virt. eigenvalues --    4.27969   4.29970   4.34870   4.35470   4.37927
 Alpha virt. eigenvalues --    4.39435   4.41214   4.42303   4.42786   4.44884
 Alpha virt. eigenvalues --    4.47846   4.51076   4.52291   4.53504   4.59389
 Alpha virt. eigenvalues --    4.60191   4.63740   4.69967   4.72090   4.75421
 Alpha virt. eigenvalues --    4.76749   4.81613   4.82665   4.84413   4.87082
 Alpha virt. eigenvalues --    4.88014   4.93265   4.94698   4.99756   5.02182
 Alpha virt. eigenvalues --    5.05141   5.09522   5.11430   5.12783   5.13531
 Alpha virt. eigenvalues --    5.16065   5.17540   5.18394   5.21477   5.23205
 Alpha virt. eigenvalues --    5.25299   5.29175   5.32353   5.42601   5.48389
 Alpha virt. eigenvalues --    5.49658   5.56276   5.57588   5.64908   5.68429
 Alpha virt. eigenvalues --    5.74723   5.87718   5.97387   6.09598   6.17276
 Alpha virt. eigenvalues --    6.25260   6.26113   6.37957   6.38291   6.43160
 Alpha virt. eigenvalues --    6.46090   6.51420   6.59269   6.65437   6.70861
 Alpha virt. eigenvalues --    6.78594   6.88530   6.90307   6.91161   6.98408
 Alpha virt. eigenvalues --    7.04510   7.11843   7.14940   7.30898   7.43807
 Alpha virt. eigenvalues --    7.64754  22.31900  22.38111  22.49796  22.56912
 Alpha virt. eigenvalues --   22.59355  22.63286  22.69210  22.83599  22.98020
 Alpha virt. eigenvalues --   23.36376  32.30459  43.95308  44.01964  44.18428
          Condensed to atoms (all electrons):
               1          2          3          4          5          6
     1  C    5.057578   0.361233   0.053569   0.420693   0.001288  -0.078130
     2  C    0.361233   5.157798  -0.063875  -0.017113   0.140775  -0.002615
     3  C    0.053569  -0.063875   5.084124   0.193145   0.081696   0.112120
     4  C    0.420693  -0.017113   0.193145   5.146429  -0.083042   0.056285
     5  C    0.001288   0.140775   0.081696  -0.083042   5.579476   0.139546
     6  C   -0.078130  -0.002615   0.112120   0.056285   0.139546   5.260663
     7  H    0.000904  -0.000808  -0.023102   0.003671  -0.017702   0.377410
     8  H   -0.008631   0.012045  -0.048643   0.002973  -0.064881   0.413725
     9  H    0.015228  -0.005568   0.446899  -0.059861   0.011072  -0.046295
    10  H   -0.035421   0.398694  -0.004687   0.010016  -0.006145   0.005395
    11  C   -0.036939  -0.025517   0.250391   0.040890  -0.027803   0.021367
    12  H   -0.001678   0.009993  -0.039610   0.009706  -0.001004  -0.002703
    13  H    0.007815  -0.003258  -0.024643  -0.016265   0.000139   0.005937
    14  C   -0.009378   0.251642  -0.076368  -0.006765  -0.043715   0.028312
    15  H    0.011658  -0.042307   0.001164  -0.003291  -0.004026  -0.002774
    16  H   -0.009619  -0.033723   0.007860  -0.000271   0.004209  -0.000281
    17  H   -0.035456   0.010038  -0.030969   0.399776  -0.000666   0.004184
    18  H    0.407959  -0.032059   0.012329  -0.033412   0.002457  -0.004058
    19  N   -0.025994  -0.033617   0.020218  -0.025824   0.423635  -0.064824
    20  O   -0.014923  -0.022084  -0.058164   0.087708  -0.124073   0.021714
    21  C   -0.006486   0.027277  -0.004379   0.002038   0.247812  -0.051188
    22  O    0.000727  -0.009203  -0.004771   0.000395  -0.110932   0.000072
    23  O   -0.000953  -0.000009  -0.000944   0.000207  -0.119068   0.004988
    24  C   -0.000151  -0.000126  -0.000000   0.000027   0.005902   0.000454
    25  H    0.000010   0.000043   0.000004  -0.000001   0.003553  -0.000013
    26  H   -0.000007   0.000012  -0.000002   0.000002  -0.004218   0.000212
    27  H    0.000000  -0.000199   0.000018  -0.000012  -0.003174  -0.000190
               7          8          9         10         11         12
     1  C    0.000904  -0.008631   0.015228  -0.035421  -0.036939  -0.001678
     2  C   -0.000808   0.012045  -0.005568   0.398694  -0.025517   0.009993
     3  C   -0.023102  -0.048643   0.446899  -0.004687   0.250391  -0.039610
     4  C    0.003671   0.002973  -0.059861   0.010016   0.040890   0.009706
     5  C   -0.017702  -0.064881   0.011072  -0.006145  -0.027803  -0.001004
     6  C    0.377410   0.413725  -0.046295   0.005395   0.021367  -0.002703
     7  H    0.557593  -0.022890   0.001908  -0.000217  -0.006148   0.001678
     8  H   -0.022890   0.584008  -0.008806  -0.000026   0.007841   0.000843
     9  H    0.001908  -0.008806   0.628333   0.000047  -0.056856  -0.003638
    10  H   -0.000217  -0.000026   0.000047   0.537536   0.008557  -0.000195
    11  C   -0.006148   0.007841  -0.056856   0.008557   4.957991   0.409034
    12  H    0.001678   0.000843  -0.003638  -0.000195   0.409034   0.585439
    13  H    0.000679  -0.000706  -0.003240  -0.000301   0.399652  -0.030300
    14  C   -0.003860   0.000130   0.010817  -0.038310   0.325430  -0.035351
    15  H   -0.000294  -0.000954  -0.000194  -0.000649  -0.010072  -0.010655
    16  H    0.000027   0.000187  -0.000246  -0.004849  -0.039414   0.002913
    17  H   -0.000320   0.000843  -0.008494  -0.000210   0.006665  -0.000367
    18  H    0.000050  -0.000032  -0.000176  -0.007851  -0.002128   0.000079
    19  N    0.005800  -0.017116  -0.000127   0.002647   0.001569  -0.000046
    20  O    0.001239   0.030540  -0.000657   0.000246   0.002729  -0.000044
    21  C   -0.008872   0.002066  -0.000710  -0.000137   0.003751   0.000061
    22  O    0.017846   0.000809  -0.000075  -0.000805   0.002893   0.000171
    23  O    0.000979   0.000132  -0.000001   0.006062   0.000195  -0.000001
    24  C   -0.000238   0.000055  -0.000001  -0.000037  -0.000019   0.000001
    25  H   -0.000002  -0.000002   0.000000  -0.000047  -0.000002  -0.000000
    26  H   -0.000042  -0.000022  -0.000000   0.000118   0.000006  -0.000001
    27  H   -0.000047   0.000006  -0.000000  -0.000446  -0.000013   0.000002
              13         14         15         16         17         18
     1  C    0.007815  -0.009378   0.011658  -0.009619  -0.035456   0.407959
     2  C   -0.003258   0.251642  -0.042307  -0.033723   0.010038  -0.032059
     3  C   -0.024643  -0.076368   0.001164   0.007860  -0.030969   0.012329
     4  C   -0.016265  -0.006765  -0.003291  -0.000271   0.399776  -0.033412
     5  C    0.000139  -0.043715  -0.004026   0.004209  -0.000666   0.002457
     6  C    0.005937   0.028312  -0.002774  -0.000281   0.004184  -0.004058
     7  H    0.000679  -0.003860  -0.000294   0.000027  -0.000320   0.000050
     8  H   -0.000706   0.000130  -0.000954   0.000187   0.000843  -0.000032
     9  H   -0.003240   0.010817  -0.000194  -0.000246  -0.008494  -0.000176
    10  H   -0.000301  -0.038310  -0.000649  -0.004849  -0.000210  -0.007851
    11  C    0.399652   0.325430  -0.010072  -0.039414   0.006665  -0.002128
    12  H   -0.030300  -0.035351  -0.010655   0.002913  -0.000367   0.000079
    13  H    0.601485  -0.030375   0.006102  -0.014599   0.000426  -0.000064
    14  C   -0.030375   5.008016   0.397774   0.404499  -0.000650   0.005138
    15  H    0.006102   0.397774   0.526407  -0.032937   0.000033  -0.000175
    16  H   -0.014599   0.404499  -0.032937   0.602295   0.000080  -0.000139
    17  H    0.000426  -0.000650   0.000033   0.000080   0.530448  -0.006043
    18  H   -0.000064   0.005138  -0.000175  -0.000139  -0.006043   0.534840
    19  N    0.000139  -0.001170   0.001020  -0.000205  -0.000313  -0.001292
    20  O   -0.000017   0.002356   0.000156  -0.000104   0.001971  -0.000643
    21  C   -0.000213   0.002309  -0.007881   0.000815   0.000035  -0.000014
    22  O    0.000004  -0.009854   0.018623   0.000289   0.000010   0.000008
    23  O    0.000002  -0.001383  -0.000466  -0.000062   0.000003  -0.000009
    24  C   -0.000001   0.000273  -0.000337   0.000006  -0.000000  -0.000005
    25  H   -0.000000  -0.000018   0.000012  -0.000002  -0.000000  -0.000000
    26  H    0.000000  -0.000005  -0.000054  -0.000004  -0.000000  -0.000000
    27  H   -0.000001   0.000186   0.000454   0.000026  -0.000000   0.000000
              19         20         21         22         23         24
     1  C   -0.025994  -0.014923  -0.006486   0.000727  -0.000953  -0.000151
     2  C   -0.033617  -0.022084   0.027277  -0.009203  -0.000009  -0.000126
     3  C    0.020218  -0.058164  -0.004379  -0.004771  -0.000944  -0.000000
     4  C   -0.025824   0.087708   0.002038   0.000395   0.000207   0.000027
     5  C    0.423635  -0.124073   0.247812  -0.110932  -0.119068   0.005902
     6  C   -0.064824   0.021714  -0.051188   0.000072   0.004988   0.000454
     7  H    0.005800   0.001239  -0.008872   0.017846   0.000979  -0.000238
     8  H   -0.017116   0.030540   0.002066   0.000809   0.000132   0.000055
     9  H   -0.000127  -0.000657  -0.000710  -0.000075  -0.000001  -0.000001
    10  H    0.002647   0.000246  -0.000137  -0.000805   0.006062  -0.000037
    11  C    0.001569   0.002729   0.003751   0.002893   0.000195  -0.000019
    12  H   -0.000046  -0.000044   0.000061   0.000171  -0.000001   0.000001
    13  H    0.000139  -0.000017  -0.000213   0.000004   0.000002  -0.000001
    14  C   -0.001170   0.002356   0.002309  -0.009854  -0.001383   0.000273
    15  H    0.001020   0.000156  -0.007881   0.018623  -0.000466  -0.000337
    16  H   -0.000205  -0.000104   0.000815   0.000289  -0.000062   0.000006
    17  H   -0.000313   0.001971   0.000035   0.000010   0.000003  -0.000000
    18  H   -0.001292  -0.000643  -0.000014   0.000008  -0.000009  -0.000005
    19  N    6.515448   0.174614  -0.050188   0.003989  -0.015776   0.000280
    20  O    0.174614   8.215468   0.008294  -0.000362  -0.000048   0.000042
    21  C   -0.050188   0.008294   4.575460   0.612668   0.421200  -0.050167
    22  O    0.003989  -0.000362   0.612668   7.911420  -0.084404   0.001391
    23  O   -0.015776  -0.000048   0.421200  -0.084404   7.914436   0.221558
    24  C    0.000280   0.000042  -0.050167   0.001391   0.221558   4.776180
    25  H   -0.000062   0.000002   0.004414   0.002161  -0.033340   0.393442
    26  H   -0.000002   0.000002  -0.009941   0.006765  -0.035881   0.420010
    27  H   -0.000192   0.000002  -0.006575   0.008691  -0.039340   0.411382
              25         26         27
     1  C    0.000010  -0.000007   0.000000
     2  C    0.000043   0.000012  -0.000199
     3  C    0.000004  -0.000002   0.000018
     4  C   -0.000001   0.000002  -0.000012
     5  C    0.003553  -0.004218  -0.003174
     6  C   -0.000013   0.000212  -0.000190
     7  H   -0.000002  -0.000042  -0.000047
     8  H   -0.000002  -0.000022   0.000006
     9  H    0.000000  -0.000000  -0.000000
    10  H   -0.000047   0.000118  -0.000446
    11  C   -0.000002   0.000006  -0.000013
    12  H   -0.000000  -0.000001   0.000002
    13  H   -0.000000   0.000000  -0.000001
    14  C   -0.000018  -0.000005   0.000186
    15  H    0.000012  -0.000054   0.000454
    16  H   -0.000002  -0.000004   0.000026
    17  H   -0.000000  -0.000000  -0.000000
    18  H   -0.000000  -0.000000   0.000000
    19  N   -0.000062  -0.000002  -0.000192
    20  O    0.000002   0.000002   0.000002
    21  C    0.004414  -0.009941  -0.006575
    22  O    0.002161   0.006765   0.008691
    23  O   -0.033340  -0.035881  -0.039340
    24  C    0.393442   0.420010   0.411382
    25  H    0.555226  -0.026359  -0.028152
    26  H   -0.026359   0.566991  -0.043702
    27  H   -0.028152  -0.043702   0.583291
 Mulliken charges:
               1
     1  C   -0.074895
     2  C   -0.077472
     3  C    0.116621
     4  C   -0.128104
     5  C   -0.031114
     6  C   -0.199315
     7  H    0.114756
     8  H    0.116505
     9  H    0.080643
    10  H    0.131014
    11  C   -0.234050
    12  H    0.105674
    13  H    0.101603
    14  C   -0.179680
    15  H    0.153663
    16  H    0.113247
    17  H    0.128975
    18  H    0.125240
    19  N    0.087389
    20  O   -0.325965
    21  C    0.288549
    22  O   -0.368526
    23  O   -0.238077
    24  C   -0.179920
    25  H    0.129134
    26  H    0.126121
    27  H    0.117983
 Sum of Mulliken charges =  -0.00000
 Mulliken charges with hydrogens summed into heavy atoms:
               1
     1  C    0.050346
     2  C    0.053542
     3  C    0.197264
     4  C    0.000871
     5  C   -0.031114
     6  C    0.031946
    11  C   -0.026773
    14  C    0.087230
    19  N    0.087389
    20  O   -0.325965
    21  C    0.288549
    22  O   -0.368526
    23  O   -0.238077
    24  C    0.193318
 Electronic spatial extent (au):  <R**2>=           2437.5706
 Charge=             -0.0000 electrons
 Dipole moment (field-independent basis, Debye):
    X=              1.5778    Y=             -2.8512    Z=              1.3992  Tot=              3.5463
 Quadrupole moment (field-independent basis, Debye-Ang):
   XX=            -71.6268   YY=            -92.8582   ZZ=            -78.9704
   XY=             -2.3314   XZ=             -3.3849   YZ=             -2.9364
 Traceless Quadrupole moment (field-independent basis, Debye-Ang):
   XX=              9.5250   YY=            -11.7064   ZZ=              2.1814
   XY=             -2.3314   XZ=             -3.3849   YZ=             -2.9364
 Octapole moment (field-independent basis, Debye-Ang**2):
  XXX=            -42.1035  YYY=            -19.3420  ZZZ=              1.6888  XYY=              2.4075
  XXY=              8.6539  XXZ=              4.3609  XZZ=             -1.4110  YZZ=              5.5503
  YYZ=              4.4506  XYZ=              9.2008
 Hexadecapole moment (field-independent basis, Debye-Ang**3):
 XXXX=          -1694.6338 YYYY=           -854.0559 ZZZZ=           -482.7234 XXXY=             24.7811
 XXXZ=            -46.2796 YYYX=            -11.5178 YYYZ=             -5.2748 ZZZX=             -9.2052
 ZZZY=              3.4363 XXYY=           -459.7798 XXZZ=           -399.0740 YYZZ=           -207.6294
 XXYZ=             -5.2381 YYXZ=             -0.0537 ZZXY=              1.7261
 N-N= 9.614201778613D+02 E-N=-3.485982388065D+03  KE= 6.662214316930D+02
 1\1\GINC-BHC0108\SP\RB3LYP\def2TZVP\C10H13N1O3\DHANAWAY\10-Jun-2022\0\
 \# sp B3LYP/Def2TZVP NoSymm\\ts_initalOptXYZ_aligned_AlignedSp\\0,1\C,
 0,1.780179,0.477309,1.424031\C,0,0.709499,-0.423621,1.447011\C,0,2.080
 769,-0.345311,-0.850849\C,0,2.470689,0.576979,0.246801\C,0,-0.332501,0
 .53159,-0.476739\C,0,0.690059,0.090549,-1.469579\H,0,0.304469,-0.74226
 1,-2.054259\H,0,0.890699,0.939919,-2.124279\H,0,2.815529,-0.333891,-1.
 655409\H,0,-0.055621,-0.311201,2.206761\C,0,1.935718,-1.767001,-0.2750
 69\H,0,1.679308,-2.462491,-1.075429\H,0,2.892478,-2.087931,0.141291\C,
 0,0.845628,-1.775641,0.808271\H,0,-0.111682,-2.113441,0.408751\H,0,1.0
 97878,-2.481971,1.607881\H,0,3.247689,1.315389,0.107821\H,0,1.884969,1
 .233559,2.190371\N,0,-0.259381,1.803229,0.014861\O,0,0.814669,2.378489
 ,-0.272349\C,0,-1.633241,-0.16391,-0.392369\O,0,-1.859141,-1.22211,-0.
 945789\O,0,-2.540461,0.47048,0.369081\C,0,-3.829241,-0.15228,0.453301\
 H,0,-4.424441,0.501361,1.085201\H,0,-4.279441,-0.24114,-0.535109\H,0,-
 3.752051,-1.14536,0.896001\\Version=ES64L-G16RevA.03\HF=-669.437795\RM
 SD=3.803e-09\Dipole=0.6207435,-1.1217648,0.5504713\Quadrupole=7.081610
 4,-8.7034175,1.6218072,-1.7333444,-2.5165919,-2.1831219\PG=C01 [X(C10H
 13N1O3)]\\@


 Experience is what you get when you don't get what you want.
 -- Dan Stanford
 Job cpu time:       0 days  1 hours  0 minutes 55.9 seconds.
 Elapsed time:       0 days  0 hours  5 minutes  5.0 seconds.
 File lengths (MBytes):  RWF=    147 Int=      0 D2E=      0 Chk=     32 Scr=      1
 Normal termination of Gaussian 16 at Fri Jun 10 03:47:23 2022.
