 Entering Gaussian System, Link 0=g16
 Input=ts_initalOpt_zmat_sp.gjf
 Output=ts_initalOpt_zmat_sp.out
 Initial command:
 /software/gaussian/g16-a03/l1.exe "/local_scratch/11171290/Gau-16243.inp" -scrdir="/local_scratch/11171290/"
 Entering Link 1 = /software/gaussian/g16-a03/l1.exe PID=     16244.
  
 Copyright (c) 1988,1990,1992,1993,1995,1998,2003,2009,2016,
            Gaussian, Inc.  All Rights Reserved.
  
 This is part of the Gaussian(R) 16 program.  It is based on
 the Gaussian(R) 09 system (copyright 2009, Gaussian, Inc.),
 the Gaussian(R) 03 system (copyright 2003, Gaussian, Inc.),
 the Gaussian(R) 98 system (copyright 1998, Gaussian, Inc.),
 the Gaussian(R) 94 system (copyright 1995, Gaussian, Inc.),
 the Gaussian 92(TM) system (copyright 1992, Gaussian, Inc.),
 the Gaussian 90(TM) system (copyright 1990, Gaussian, Inc.),
 the Gaussian 88(TM) system (copyright 1988, Gaussian, Inc.),
 the Gaussian 86(TM) system (copyright 1986, Carnegie Mellon
 University), and the Gaussian 82(TM) system (copyright 1983,
 Carnegie Mellon University). Gaussian is a federally registered
 trademark of Gaussian, Inc.
  
 This software contains proprietary and confidential information,
 including trade secrets, belonging to Gaussian, Inc.
  
 This software is provided under written license and may be
 used, copied, transmitted, or stored only in accord with that
 written license.
  
 The following legend is applicable only to US Government
 contracts under FAR:
  
                    RESTRICTED RIGHTS LEGEND
  
 Use, reproduction and disclosure by the US Government is
 subject to restrictions as set forth in subparagraphs (a)
 and (c) of the Commercial Computer Software - Restricted
 Rights clause in FAR 52.227-19.
  
 Gaussian, Inc.
 340 Quinnipiac St., Bldg. 40, Wallingford CT 06492
  
  
 ---------------------------------------------------------------
 Warning -- This program may not be used in any manner that
 competes with the business of Gaussian, Inc. or will provide
 assistance to any competitor of Gaussian, Inc.  The licensee
 of this program is prohibited from giving any competitor of
 Gaussian, Inc. access to this program.  By using this program,
 the user acknowledges that Gaussian, Inc. is engaged in the
 business of creating and licensing software in the field of
 computational chemistry and represents and warrants to the
 licensee that it is not a competitor of Gaussian, Inc. and that
 it will not use this program in any manner prohibited above.
 ---------------------------------------------------------------
  

 Cite this work as:
 Gaussian 16, Revision A.03,
 M. J. Frisch, G. W. Trucks, H. B. Schlegel, G. E. Scuseria, 
 M. A. Robb, J. R. Cheeseman, G. Scalmani, V. Barone, 
 G. A. Petersson, H. Nakatsuji, X. Li, M. Caricato, A. V. Marenich, 
 J. Bloino, B. G. Janesko, R. Gomperts, B. Mennucci, H. P. Hratchian, 
 J. V. Ortiz, A. F. Izmaylov, J. L. Sonnenberg, D. Williams-Young, 
 F. Ding, F. Lipparini, F. Egidi, J. Goings, B. Peng, A. Petrone, 
 T. Henderson, D. Ranasinghe, V. G. Zakrzewski, J. Gao, N. Rega, 
 G. Zheng, W. Liang, M. Hada, M. Ehara, K. Toyota, R. Fukuda, 
 J. Hasegawa, M. Ishida, T. Nakajima, Y. Honda, O. Kitao, H. Nakai, 
 T. Vreven, K. Throssell, J. A. Montgomery, Jr., J. E. Peralta, 
 F. Ogliaro, M. J. Bearpark, J. J. Heyd, E. N. Brothers, K. N. Kudin, 
 V. N. Staroverov, T. A. Keith, R. Kobayashi, J. Normand, 
 K. Raghavachari, A. P. Rendell, J. C. Burant, S. S. Iyengar, 
 J. Tomasi, M. Cossi, J. M. Millam, M. Klene, C. Adamo, R. Cammi, 
 J. W. Ochterski, R. L. Martin, K. Morokuma, O. Farkas, 
 J. B. Foresman, and D. J. Fox, Gaussian, Inc., Wallingford CT, 2016.
 
 ******************************************
 Gaussian 16:  ES64L-G16RevA.03 25-Dec-2016
                10-Jun-2022 
 ******************************************
 %nprocshared=12
 Will use up to   12 processors via shared memory.
 %chk=checkpoint.chk
 %mem=12GB
 --------------------------
 # sp B3LYP/Def2TZVP NoSymm
 --------------------------
 1/38=1,172=1/1;
 2/12=2,15=1,17=6,18=5,40=1/2;
 3/5=44,7=101,11=2,25=1,30=1,74=-5/1,2,3;
 4//1;
 5/5=2,38=5/2;
 6/7=2,8=2,9=2,10=2,28=1/1;
 99/5=1,9=1/99;
 ---------------------------
 ts_initalOpt_zmat_AlignedSp
 ---------------------------
 Symbolic Z-matrix:
 Charge =  0 Multiplicity = 1
 C
 C                    1    R2
 C                    1    R3       2    A3
 H                    1    R4       2    A4       3    D4       0
 H                    1    R5       2    A5       3    D5       0
 C                    2    R6       1    A6       3    D6       0
 C                    3    R7       1    A7       2    D7       0
 H                    2    R8       1    A8       6    D8       0
 H                    2    R9       1    A9       6    D9       0
 H                    3    R10      1    A10      7    D10      0
 C                    7    R11      3    A11      1    D11      0
 C                    6    R12      2    A12      1    D12      0
 H                    6    R13      2    A13      12   D13      0
 H                    7    R14      3    A14      11   D14      0
 C                    12   R15      6    A15      2    D15      0
 H                    12   R16      6    A16      15   D16      0
 H                    11   R17      7    A17      3    D17      0
 H                    11   R18      7    A18      17   D18      0
 H                    15   R19      12   A19      6    D19      0
 H                    15   R20      12   A20      19   D20      0
       Variables:
  R2                    1.5392                   
  R3                    1.52389                  
  R4                    1.09159                  
  R5                    1.09156                  
  R6                    1.52389                  
  R7                    1.39164                  
  R8                    1.09159                  
  R9                    1.09156                  
  R10                   1.08383                  
  R11                   1.37677                  
  R12                   1.39164                  
  R13                   1.08383                  
  R14                   1.08651                  
  R15                   1.37677                  
  R16                   1.08651                  
  R17                   1.07998                  
  R18                   1.0816                   
  R19                   1.07998                  
  R20                   1.0816                   
  A3                  102.25227                  
  A4                  112.61872                  
  A5                  112.82168                  
  A6                  102.25231                  
  A7                  123.93291                  
  A8                  112.61857                  
  A9                  112.82172                  
  A10                 116.4387                   
  A11                 124.75675                  
  A12                 123.93288                  
  A13                 116.43876                  
  A14                 116.33963                  
  A15                 124.75683                  
  A16                 116.33962                  
  A17                 121.28355                  
  A18                 120.14802                  
  A19                 121.28354                  
  A20                 120.14809                  
  D4                  118.9114                   
  D5                 -120.13858                  
  D6                   -0.00018                  
  D7                 -100.07285                  
  D8                 -118.9114                   
  D9                  120.13865                  
  D10                -161.242                    
  D11                  18.89245                  
  D12                 100.07311                  
  D13                 161.24205                  
  D14                 165.07176                  
  D15                 -18.89227                  
  D16                -165.07196                  
  D17                 -25.7028                   
  D18                -159.52692                  
  D19                  25.70267                  
  D20                 159.52712                  
 
                          Input orientation:                          
 ---------------------------------------------------------------------
 Center     Atomic      Atomic             Coordinates (Angstroms)
 Number     Number       Type             X           Y           Z
 ---------------------------------------------------------------------
      1          6           0        0.000000    0.000000    0.000000
      2          6           0        0.000000    0.000000    1.539197
      3          6           0        1.489182    0.000000   -0.323395
      4          1           0       -0.487145   -0.882048   -0.419822
      5          1           0       -0.505159    0.870093   -0.423376
      6          6           0        1.489181   -0.000005    1.862593
      7          6           0        2.205474    1.136833   -0.685599
      8          1           0       -0.487149   -0.882047    1.959017
      9          1           0       -0.505157    0.870094    1.962573
     10          1           0        1.929657   -0.959348   -0.569012
     11          6           0        1.796115    2.430259   -0.451165
     12          6           0        2.205474    1.136824    2.224802
     13          1           0        1.929655   -0.959354    2.108205
     14          1           0        3.247254    0.984981   -0.954195
     15          6           0        1.796117    2.430253    1.990378
     16          1           0        3.247254    0.984969    2.493398
     17          1           0        0.749869    2.677350   -0.347891
     18          1           0        2.450083    3.258453   -0.688400
     19          1           0        0.749872    2.677346    1.887105
     20          1           0        2.450086    3.258444    2.227615
 ---------------------------------------------------------------------
                    Distance matrix (angstroms):
                    1          2          3          4          5
     1  C    0.000000
     2  C    1.539197   0.000000
     3  C    1.523893   2.384725   0.000000
     4  H    1.091590   2.202970   2.166374   0.000000
     5  H    1.091556   2.205434   2.178177   1.752237   0.000000
     6  C    2.384725   1.523892   2.185988   3.145360   3.155965
     7  C    2.574209   3.332600   1.391637   3.375902   2.736319
     8  H    2.202968   1.091590   3.145361   2.378839   2.957383
     9  H    2.205434   1.091556   3.155963   2.957386   2.385949
    10  H    2.228834   3.014709   1.083833   2.422637   3.048999
    11  C    3.055444   3.618526   2.452894   4.023137   2.780422
    12  C    3.332601   2.574206   2.880755   4.280196   3.798884
    13  H    3.014707   2.228833   2.650859   3.498260   3.960315
    14  H    3.524959   4.210920   2.111614   4.209167   3.791513
    15  C    3.618531   3.055442   3.369552   4.689743   3.681871
    16  H    4.210921   3.524957   3.463424   5.091006   4.754089
    17  H    2.802059   3.360299   2.777658   3.768911   2.201584
    18  H    4.134527   4.645709   3.416735   5.083620   3.808931
    19  H    3.360306   2.802058   3.549799   4.418304   3.190546
    20  H    4.645713   4.134526   4.248347   5.725376   4.633081
                    6          7          8          9         10
     6  C    0.000000
     7  C    2.880756   0.000000
     8  H    2.166374   4.280197   0.000000
     9  H    2.178176   3.798879   1.752237   0.000000
    10  H    2.650860   2.117461   3.498264   3.960316   0.000000
    11  C    3.369550   1.376766   4.689738   3.681861   3.394283
    12  C    1.391636   2.910401   3.375900   2.736316   3.503628
    13  H    1.083832   3.503629   2.422638   3.048999   2.677217
    14  H    3.463425   1.086512   5.091008   4.754085   2.380093
    15  C    2.452894   3.000226   4.023135   2.780419   4.249435
    16  H    2.111612   3.348790   4.209165   3.791511   3.859376
    17  H    3.549796   2.146165   4.418297   3.190535   3.829669
    18  H    4.248346   2.135676   5.725372   4.633072   4.251463
    19  H    2.777659   3.333281   3.768909   2.201580   4.544221
    20  H    3.416734   3.612186   5.083617   3.808927   5.087410
                   11         12         13         14         15
    11  C    0.000000
    12  C    3.000225   0.000000
    13  H    4.249433   2.117459   0.000000
    14  H    2.108950   3.348788   3.859378   0.000000
    15  C    2.441543   1.376766   3.394281   3.586797   0.000000
    16  H    3.586798   1.086512   2.380091   3.447593   2.108950
    17  H    1.079977   3.333280   4.544218   3.077117   2.573556
    18  H    1.081601   3.612186   5.087410   2.423800   2.879138
    19  H    2.573555   2.146165   3.829668   4.144153   1.079977
    20  H    2.879138   2.135677   4.251462   3.990993   1.081600
                   16         17         18         19         20
    16  H    0.000000
    17  H    4.144153   0.000000
    18  H    3.990996   1.828757   0.000000
    19  H    3.077117   2.234996   3.140323   0.000000
    20  H    2.423800   3.140325   2.916015   1.828757   0.000000
 Symmetry turned off by external request.
 Stoichiometry    C8H12
 Framework group  C1[X(C8H12)]
 Deg. of freedom    54
 Full point group                 C1      NOp   1
 Rotational constants (GHZ):           2.4921688           2.3101024           1.5833667
 Standard basis: def2TZVP (5D, 7F)
   320 basis functions,   504 primitive gaussians,   360 cartesian basis functions
    30 alpha electrons       30 beta electrons
       nuclear repulsion energy       368.2317443617 Hartrees.
 NAtoms=   20 NActive=   20 NUniq=   20 SFac= 1.00D+00 NAtFMM=   60 NAOKFM=F Big=F
 Integral buffers will be    131072 words long.
 Raffenetti 2 integral format.
 Two-electron integral symmetry is turned off.
 One-electron integrals computed using PRISM.
   1 Symmetry operations used in ECPInt.
 ECPInt:  NShTT=    9316 NPrTT=   27240 LenC2=    9239 LenP2D=   22136.
 LDataN:  DoStor=T MaxTD1= 6 Len=  172
 NBasis=   320 RedAO= T EigKep=  2.55D-05  NBF=   320
 NBsUse=   320 1.00D-06 EigRej= -1.00D+00 NBFU=   320
 ExpMin= 9.52D-02 ExpMax= 1.36D+04 ExpMxC= 4.63D+02 IAcc=3 IRadAn=         5 AccDes= 0.00D+00
 Harris functional with IExCor=  402 and IRadAn=       5 diagonalized for initial guess.
 HarFok:  IExCor=  402 AccDes= 0.00D+00 IRadAn=         5 IDoV= 1 UseB2=F ITyADJ=14
 ICtDFT=  3500011 ScaDFX=  1.000000  1.000000  1.000000  1.000000
 FoFCou: FMM=F IPFlag=           0 FMFlag=      100000 FMFlg1=           0
         NFxFlg=           0 DoJE=T BraDBF=F KetDBF=T FulRan=T
         wScrn=  0.000000 ICntrl=       500 IOpCl=  0 I1Cent=   200000004 NGrid=           0
         NMat0=    1 NMatS0=      1 NMatT0=    0 NMatD0=    1 NMtDS0=    0 NMtDT0=    0
 Symmetry not used in FoFCou.
 Requested convergence on RMS density matrix=1.00D-08 within 128 cycles.
 Requested convergence on MAX density matrix=1.00D-06.
 Requested convergence on             energy=1.00D-06.
 No special actions if energy rises.
 Integral accuracy reduced to 1.0D-05 until final iterations.
 Initial convergence to 1.0D-05 achieved.  Increase integral accuracy.
 SCF Done:  E(RB3LYP) =  -312.079791127     A.U. after   13 cycles
            NFock= 13  Conv=0.94D-08     -V/T= 2.0056

 **********************************************************************

            Population analysis using the SCF density.

 **********************************************************************

 Alpha  occ. eigenvalues --  -10.18167 -10.18167 -10.17162 -10.17143 -10.17029
 Alpha  occ. eigenvalues --  -10.17028 -10.16205 -10.16203  -0.83629  -0.77663
 Alpha  occ. eigenvalues --   -0.75856  -0.67516  -0.66398  -0.60185  -0.54911
 Alpha  occ. eigenvalues --   -0.50575  -0.50224  -0.46844  -0.46297  -0.43209
 Alpha  occ. eigenvalues --   -0.40280  -0.40237  -0.37798  -0.37211  -0.36331
 Alpha  occ. eigenvalues --   -0.33362  -0.32190  -0.31997  -0.24083  -0.21179
 Alpha virt. eigenvalues --   -0.03807   0.00481   0.03418   0.04141   0.06652
 Alpha virt. eigenvalues --    0.06911   0.07926   0.09342   0.10097   0.10843
 Alpha virt. eigenvalues --    0.11357   0.13379   0.14249   0.14623   0.14867
 Alpha virt. eigenvalues --    0.16858   0.18057   0.19033   0.20337   0.20542
 Alpha virt. eigenvalues --    0.23366   0.23377   0.24289   0.25075   0.25895
 Alpha virt. eigenvalues --    0.26688   0.27020   0.28779   0.29641   0.31903
 Alpha virt. eigenvalues --    0.32784   0.33007   0.33888   0.35894   0.36294
 Alpha virt. eigenvalues --    0.39201   0.39566   0.40674   0.40917   0.41215
 Alpha virt. eigenvalues --    0.42921   0.43287   0.44702   0.44745   0.44998
 Alpha virt. eigenvalues --    0.45118   0.45795   0.47074   0.47289   0.48221
 Alpha virt. eigenvalues --    0.48904   0.50098   0.50875   0.51422   0.55373
 Alpha virt. eigenvalues --    0.56413   0.57079   0.58737   0.60520   0.62567
 Alpha virt. eigenvalues --    0.64791   0.66099   0.66376   0.66712   0.70300
 Alpha virt. eigenvalues --    0.72456   0.76844   0.76853   0.80170   0.81316
 Alpha virt. eigenvalues --    0.85157   0.86646   0.87667   0.91188   0.92058
 Alpha virt. eigenvalues --    0.92586   0.94277   0.95341   0.98317   0.98771
 Alpha virt. eigenvalues --    0.99101   1.02221   1.03345   1.04327   1.06393
 Alpha virt. eigenvalues --    1.08314   1.08759   1.10020   1.11468   1.15121
 Alpha virt. eigenvalues --    1.17215   1.17285   1.18005   1.19954   1.22334
 Alpha virt. eigenvalues --    1.22927   1.23398   1.24788   1.29487   1.30485
 Alpha virt. eigenvalues --    1.34556   1.36211   1.37734   1.40627   1.44216
 Alpha virt. eigenvalues --    1.45843   1.49199   1.49385   1.49684   1.50642
 Alpha virt. eigenvalues --    1.52056   1.54029   1.54532   1.57970   1.58340
 Alpha virt. eigenvalues --    1.59716   1.60428   1.64127   1.65120   1.67063
 Alpha virt. eigenvalues --    1.67102   1.68334   1.70902   1.74101   1.74214
 Alpha virt. eigenvalues --    1.75361   1.75736   1.79426   1.79601   1.81503
 Alpha virt. eigenvalues --    1.83563   1.87378   1.88327   1.90818   1.92948
 Alpha virt. eigenvalues --    1.93201   1.96172   1.96717   2.00255   2.00926
 Alpha virt. eigenvalues --    2.05758   2.06555   2.09623   2.12288   2.13541
 Alpha virt. eigenvalues --    2.18577   2.20736   2.24055   2.28271   2.30130
 Alpha virt. eigenvalues --    2.30935   2.33758   2.35286   2.36209   2.39142
 Alpha virt. eigenvalues --    2.40003   2.42631   2.45638   2.47314   2.48146
 Alpha virt. eigenvalues --    2.49248   2.50954   2.53418   2.53549   2.54087
 Alpha virt. eigenvalues --    2.58113   2.60864   2.61667   2.62936   2.63551
 Alpha virt. eigenvalues --    2.64210   2.66588   2.67955   2.68820   2.70073
 Alpha virt. eigenvalues --    2.70899   2.72795   2.73784   2.75888   2.76873
 Alpha virt. eigenvalues --    2.77093   2.79779   2.80354   2.80905   2.82545
 Alpha virt. eigenvalues --    2.86761   2.88155   2.89332   2.91458   2.93370
 Alpha virt. eigenvalues --    2.95569   2.96059   2.97267   3.00446   3.00878
 Alpha virt. eigenvalues --    3.01422   3.05249   3.06794   3.07294   3.09045
 Alpha virt. eigenvalues --    3.12198   3.12959   3.14628   3.16336   3.16431
 Alpha virt. eigenvalues --    3.20494   3.23441   3.23477   3.24612   3.26025
 Alpha virt. eigenvalues --    3.27129   3.27632   3.28072   3.28213   3.31411
 Alpha virt. eigenvalues --    3.32852   3.34512   3.36642   3.38868   3.38976
 Alpha virt. eigenvalues --    3.42515   3.44170   3.47224   3.47927   3.48592
 Alpha virt. eigenvalues --    3.49671   3.51969   3.53135   3.54897   3.57242
 Alpha virt. eigenvalues --    3.58321   3.58765   3.60863   3.66056   3.68064
 Alpha virt. eigenvalues --    3.69005   3.70370   3.75253   3.76721   3.79328
 Alpha virt. eigenvalues --    3.81740   3.86073   3.88807   3.89691   3.98413
 Alpha virt. eigenvalues --    4.01807   4.03360   4.03815   4.04400   4.06220
 Alpha virt. eigenvalues --    4.06662   4.08318   4.10650   4.13336   4.17852
 Alpha virt. eigenvalues --    4.20287   4.21272   4.25109   4.26784   4.29744
 Alpha virt. eigenvalues --    4.33350   4.33494   4.39610   4.44901   4.47868
 Alpha virt. eigenvalues --    4.55045   4.58104   4.59826   4.64515   4.68812
 Alpha virt. eigenvalues --    4.69884   4.77857   4.78625   4.84711   4.84983
 Alpha virt. eigenvalues --    4.95644   4.98628   5.01521   5.03985   5.15121
 Alpha virt. eigenvalues --    5.16920   5.35003  22.13744  22.37158  22.41579
 Alpha virt. eigenvalues --   22.41920  22.56995  22.67579  22.76091  22.96620
          Condensed to atoms (all electrons):
               1          2          3          4          5          6
     1  C    4.956661   0.379758   0.278915   0.389554   0.396685  -0.127020
     2  C    0.379758   4.956662  -0.127020  -0.035990  -0.045932   0.278914
     3  C    0.278915  -0.127020   5.078529  -0.032040  -0.033480   0.151972
     4  H    0.389554  -0.035990  -0.032040   0.613542  -0.024471   0.013200
     5  H    0.396685  -0.045932  -0.033480  -0.024471   0.609557   0.011277
     6  C   -0.127020   0.278914   0.151972   0.013200   0.011277   5.078528
     7  C   -0.016095  -0.012292   0.513275   0.006479  -0.012033  -0.011396
     8  H   -0.035990   0.389554   0.013200  -0.012637   0.006804  -0.032040
     9  H   -0.045932   0.396685   0.011277   0.006804  -0.009353  -0.033480
    10  H   -0.039524   0.004343   0.404632  -0.009721   0.005100  -0.006155
    11  C    0.015217   0.007296  -0.077816  -0.000971   0.003273  -0.034135
    12  C   -0.012293  -0.016095  -0.011396  -0.000943   0.004135   0.513275
    13  H    0.004343  -0.039524  -0.006155   0.000213  -0.000879   0.404632
    14  H    0.009169  -0.001413  -0.046505  -0.000286   0.000004  -0.001228
    15  C    0.007295   0.015218  -0.034135  -0.000227  -0.006540  -0.077816
    16  H   -0.001413   0.009169  -0.001228   0.000045   0.000085  -0.046505
    17  H    0.001212  -0.006591  -0.003654   0.000361   0.004677   0.003465
    18  H   -0.000942   0.000301   0.009600  -0.000009   0.000254   0.000064
    19  H   -0.006591   0.001212   0.003465   0.000176   0.001905  -0.003654
    20  H    0.000301  -0.000942   0.000064   0.000003  -0.000039   0.009600
               7          8          9         10         11         12
     1  C   -0.016095  -0.035990  -0.045932  -0.039524   0.015217  -0.012293
     2  C   -0.012292   0.389554   0.396685   0.004343   0.007296  -0.016095
     3  C    0.513275   0.013200   0.011277   0.404632  -0.077816  -0.011396
     4  H    0.006479  -0.012637   0.006804  -0.009721  -0.000971  -0.000943
     5  H   -0.012033   0.006804  -0.009353   0.005100   0.003273   0.004135
     6  C   -0.011396  -0.032040  -0.033480  -0.006155  -0.034135   0.513275
     7  C    4.980500  -0.000943   0.004135  -0.050151   0.495600  -0.129421
     8  H   -0.000943   0.613542  -0.024471   0.000213  -0.000227   0.006479
     9  H    0.004135  -0.024471   0.609557  -0.000879  -0.006540  -0.012033
    10  H   -0.050151   0.000213  -0.000879   0.593278   0.010484   0.001926
    11  C    0.495600  -0.000227  -0.006540   0.010484   5.031421  -0.030486
    12  C   -0.129421   0.006479  -0.012033   0.001926  -0.030486   4.980501
    13  H    0.001926  -0.009721   0.005100  -0.004520   0.000160  -0.050151
    14  H    0.410445   0.000045   0.000085  -0.010969  -0.042168  -0.000055
    15  C   -0.030486  -0.000971   0.003273   0.000160   0.118969   0.495600
    16  H   -0.000055  -0.000286   0.000004   0.000077  -0.001558   0.410445
    17  H   -0.041546   0.000176   0.001905  -0.000501   0.414915  -0.003750
    18  H   -0.043761   0.000003  -0.000039  -0.000253   0.411913   0.002161
    19  H   -0.003750   0.000361   0.004677  -0.000052  -0.025730  -0.041546
    20  H    0.002161  -0.000009   0.000254  -0.000003   0.001339  -0.043761
              13         14         15         16         17         18
     1  C    0.004343   0.009169   0.007295  -0.001413   0.001212  -0.000942
     2  C   -0.039524  -0.001413   0.015218   0.009169  -0.006591   0.000301
     3  C   -0.006155  -0.046505  -0.034135  -0.001228  -0.003654   0.009600
     4  H    0.000213  -0.000286  -0.000227   0.000045   0.000361  -0.000009
     5  H   -0.000879   0.000004  -0.006540   0.000085   0.004677   0.000254
     6  C    0.404632  -0.001228  -0.077816  -0.046505   0.003465   0.000064
     7  C    0.001926   0.410445  -0.030486  -0.000055  -0.041546  -0.043761
     8  H   -0.009721   0.000045  -0.000971  -0.000286   0.000176   0.000003
     9  H    0.005100   0.000085   0.003273   0.000004   0.001905  -0.000039
    10  H   -0.004520  -0.010969   0.000160   0.000077  -0.000501  -0.000253
    11  C    0.000160  -0.042168   0.118969  -0.001558   0.414915   0.411913
    12  C   -0.050151  -0.000055   0.495600   0.410445  -0.003750   0.002161
    13  H    0.593278   0.000077   0.010484  -0.010969  -0.000052  -0.000003
    14  H    0.000077   0.598217  -0.001558  -0.000349   0.006776  -0.008638
    15  C    0.010484  -0.001558   5.031421  -0.042167  -0.025730   0.001339
    16  H   -0.010969  -0.000349  -0.042167   0.598218  -0.000052   0.000148
    17  H   -0.000052   0.006776  -0.025730  -0.000052   0.563239  -0.030252
    18  H   -0.000003  -0.008638   0.001339   0.000148  -0.030252   0.543352
    19  H   -0.000501  -0.000052   0.414915   0.006776  -0.001548   0.001059
    20  H   -0.000253   0.000148   0.411914  -0.008638   0.001059  -0.002103
              19         20
     1  C   -0.006591   0.000301
     2  C    0.001212  -0.000942
     3  C    0.003465   0.000064
     4  H    0.000176   0.000003
     5  H    0.001905  -0.000039
     6  C   -0.003654   0.009600
     7  C   -0.003750   0.002161
     8  H    0.000361  -0.000009
     9  H    0.004677   0.000254
    10  H   -0.000052  -0.000003
    11  C   -0.025730   0.001339
    12  C   -0.041546  -0.043761
    13  H   -0.000501  -0.000253
    14  H   -0.000052   0.000148
    15  C    0.414915   0.411914
    16  H    0.006776  -0.008638
    17  H   -0.001548   0.001059
    18  H    0.001059  -0.002103
    19  H    0.563239  -0.030252
    20  H   -0.030252   0.543351
 Mulliken charges:
               1
     1  C   -0.153312
     2  C   -0.153313
     3  C   -0.091499
     4  H    0.086918
     5  H    0.088972
     6  C   -0.091498
     7  C   -0.062590
     8  H    0.086917
     9  H    0.088973
    10  H    0.102516
    11  C   -0.290958
    12  C   -0.062590
    13  H    0.102516
    14  H    0.088253
    15  C   -0.290958
    16  H    0.088253
    17  H    0.115892
    18  H    0.115807
    19  H    0.115892
    20  H    0.115807
 Sum of Mulliken charges =  -0.00000
 Mulliken charges with hydrogens summed into heavy atoms:
               1
     1  C    0.022578
     2  C    0.022577
     3  C    0.011017
     6  C    0.011018
     7  C    0.025663
    11  C   -0.059259
    12  C    0.025663
    15  C   -0.059259
 Electronic spatial extent (au):  <R**2>=           1604.7696
 Charge=             -0.0000 electrons
 Dipole moment (field-independent basis, Debye):
    X=             -0.1665    Y=             -0.4230    Z=              0.0000  Tot=              0.4546
 Quadrupole moment (field-independent basis, Debye-Ang):
   XX=            -49.1611   YY=            -48.4455   ZZ=            -56.1163
   XY=             -0.5759   XZ=             -0.1281   YZ=             -0.3255
 Traceless Quadrupole moment (field-independent basis, Debye-Ang):
   XX=              2.0799   YY=              2.7954   ZZ=             -4.8753
   XY=             -0.5759   XZ=             -0.1281   YZ=             -0.3255
 Octapole moment (field-independent basis, Debye-Ang**2):
  XXX=           -194.1597  YYY=           -133.7890  ZZZ=           -129.5615  XYY=            -64.4437
  XXY=            -44.0364  XXZ=            -37.8344  XZZ=            -74.4492  YZZ=            -54.6894
  YYZ=            -37.2837  XYZ=             -0.4432
 Hexadecapole moment (field-independent basis, Debye-Ang**3):
 XXXX=           -850.9701 YYYY=           -676.9388 ZZZZ=           -760.8580 XXXY=           -251.9319
 XXXZ=           -149.4258 YYYX=           -249.8992 YYYZ=           -102.9641 ZZZX=           -171.7371
 ZZZY=           -125.8815 XXYY=           -247.6434 XXZZ=           -262.3988 YYZZ=           -239.2907
 XXYZ=            -33.8904 YYXZ=            -49.5959 ZZXY=            -98.1149
 N-N= 3.682317443617D+02 E-N=-1.459185571300D+03  KE= 3.103512230686D+02
 1\1\GINC-BHC0019\SP\RB3LYP\def2TZVP\C8H12\DHANAWAY\10-Jun-2022\0\\# sp
  B3LYP/Def2TZVP NoSymm\\ts_initalOpt_zmat_AlignedSp\\0,1\C\C,1,1.53919
 7\C,1,1.52389253,2,102.25227276\H,1,1.09159039,2,112.61872193,3,118.91
 140119,0\H,1,1.09155591,2,112.82168101,3,-120.13858274,0\C,2,1.5238916
 9,1,102.25231488,3,-0.00017753,0\C,3,1.39163729,1,123.9329063,2,-100.0
 7284942,0\H,2,1.09159028,1,112.6185702,6,-118.91139718,0\H,2,1.0915558
 4,1,112.82171971,6,120.13865158,0\H,3,1.08383308,1,116.43869693,7,-161
 .24199967,0\C,7,1.3767659,3,124.75674813,1,18.89244735,0\C,6,1.3916357
 9,2,123.93287596,1,100.07311151,0\H,6,1.08383243,2,116.43876237,12,161
 .24205096,0\H,7,1.08651206,3,116.33963262,11,165.07176127,0\C,12,1.376
 76604,6,124.75683339,2,-18.89227106,0\H,12,1.08651243,6,116.33961679,1
 5,-165.07196146,0\H,11,1.07997664,7,121.28355407,3,-25.70280029,0\H,11
 ,1.08160072,7,120.14802235,17,-159.52692176,0\H,15,1.07997689,12,121.2
 8354233,6,25.70266865,0\H,15,1.08160002,12,120.14809084,19,159.5271196
 9,0\\Version=ES64L-G16RevA.03\HF=-312.0797911\RMSD=9.388e-09\Dipole=-0
 .0654897,-0.1664129,0.0000002\Quadrupole=1.5463385,2.0783426,-3.624681
 2,-0.4281379,-0.0952414,-0.2420039\PG=C01 [X(C8H12)]\\@


 A BIRD IN THE HAND IS SAFER THAN ONE OVERHEAD.

                       -- NEWTON'S SEVENTH LAW
 Job cpu time:       0 days  0 hours 14 minutes 23.7 seconds.
 Elapsed time:       0 days  0 hours  1 minutes 18.8 seconds.
 File lengths (MBytes):  RWF=     60 Int=      0 D2E=      0 Chk=     32 Scr=      1
 Normal termination of Gaussian 16 at Fri Jun 10 02:34:42 2022.
