 Entering Gaussian System, Link 0=g16
 Input=int_zmat_field_N50.gjf
 Output=int_zmat_field_N50.out
 Initial command:
 /software/gaussian/g16-a03/l1.exe "/local_scratch/11172160/Gau-27142.inp" -scrdir="/local_scratch/11172160/"
 Entering Link 1 = /software/gaussian/g16-a03/l1.exe PID=     27143.
  
 Copyright (c) 1988,1990,1992,1993,1995,1998,2003,2009,2016,
            Gaussian, Inc.  All Rights Reserved.
  
 This is part of the Gaussian(R) 16 program.  It is based on
 the Gaussian(R) 09 system (copyright 2009, Gaussian, Inc.),
 the Gaussian(R) 03 system (copyright 2003, Gaussian, Inc.),
 the Gaussian(R) 98 system (copyright 1998, Gaussian, Inc.),
 the Gaussian(R) 94 system (copyright 1995, Gaussian, Inc.),
 the Gaussian 92(TM) system (copyright 1992, Gaussian, Inc.),
 the Gaussian 90(TM) system (copyright 1990, Gaussian, Inc.),
 the Gaussian 88(TM) system (copyright 1988, Gaussian, Inc.),
 the Gaussian 86(TM) system (copyright 1986, Carnegie Mellon
 University), and the Gaussian 82(TM) system (copyright 1983,
 Carnegie Mellon University). Gaussian is a federally registered
 trademark of Gaussian, Inc.
  
 This software contains proprietary and confidential information,
 including trade secrets, belonging to Gaussian, Inc.
  
 This software is provided under written license and may be
 used, copied, transmitted, or stored only in accord with that
 written license.
  
 The following legend is applicable only to US Government
 contracts under FAR:
  
                    RESTRICTED RIGHTS LEGEND
  
 Use, reproduction and disclosure by the US Government is
 subject to restrictions as set forth in subparagraphs (a)
 and (c) of the Commercial Computer Software - Restricted
 Rights clause in FAR 52.227-19.
  
 Gaussian, Inc.
 340 Quinnipiac St., Bldg. 40, Wallingford CT 06492
  
  
 ---------------------------------------------------------------
 Warning -- This program may not be used in any manner that
 competes with the business of Gaussian, Inc. or will provide
 assistance to any competitor of Gaussian, Inc.  The licensee
 of this program is prohibited from giving any competitor of
 Gaussian, Inc. access to this program.  By using this program,
 the user acknowledges that Gaussian, Inc. is engaged in the
 business of creating and licensing software in the field of
 computational chemistry and represents and warrants to the
 licensee that it is not a competitor of Gaussian, Inc. and that
 it will not use this program in any manner prohibited above.
 ---------------------------------------------------------------
  

 Cite this work as:
 Gaussian 16, Revision A.03,
 M. J. Frisch, G. W. Trucks, H. B. Schlegel, G. E. Scuseria, 
 M. A. Robb, J. R. Cheeseman, G. Scalmani, V. Barone, 
 G. A. Petersson, H. Nakatsuji, X. Li, M. Caricato, A. V. Marenich, 
 J. Bloino, B. G. Janesko, R. Gomperts, B. Mennucci, H. P. Hratchian, 
 J. V. Ortiz, A. F. Izmaylov, J. L. Sonnenberg, D. Williams-Young, 
 F. Ding, F. Lipparini, F. Egidi, J. Goings, B. Peng, A. Petrone, 
 T. Henderson, D. Ranasinghe, V. G. Zakrzewski, J. Gao, N. Rega, 
 G. Zheng, W. Liang, M. Hada, M. Ehara, K. Toyota, R. Fukuda, 
 J. Hasegawa, M. Ishida, T. Nakajima, Y. Honda, O. Kitao, H. Nakai, 
 T. Vreven, K. Throssell, J. A. Montgomery, Jr., J. E. Peralta, 
 F. Ogliaro, M. J. Bearpark, J. J. Heyd, E. N. Brothers, K. N. Kudin, 
 V. N. Staroverov, T. A. Keith, R. Kobayashi, J. Normand, 
 K. Raghavachari, A. P. Rendell, J. C. Burant, S. S. Iyengar, 
 J. Tomasi, M. Cossi, J. M. Millam, M. Klene, C. Adamo, R. Cammi, 
 J. W. Ochterski, R. L. Martin, K. Morokuma, O. Farkas, 
 J. B. Foresman, and D. J. Fox, Gaussian, Inc., Wallingford CT, 2016.
 
 ******************************************
 Gaussian 16:  ES64L-G16RevA.03 25-Dec-2016
                10-Jun-2022 
 ******************************************
 %nprocshared=12
 Will use up to   12 processors via shared memory.
 %chk=checkpoint.chk
 %mem=12GB
 ----------------------------------------------------------------------
 # Opt=(Z-matrix, MaxStep=10) B3LYP/Def2TZVP geom=allcheckpoint guess=r
 ead Field=read NoSymm freq=noraman pop=none
 ----------------------------------------------------------------------
 1/8=10,10=7,18=40,26=3,29=7,38=1/1,3;
 2/12=2,15=1,29=3,40=1/2;
 3/5=44,7=101,11=2,14=-6,25=1,30=1,71=1,74=-5,116=-2/1,2,3;
 4/5=1/1;
 5/5=2,38=6/2;
 7/29=1,30=1/1,2,3,16;
 1/8=10,10=7,18=40,26=3/3(2);
 2/15=1,29=3/2;
 99//99;
 2/15=1,29=3/2;
 3/5=44,7=101,11=2,14=-2,25=1,30=1,71=1,74=-5/1,2,3;
 4/5=5,16=3,69=1/1;
 5/5=2,38=5/2;
 7/30=1/1,2,3,16;
 1/8=10,18=40,26=3/3(-5);
 2/15=1,29=3/2;
 99/9=1/99;
 Structure from the checkpoint file:  "checkpoint.chk"
 ------------------
 int_zmat_initalOpt
 ------------------
 Charge =  0 Multiplicity = 1
 Z-Matrix found in chk file.
 C
 C,1,R2
 S,1,R3,2,A3
 C,1,R4,2,A4,3,D4,0
 C,3,R5,1,A5,2,D5,0
 O,3,R6,1,A6,5,D6,0
 H,2,R7,1,A7,3,D7,0
 C,2,R8,1,A8,7,D8,0
 C,4,R9,1,A9,2,D9,0
 H,4,R10,1,A10,9,D10,0
 C,5,R11,3,A11,1,D11,0
 H,5,R12,3,A12,11,D12,0
 H,5,R13,3,A13,11,D13,0
 H,8,R14,2,A14,1,D14,0
 C,8,R15,2,A15,14,D15,0
 H,9,R16,4,A16,1,D16,0
 C,11,R17,5,A17,3,D17,0
 H,11,R18,5,A18,17,D18,0
 H,15,R19,8,A19,2,D19,0
 H,17,R20,11,A20,5,D20,0
 H,17,R21,11,A21,20,D21,0
      Variables:
 R2=1.38818065
 R3=1.81442078
 R4=1.39124076
 R5=1.86752878
 R6=1.48460126
 R7=1.08274933
 R8=1.39101434
 R9=1.38950872
 R10=1.08417789
 R11=1.48872384
 R12=1.09211125
 R13=1.09069423
 R14=1.08285502
 R15=1.39078799
 R16=1.08306613
 R17=1.32770035
 R18=1.08604721
 R19=1.08293304
 R20=1.08207371
 R21=1.08344467
 A3=118.33241929
 A4=121.01766743
 A5=96.25373265
 A6=106.97090317
 A7=118.92430514
 A8=119.24552088
 A9=119.39080707
 A10=120.37573963
 A11=110.17912344
 A12=106.01524829
 A13=105.13058735
 A14=119.66663728
 A15=120.2163816
 A16=119.80953228
 A17=124.03329147
 A18=116.38227682
 A19=119.97791455
 A20=121.4306662
 A21=121.65558509
 D4=176.45305475
 D5=-102.85246352
 D6=109.2268132
 D7=1.42719019
 D8=-179.11205957
 D9=1.41106131
 D10=-179.12960121
 D11=-177.2093349
 D12=122.07135111
 D13=-121.52133546
 D14=-180.12113739
 D15=-179.556019
 D16=180.05434493
 D17=-102.54760045
 D18=177.83753765
 D19=179.54371882
 D20=178.44692869
 D21=-179.3384728
 Recover connectivity data from disk.

 GradGradGradGradGradGradGradGradGradGradGradGradGradGradGradGradGradGrad
 Berny optimization.
 Initialization pass.
                       ----------------------------
                       !    Initial Parameters    !
                       ! (Angstroms and Degrees)  !
 ----------------------                            ----------------------
 !      Name          Value   Derivative information (Atomic Units)     !
 ------------------------------------------------------------------------
 !       R2          1.3882   estimate D2E/DX2                          !
 !       R3          1.8144   estimate D2E/DX2                          !
 !       R4          1.3912   estimate D2E/DX2                          !
 !       R5          1.8675   estimate D2E/DX2                          !
 !       R6          1.4846   estimate D2E/DX2                          !
 !       R7          1.0827   estimate D2E/DX2                          !
 !       R8          1.391    estimate D2E/DX2                          !
 !       R9          1.3895   estimate D2E/DX2                          !
 !       R10         1.0842   estimate D2E/DX2                          !
 !       R11         1.4887   estimate D2E/DX2                          !
 !       R12         1.0921   estimate D2E/DX2                          !
 !       R13         1.0907   estimate D2E/DX2                          !
 !       R14         1.0829   estimate D2E/DX2                          !
 !       R15         1.3908   estimate D2E/DX2                          !
 !       R16         1.0831   estimate D2E/DX2                          !
 !       R17         1.3277   estimate D2E/DX2                          !
 !       R18         1.086    estimate D2E/DX2                          !
 !       R19         1.0829   estimate D2E/DX2                          !
 !       R20         1.0821   estimate D2E/DX2                          !
 !       R21         1.0834   estimate D2E/DX2                          !
 !       A3        118.3324   estimate D2E/DX2                          !
 !       A4        121.0177   estimate D2E/DX2                          !
 !       A5         96.2537   estimate D2E/DX2                          !
 !       A6        106.9709   estimate D2E/DX2                          !
 !       A7        118.9243   estimate D2E/DX2                          !
 !       A8        119.2455   estimate D2E/DX2                          !
 !       A9        119.3908   estimate D2E/DX2                          !
 !       A10       120.3757   estimate D2E/DX2                          !
 !       A11       110.1791   estimate D2E/DX2                          !
 !       A12       106.0152   estimate D2E/DX2                          !
 !       A13       105.1306   estimate D2E/DX2                          !
 !       A14       119.6666   estimate D2E/DX2                          !
 !       A15       120.2164   estimate D2E/DX2                          !
 !       A16       119.8095   estimate D2E/DX2                          !
 !       A17       124.0333   estimate D2E/DX2                          !
 !       A18       116.3823   estimate D2E/DX2                          !
 !       A19       119.9779   estimate D2E/DX2                          !
 !       A20       121.4307   estimate D2E/DX2                          !
 !       A21       121.6556   estimate D2E/DX2                          !
 !       D4        176.4531   estimate D2E/DX2                          !
 !       D5       -102.8525   estimate D2E/DX2                          !
 !       D6        109.2268   estimate D2E/DX2                          !
 !       D7          1.4272   estimate D2E/DX2                          !
 !       D8       -179.1121   estimate D2E/DX2                          !
 !       D9          1.4111   estimate D2E/DX2                          !
 !       D10      -179.1296   estimate D2E/DX2                          !
 !       D11      -177.2093   estimate D2E/DX2                          !
 !       D12       122.0714   estimate D2E/DX2                          !
 !       D13      -121.5213   estimate D2E/DX2                          !
 !       D14      -180.1211   estimate D2E/DX2                          !
 !       D15      -179.556    estimate D2E/DX2                          !
 !       D16       180.0543   estimate D2E/DX2                          !
 !       D17      -102.5476   estimate D2E/DX2                          !
 !       D18       177.8375   estimate D2E/DX2                          !
 !       D19       179.5437   estimate D2E/DX2                          !
 !       D20       178.4469   estimate D2E/DX2                          !
 !       D21      -179.3385   estimate D2E/DX2                          !
 ------------------------------------------------------------------------
 Trust Radius=1.00D-01 FncErr=1.00D-07 GrdErr=1.00D-06 EigMax=2.50D+02 EigMin=1.00D-04
 Number of steps in this run=     67 maximum allowed number of steps=    114.
 GradGradGradGradGradGradGradGradGradGradGradGradGradGradGradGradGradGrad

 ---------------------------------------------------------------------------------------------------
                            Z-MATRIX (ANGSTROMS AND DEGREES)
   CD    Cent   Atom    N1       Length/X        N2       Alpha/Y        N3        Beta/Z          J
 ---------------------------------------------------------------------------------------------------
      1      1  C 
      2      2  C        1   1.388181(     1)
      3      3  S        1   1.814421(     2)      2  118.332(    21)
      4      4  C        1   1.391241(     3)      2  121.018(    22)      3  176.453(    40)      0
      5      5  C        3   1.867529(     4)      1   96.254(    23)      2 -102.852(    41)      0
      6      6  O        3   1.484601(     5)      1  106.971(    24)      5  109.227(    42)      0
      7      7  H        2   1.082749(     6)      1  118.924(    25)      3    1.427(    43)      0
      8      8  C        2   1.391014(     7)      1  119.246(    26)      7 -179.112(    44)      0
      9      9  C        4   1.389509(     8)      1  119.391(    27)      2    1.411(    45)      0
     10     10  H        4   1.084178(     9)      1  120.376(    28)      9 -179.130(    46)      0
     11     11  C        5   1.488724(    10)      3  110.179(    29)      1 -177.209(    47)      0
     12     12  H        5   1.092111(    11)      3  106.015(    30)     11  122.071(    48)      0
     13     13  H        5   1.090694(    12)      3  105.131(    31)     11 -121.521(    49)      0
     14     14  H        8   1.082855(    13)      2  119.667(    32)      1 -180.121(    50)      0
     15     15  C        8   1.390788(    14)      2  120.216(    33)     14 -179.556(    51)      0
     16     16  H        9   1.083066(    15)      4  119.810(    34)      1  180.054(    52)      0
     17     17  C       11   1.327700(    16)      5  124.033(    35)      3 -102.548(    53)      0
     18     18  H       11   1.086047(    17)      5  116.382(    36)     17  177.838(    54)      0
     19     19  H       15   1.082933(    18)      8  119.978(    37)      2  179.544(    55)      0
     20     20  H       17   1.082074(    19)     11  121.431(    38)      5  178.447(    56)      0
     21     21  H       17   1.083445(    20)     11  121.656(    39)     20 -179.338(    57)      0
 ---------------------------------------------------------------------------------------------------
                         Z-Matrix orientation:                         
 ---------------------------------------------------------------------
 Center     Atomic      Atomic             Coordinates (Angstroms)
 Number     Number       Type             X           Y           Z
 ---------------------------------------------------------------------
      1          6           0        0.000000    0.000000    0.000000
      2          6           0        0.000000    0.000000    1.388181
      3         16           0        1.597069    0.000000   -0.861099
      4          6           0       -1.190021   -0.073764   -0.716910
      5          6           0        1.580156    1.809905   -1.321122
      6          8           0        2.648218   -0.157649    0.175373
      7          1           0        0.947393    0.023604    1.911856
      8          6           0       -1.212717   -0.049029    2.067765
      9          6           0       -2.397635   -0.118747   -0.031066
     10          1           0       -1.175976   -0.110199   -1.800384
     11          6           0        2.781262    2.144245   -2.134670
     12          1           0        0.646988    1.974043   -1.864228
     13          1           0        1.556112    2.344936   -0.370976
     14          1           0       -1.220590   -0.051338    3.150589
     15          6           0       -2.409330   -0.104183    1.361107
     16          1           0       -3.328066   -0.177118   -0.582358
     17          6           0        3.850298    2.771275   -1.658451
     18          1           0        2.770742    1.813715   -3.169144
     19          1           0       -3.350910   -0.149701    1.894116
     20          1           0        4.711530    2.971480   -2.282215
     21          1           0        3.905946    3.096652   -0.626519
 ---------------------------------------------------------------------
                    Distance matrix (angstroms):
                    1          2          3          4          5
     1  C    0.000000
     2  C    1.388181   0.000000
     3  S    1.814421   2.758603   0.000000
     4  C    1.391241   2.419297   2.791793   0.000000
     5  C    2.741899   3.621184   1.867529   3.403992   0.000000
     6  O    2.658696   2.916987   1.484601   3.941482   2.692865
     7  H    2.133847   1.082749   2.848143   3.389458   3.747454
     8  C    2.397653   1.391014   4.059008   2.784877   4.768682
     9  C    2.400774   2.788730   4.081754   1.389509   4.605080
    10  H    2.153241   3.400295   2.929877   1.084178   3.393045
    11  C    4.109747   4.974302   2.760812   4.764525   1.488724
    12  H    2.791197   3.859222   2.409516   2.980680   1.092111
    13  H    2.838632   3.318861   2.395960   3.675734   1.090694
    14  H    3.379155   2.144425   4.902599   3.867684   5.595052
    15  C    2.769176   2.411734   4.582607   2.409521   5.174368
    16  H    3.383273   3.871746   4.936196   2.144766   5.346464
    17  C    5.025457   5.637972   3.659614   5.863920   2.488286
    18  H    4.583672   5.633452   3.161351   5.026298   2.198339
    19  H    3.852101   3.392194   5.665344   3.390083   6.204291
    20  H    6.019694   6.670833   4.533115   6.822902   3.475408
    21  H    5.023763   5.376308   3.869780   6.002382   2.747271
                    6          7          8          9         10
     6  O    0.000000
     7  H    2.437423   0.000000
     8  C    4.301135   2.166946   0.000000
     9  C    5.050223   3.870971   2.411220   0.000000
    10  H    4.304686   4.278706   3.868807   2.150118   0.000000
    11  C    3.263850   4.922862   6.198611   6.030526   4.566617
    12  H    3.564969   4.260665   4.797070   4.124315   2.769717
    13  H    2.784622   3.312166   4.398288   4.670908   3.941471
    14  H    4.881688   2.498044   1.082855   3.393068   4.951524
    15  C    5.194960   3.404004   1.390788   1.392298   3.393556
    16  H    6.024160   4.953881   3.393267   1.083066   2.473775
    17  C    3.658757   5.359445   6.890059   7.073703   5.795383
    18  H    3.884210   5.687325   6.838346   6.347760   4.599079
    19  H    6.240487   4.301832   2.147594   2.148493   4.287334
    20  H    4.482014   6.359948   7.946225   8.072013   6.662704
    21  H    3.579858   4.963871   6.584465   7.101302   6.122727
                   11         12         13         14         15
    11  C    0.000000
    12  H    2.158062   0.000000
    13  H    2.156823   1.787140   0.000000
    14  H    6.983506   5.721748   5.084645   0.000000
    15  C    6.649671   4.905393   4.972225   2.148986   0.000000
    16  H    6.717313   4.698057   5.500967   4.288609   2.150918
    17  C    1.327700   3.307434   2.665079   7.537102   7.521232
    18  H    1.086047   2.497768   3.096331   7.703777   7.143854
    19  H    7.687447   5.883759   5.952539   2.475210   1.082933
    20  H    2.105237   4.205960   3.741932   8.593185   8.569723
    21  H    2.108676   3.662375   2.480343   7.103362   7.353824
                   16         17         18         19         20
    16  H    0.000000
    17  C    7.834533   0.000000
    18  H    6.917394   2.089152   0.000000
    19  H    2.476731   8.544603   8.183290   0.000000
    20  H    8.799903   1.082074   2.427699   9.601378   0.000000
    21  H    7.940432   1.083445   3.065871   8.339927   1.845525
                   21
    21  H    0.000000
 Symmetry turned off by external request.
 Stoichiometry    C9H10OS
 Framework group  C1[X(C9H10OS)]
 Deg. of freedom    57
 Full point group                 C1      NOp   1
 Rotational constants (GHZ):           2.3503233           0.5235307           0.4875278
 Standard basis: def2TZVP (5D, 7F)
 The following finite field(s) will be applied:
 An electric field of             -0.0049  0.0010 -0.0003
   407 basis functions,   659 primitive gaussians,   462 cartesian basis functions
    44 alpha electrons       44 beta electrons
       nuclear repulsion energy       664.6710793823 Hartrees.
 NAtoms=   21 NActive=   21 NUniq=   21 SFac= 1.00D+00 NAtFMM=   60 NAOKFM=F Big=F
 Integral buffers will be    131072 words long.
 Raffenetti 2 integral format.
 Two-electron integral symmetry is turned off.
 One-electron integrals computed using PRISM.
   1 Symmetry operations used in ECPInt.
 ECPInt:  NShTT=   13366 NPrTT=   41614 LenC2=   12466 LenP2D=   29243.
 LDataN:  DoStor=T MaxTD1= 6 Len=  172
 NBasis=   407 RedAO= T EigKep=  8.67D-06  NBF=   407
 NBsUse=   407 1.00D-06 EigRej= -1.00D+00 NBFU=   407
 The nuclear repulsion energy is now       664.2394577109 hartrees.
 Initial guess from the checkpoint file:  "checkpoint.chk"
 B after Tr=     0.000000   -0.000000    0.000000
         Rot=    1.000000    0.000000    0.000000    0.000000 Ang=   0.00 deg.
 Requested convergence on RMS density matrix=1.00D-08 within 128 cycles.
 Requested convergence on MAX density matrix=1.00D-06.
 Requested convergence on             energy=1.00D-06.
 No special actions if energy rises.
 SCF Done:  E(RB3LYP) =  -822.527720359     A.U. after   11 cycles
            NFock= 11  Conv=0.37D-08     -V/T= 2.0035
   1 Symmetry operations used in ECPInt.
 ECPInt:  NShTT=   13366 NPrTT=   41614 LenC2=   12466 LenP2D=   29243.
 LDataN:  DoStor=T MaxTD1= 7 Len=  274
 Calling FoFJK, ICntrl=      2127 FMM=F ISym2X=0 I1Cent= 0 IOpClX= 0 NMat=1 NMatS=1 NMatT=0.
 -------------------------------------------------------------------
 Center     Atomic                   Forces (Hartrees/Bohr)
 Number     Number              X              Y              Z
 -------------------------------------------------------------------
      1        6           0.000292015    0.000891548   -0.000199916
      2        6          -0.000750285   -0.000219726    0.000121029
      3       16           0.002815068   -0.001079942    0.000744791
      4        6          -0.000370909    0.000092340    0.000330079
      5        6          -0.000105694    0.000305645    0.000135138
      6        8          -0.002167135    0.000267893   -0.001117639
      7        1           0.000210567   -0.000058199   -0.000047727
      8        6          -0.000026958    0.000035163    0.000113355
      9        6           0.000196364    0.000080977    0.000074552
     10        1           0.000211364   -0.000042551   -0.000021648
     11        6           0.000088755    0.000026911   -0.000353699
     12        1          -0.000266785   -0.000019822   -0.000139891
     13        1           0.000106884    0.000031726    0.000097170
     14        1           0.000113538   -0.000055007    0.000059003
     15        6           0.000016268    0.000114459   -0.000084980
     16        1          -0.000270980   -0.000098543   -0.000195095
     17        6          -0.000133330    0.000144588    0.000015174
     18        1           0.000057192   -0.000114191    0.000058497
     19        1          -0.000203322   -0.000098036    0.000213254
     20        1           0.000005100   -0.000097077    0.000166234
     21        1           0.000182282   -0.000108154    0.000032320
 -------------------------------------------------------------------
 Cartesian Forces:  Max     0.002815068 RMS     0.000540360
 -----------------------------------------------------------------------------------------------
                       Internal Coordinate Forces (Hartree/Bohr or radian)
  Cent   Atom   N1       Length/X         N2         Alpha/Y        N3         Beta/Z          J
 -----------------------------------------------------------------------------------------------
      1  C 
      2  C        1   0.000374(     1)
      3  S        1   0.000684(     2)      2  -0.002140(    21)
      4  C        1   0.000102(     3)      2   0.000118(    22)      3  -0.000085(    40)     0
      5  C        3   0.000162(     4)      1   0.000579(    23)      2   0.000299(    41)     0
      6  O        3  -0.002343(     5)      1  -0.002033(    24)      5  -0.000115(    42)     0
      7  H        2   0.000160(     6)      1  -0.000292(    25)      3  -0.000013(    43)     0
      8  C        2   0.000235(     7)      1   0.001499(    26)      7   0.000100(    44)     0
      9  C        4   0.000006(     8)      1   0.000433(    27)      2   0.000062(    45)     0
     10  H        4   0.000026(     9)      1  -0.000428(    28)      9   0.000089(    46)     0
     11  C        5   0.000173(    10)      3  -0.000890(    29)      1  -0.000089(    47)     0
     12  H        5   0.000295(    11)      3  -0.000137(    30)     11  -0.000002(    48)     0
     13  H        5   0.000098(    12)      3  -0.000042(    31)     11   0.000217(    49)     0
     14  H        8   0.000058(    13)      2  -0.000229(    32)      1  -0.000159(    50)     0
     15  C        8   0.000095(    14)      2   0.000710(    33)     14  -0.000054(    51)     0
     16  H        9   0.000337(    15)      4  -0.000060(    34)      1   0.000143(    52)     0
     17  C       11   0.000092(    16)      5  -0.000356(    35)      3   0.000325(    53)     0
     18  H       11  -0.000022(    17)      5  -0.000004(    36)     17  -0.000255(    54)     0
     19  H       15   0.000286(    18)      8  -0.000171(    37)      2  -0.000156(    55)     0
     20  H       17  -0.000110(    19)     11   0.000180(    38)      5   0.000078(    56)     0
     21  H       17   0.000008(    20)     11   0.000248(    39)     20   0.000308(    57)     0
 -----------------------------------------------------------------------------------------------
 Internal  Forces:  Max     0.002343131 RMS     0.000599601

 GradGradGradGradGradGradGradGradGradGradGradGradGradGradGradGradGradGrad
 Berny optimization.
 Search for a local minimum.
 Step number   1 out of a maximum of   67
 All quantities printed in internal units (Hartrees-Bohrs-Radians)
 Second derivative matrix not updated -- first step.
 ITU=  0
     Eigenvalues ---    0.02967   0.03189   0.03802   0.04564   0.05257
     Eigenvalues ---    0.05930   0.06029   0.07143   0.09070   0.09574
     Eigenvalues ---    0.13808   0.14020   0.15567   0.17336   0.17642
     Eigenvalues ---    0.19618   0.20506   0.21445   0.21488   0.23640
     Eigenvalues ---    0.24179   0.25013   0.25111   0.25202   0.27572
     Eigenvalues ---    0.29356   0.29984   0.30215   0.33590   0.34570
     Eigenvalues ---    0.34732   0.35273   0.35494   0.35581   0.35626
     Eigenvalues ---    0.35642   0.35652   0.35664   0.35745   0.36062
     Eigenvalues ---    0.38797   0.39394   0.45867   0.47134   0.47230
     Eigenvalues ---    0.47441   0.48115   0.49613   0.49848   0.57279
     Eigenvalues ---    0.60050   0.60164   0.73604   0.82013   2.86375
     Eigenvalues ---    4.19315  26.31355
 RFO step:  Lambda=-4.36283095D-05 EMin= 2.96726204D-02
 Linear search not attempted -- first point.
 Variable       Old X    -DE/DX   Delta X   Delta X   Delta X     New X
                                 (Linear)    (Quad)   (Total)
    R2        2.62328   0.00037   0.00000   0.00022   0.00022   2.62350
    R3        3.42876   0.00068   0.00000   0.00273   0.00273   3.43149
    R4        2.62906   0.00010   0.00000   0.00005   0.00005   2.62912
    R5        3.52912   0.00016   0.00000   0.00077   0.00077   3.52988
    R6        2.80549  -0.00234   0.00000  -0.00284  -0.00284   2.80265
    R7        2.04610   0.00016   0.00000   0.00045   0.00045   2.04655
    R8        2.62864   0.00023   0.00000   0.00008   0.00008   2.62872
    R9        2.62579   0.00001   0.00000   0.00043   0.00043   2.62622
   R10        2.04880   0.00003   0.00000   0.00007   0.00007   2.04887
   R11        2.81328   0.00017   0.00000   0.00051   0.00051   2.81379
   R12        2.06379   0.00029   0.00000   0.00085   0.00085   2.06464
   R13        2.06111   0.00010   0.00000   0.00028   0.00028   2.06139
   R14        2.04630   0.00006   0.00000   0.00017   0.00017   2.04647
   R15        2.62821   0.00010   0.00000   0.00036   0.00036   2.62857
   R16        2.04670   0.00034   0.00000   0.00095   0.00095   2.04765
   R17        2.50899   0.00009   0.00000   0.00015   0.00015   2.50914
   R18        2.05233  -0.00002   0.00000  -0.00006  -0.00006   2.05228
   R19        2.04645   0.00029   0.00000   0.00080   0.00080   2.04725
   R20        2.04482  -0.00011   0.00000  -0.00030  -0.00030   2.04452
   R21        2.04741   0.00001   0.00000   0.00002   0.00002   2.04743
    A3        2.06529  -0.00214   0.00000  -0.00326  -0.00326   2.06203
    A4        2.11216   0.00012   0.00000  -0.00066  -0.00066   2.11149
    A5        1.67994   0.00058   0.00000   0.00145   0.00145   1.68140
    A6        1.86699  -0.00203   0.00000  -0.00747  -0.00747   1.85953
    A7        2.07562  -0.00029   0.00000  -0.00127  -0.00127   2.07435
    A8        2.08123   0.00150   0.00000   0.00073   0.00073   2.08196
    A9        2.08376   0.00043   0.00000   0.00035   0.00035   2.08411
   A10        2.10095  -0.00043   0.00000  -0.00154  -0.00154   2.09941
   A11        1.92299  -0.00089   0.00000  -0.00250  -0.00250   1.92049
   A12        1.85032  -0.00014   0.00000   0.00054   0.00054   1.85086
   A13        1.83487  -0.00004   0.00000  -0.00001  -0.00001   1.83487
   A14        2.08858  -0.00023   0.00000  -0.00066  -0.00066   2.08792
   A15        2.09817   0.00071   0.00000  -0.00016  -0.00016   2.09801
   A16        2.09107  -0.00006   0.00000  -0.00023  -0.00023   2.09084
   A17        2.16479  -0.00036   0.00000  -0.00058  -0.00058   2.16421
   A18        2.03125  -0.00000   0.00000   0.00017   0.00017   2.03143
   A19        2.09401  -0.00017   0.00000  -0.00045  -0.00045   2.09356
   A20        2.11936   0.00018   0.00000  -0.00008  -0.00008   2.11929
   A21        2.12329   0.00025   0.00000   0.00091   0.00091   2.12420
    D4        3.07969  -0.00009   0.00000  -0.00238  -0.00238   3.07731
    D5       -1.79511   0.00030   0.00000   0.00257   0.00257  -1.79254
    D6        1.90637  -0.00011   0.00000  -0.00169  -0.00169   1.90467
    D7        0.02491  -0.00001   0.00000   0.00118   0.00118   0.02609
    D8       -3.12610   0.00010   0.00000   0.00198   0.00198  -3.12411
    D9        0.02463   0.00006   0.00000  -0.00115  -0.00115   0.02348
   D10       -3.12640   0.00009   0.00000   0.00237   0.00237  -3.12403
   D11       -3.09289  -0.00009   0.00000   0.00012   0.00012  -3.09276
   D12        2.13055  -0.00000   0.00000   0.00036   0.00036   2.13090
   D13       -2.12095   0.00022   0.00000   0.00179   0.00179  -2.11916
   D14       -3.14371  -0.00016   0.00000  -0.00191  -0.00191  -3.14562
   D15       -3.13384  -0.00005   0.00000   0.00195   0.00195  -3.13189
   D16        3.14254   0.00014   0.00000   0.00307   0.00307   3.14561
   D17       -1.78979   0.00033   0.00000   0.00446   0.00446  -1.78533
   D18        3.10385  -0.00026   0.00000  -0.00321  -0.00321   3.10064
   D19        3.13363  -0.00016   0.00000  -0.00294  -0.00294   3.13069
   D20        3.11449   0.00008   0.00000  -0.00185  -0.00185   3.11264
   D21       -3.13005   0.00031   0.00000   0.00254   0.00254  -3.12750
         Item               Value     Threshold  Converged?
 Maximum Force            0.002343     0.000450     NO 
 RMS     Force            0.000600     0.000300     NO 
 Maximum Displacement     0.007467     0.001800     NO 
 RMS     Displacement     0.001863     0.001200     NO 
 Predicted change in Energy=-2.181415D-05
 GradGradGradGradGradGradGradGradGradGradGradGradGradGradGradGradGradGrad

 ---------------------------------------------------------------------------------------------------
                            Z-MATRIX (ANGSTROMS AND DEGREES)
   CD    Cent   Atom    N1       Length/X        N2       Alpha/Y        N3        Beta/Z          J
 ---------------------------------------------------------------------------------------------------
      1      1  C 
      2      2  C        1   1.388295(     1)
      3      3  S        1   1.815867(     2)      2  118.145(    21)
      4      4  C        1   1.391268(     3)      2  120.980(    22)      3  176.317(    40)      0
      5      5  C        3   1.867934(     4)      1   96.337(    23)      2 -102.705(    41)      0
      6      6  O        3   1.483098(     5)      1  106.543(    24)      5  109.130(    42)      0
      7      7  H        2   1.082986(     6)      1  118.852(    25)      3    1.495(    43)      0
      8      8  C        2   1.391057(     7)      1  119.288(    26)      7 -178.998(    44)      0
      9      9  C        4   1.389735(     8)      1  119.411(    27)      2    1.345(    45)      0
     10     10  H        4   1.084217(     9)      1  120.287(    28)      9 -178.994(    46)      0
     11     11  C        5   1.488995(    10)      3  110.036(    29)      1 -177.202(    47)      0
     12     12  H        5   1.092563(    11)      3  106.046(    30)     11  122.092(    48)      0
     13     13  H        5   1.090843(    12)      3  105.130(    31)     11 -121.419(    49)      0
     14     14  H        8   1.082943(    13)      2  119.629(    32)      1 -180.231(    50)      0
     15     15  C        8   1.390978(    14)      2  120.207(    33)     14 -179.444(    51)      0
     16     16  H        9   1.083568(    15)      4  119.797(    34)      1  180.230(    52)      0
     17     17  C       11   1.327778(    16)      5  124.000(    35)      3 -102.292(    53)      0
     18     18  H       11   1.086018(    17)      5  116.392(    36)     17  177.653(    54)      0
     19     19  H       15   1.083359(    18)      8  119.952(    37)      2  179.375(    55)      0
     20     20  H       17   1.081915(    19)     11  121.426(    38)      5  178.341(    56)      0
     21     21  H       17   1.083454(    20)     11  121.708(    39)     20 -179.193(    57)      0
 ---------------------------------------------------------------------------------------------------
                         Z-Matrix orientation:                         
 ---------------------------------------------------------------------
 Center     Atomic      Atomic             Coordinates (Angstroms)
 Number     Number       Type             X           Y           Z
 ---------------------------------------------------------------------
      1          6           0        0.000000    0.000000    0.000000
      2          6           0        0.000000    0.000000    1.388295
      3         16           0        1.601146    0.000000   -0.856566
      4          6           0       -1.190340   -0.076624   -0.716133
      5          6           0        1.590340    1.811064   -1.313848
      6          8           0        2.639927   -0.159087    0.189954
      7          1           0        0.948234    0.024745    1.910884
      8          6           0       -1.212094   -0.052847    2.068792
      9          6           0       -2.397751   -0.125864   -0.029767
     10          1           0       -1.175202   -0.114147   -1.799595
     11          6           0        2.796436    2.140213   -2.122614
     12          1           0        0.659056    1.979122   -1.859889
     13          1           0        1.566219    2.344726   -0.362764
     14          1           0       -1.218376   -0.056916    3.151709
     15          6           0       -2.409091   -0.111864    1.362721
     16          1           0       -3.328365   -0.189381   -0.581167
     17          6           0        3.868127    2.757914   -1.639999
     18          1           0        2.788203    1.811205   -3.157563
     19          1           0       -3.350208   -0.163111    1.896891
     20          1           0        4.733416    2.953209   -2.259415
     21          1           0        3.923517    3.078398   -0.606513
 ---------------------------------------------------------------------
                    Distance matrix (angstroms):
                    1          2          3          4          5
     1  C    0.000000
     2  C    1.388295   0.000000
     3  S    1.815867   2.757367   0.000000
     4  C    1.391268   2.418967   2.796066   0.000000
     5  C    2.745056   3.620872   1.867934   3.413622   0.000000
     6  O    2.651529   2.903540   1.483098   3.936844   2.691571
     7  H    2.133363   1.082986   2.843534   3.388951   3.741943
     8  C    2.398304   1.391057   4.058920   2.785111   4.771798
     9  C    2.401237   2.788539   4.085415   1.389735   4.615780
    10  H    2.152364   3.399526   2.934355   1.084217   3.404499
    11  C    4.111697   4.972630   2.759004   4.773566   1.488995
    12  H    2.794721   3.860308   2.410625   2.992413   1.092563
    13  H    2.842952   3.319185   2.396414   3.685976   1.090843
    14  H    3.379489   2.144133   4.900940   3.867994   5.596377
    15  C    2.770062   2.411822   4.584730   2.410027   5.182386
    16  H    3.384027   3.872036   4.940829   2.145247   5.360249
    17  C    5.025743   5.633743   3.655005   5.871645   2.488214
    18  H    4.585275   5.631995   3.159771   5.035204   2.198673
    19  H    3.853401   3.392517   5.667808   3.391225   6.214116
    20  H    6.019271   6.665768   4.527752   6.830262   3.475272
    21  H    5.023781   5.371199   3.864256   6.009802   2.747758
                    6          7          8          9         10
     6  O    0.000000
     7  H    2.420169   0.000000
     8  C    4.287118   2.167480   0.000000
     9  C    5.042577   3.870972   2.411445   0.000000
    10  H    4.302969   4.277374   3.869048   2.151059   0.000000
    11  C    3.264850   4.915298   6.200459   6.041083   4.578251
    12  H    3.563376   4.256987   4.802565   4.138161   2.783866
    13  H    2.779825   3.306613   4.402253   4.682708   3.952964
    14  H    4.865073   2.498102   1.082943   3.393740   4.951823
    15  C    5.183647   3.404522   1.390978   1.392605   3.394515
    16  H    6.017978   4.954338   3.394043   1.083568   2.475145
    17  C    3.655967   5.348342   6.889423   7.083096   5.805977
    18  H    3.887147   5.680324   6.840457   6.358417   4.610817
    19  H    6.228593   4.302568   2.147846   2.149553   4.289180
    20  H    4.479787   6.347826   7.944736   8.081185   6.673220
    21  H    3.572572   4.951202   6.583042   7.110440   6.132921
                   11         12         13         14         15
    11  C    0.000000
    12  H    2.159483   0.000000
    13  H    2.156927   1.788294   0.000000
    14  H    6.983163   5.725933   5.086587   0.000000
    15  C    6.657095   4.916397   4.981487   2.149721   0.000000
    16  H    6.731735   4.715619   5.516009   4.289984   2.151691
    17  C    1.327778   3.309533   2.664740   7.533674   7.526979
    18  H    1.086018   2.499085   3.096578   7.703861   7.151436
    19  H    7.696945   5.897182   5.963769   2.475996   1.083359
    20  H    2.105129   4.208191   3.741480   8.588652   8.574960
    21  H    2.109281   3.665524   2.480835   7.098837   7.359183
                   16         17         18         19         20
    16  H    0.000000
    17  C    7.848387   0.000000
    18  H    6.931997   2.089377   0.000000
    19  H    2.478293   8.552564   8.193017   0.000000
    20  H    8.813893   1.081915   2.427899   9.608918   0.000000
    21  H    7.954170   1.083454   3.066362   8.347544   1.844911
                   21
    21  H    0.000000
 Symmetry turned off by external request.
 Stoichiometry    C9H10OS
 Framework group  C1[X(C9H10OS)]
 Deg. of freedom    57
 Full point group                 C1      NOp   1
 Rotational constants (GHZ):           2.3599230           0.5230389           0.4871600
 Standard basis: def2TZVP (5D, 7F)
 The following finite field(s) will be applied:
 An electric field of             -0.0049  0.0010 -0.0003
   407 basis functions,   659 primitive gaussians,   462 cartesian basis functions
    44 alpha electrons       44 beta electrons
       nuclear repulsion energy       664.6977594499 Hartrees.
 NAtoms=   21 NActive=   21 NUniq=   21 SFac= 1.00D+00 NAtFMM=   60 NAOKFM=F Big=F
 Integral buffers will be    131072 words long.
 Raffenetti 2 integral format.
 Two-electron integral symmetry is turned off.
 One-electron integrals computed using PRISM.
   1 Symmetry operations used in ECPInt.
 ECPInt:  NShTT=   13366 NPrTT=   41614 LenC2=   12467 LenP2D=   29242.
 LDataN:  DoStor=T MaxTD1= 6 Len=  172
 NBasis=   407 RedAO= T EigKep=  8.68D-06  NBF=   407
 NBsUse=   407 1.00D-06 EigRej= -1.00D+00 NBFU=   407
 The nuclear repulsion energy is now       664.2620989313 hartrees.
 Initial guess from the checkpoint file:  "checkpoint.chk"
 B after Tr=     0.004908   -0.005520    0.006915
         Rot=    0.999999   -0.000549    0.001211    0.000630 Ang=  -0.17 deg.
 Requested convergence on RMS density matrix=1.00D-08 within 128 cycles.
 Requested convergence on MAX density matrix=1.00D-06.
 Requested convergence on             energy=1.00D-06.
 No special actions if energy rises.
 SCF Done:  E(RB3LYP) =  -822.527746169     A.U. after   10 cycles
            NFock= 10  Conv=0.71D-08     -V/T= 2.0035
   1 Symmetry operations used in ECPInt.
 ECPInt:  NShTT=   13366 NPrTT=   41614 LenC2=   12467 LenP2D=   29242.
 LDataN:  DoStor=T MaxTD1= 7 Len=  274
 Calling FoFJK, ICntrl=      2127 FMM=F ISym2X=0 I1Cent= 0 IOpClX= 0 NMat=1 NMatS=1 NMatT=0.
 -------------------------------------------------------------------
 Center     Atomic                   Forces (Hartrees/Bohr)
 Number     Number              X              Y              Z
 -------------------------------------------------------------------
      1        6           0.000013498    0.000915151   -0.000379194
      2        6          -0.000582581   -0.000259991    0.000143850
      3       16           0.001041945   -0.000656481    0.000853998
      4        6          -0.000138813    0.000031354    0.000277908
      5        6          -0.000162520    0.000134072   -0.000095755
      6        8          -0.000324658   -0.000035011   -0.000558209
      7        1           0.000006763   -0.000047565   -0.000051748
      8        6           0.000011813    0.000018629   -0.000036155
      9        6           0.000002686   -0.000001619    0.000041764
     10        1           0.000018363    0.000004626   -0.000019996
     11        6           0.000035889    0.000063938   -0.000151508
     12        1           0.000009571   -0.000003656   -0.000016938
     13        1           0.000006809   -0.000069873    0.000003002
     14        1           0.000025010   -0.000009411   -0.000005258
     15        6          -0.000016491    0.000022353   -0.000094369
     16        1           0.000002270   -0.000004480   -0.000004475
     17        6          -0.000090239    0.000013449    0.000010956
     18        1           0.000020276    0.000008955    0.000016665
     19        1           0.000004729   -0.000010722   -0.000002402
     20        1           0.000080692   -0.000077019    0.000061689
     21        1           0.000034987   -0.000036698    0.000006174
 -------------------------------------------------------------------
 Cartesian Forces:  Max     0.001041945 RMS     0.000261436
 -----------------------------------------------------------------------------------------------
                       Internal Coordinate Forces (Hartree/Bohr or radian)
  Cent   Atom   N1       Length/X         N2         Alpha/Y        N3         Beta/Z          J
 -----------------------------------------------------------------------------------------------
      1  C 
      2  C        1  -0.000046(     1)
      3  S        1   0.000514(     2)      2  -0.001272(    21)
      4  C        1  -0.000055(     3)      2  -0.000862(    22)      3   0.000060(    40)     0
      5  C        3   0.000073(     4)      1   0.000450(    23)      2   0.000164(    41)     0
      6  O        3  -0.000618(     5)      1   0.000447(    24)      5   0.000287(    42)     0
      7  H        2  -0.000020(     6)      1  -0.000098(    25)      3  -0.000139(    43)     0
      8  C        2  -0.000090(     7)      1  -0.000437(    26)      7  -0.000053(    44)     0
      9  C        4   0.000014(     8)      1  -0.000081(    27)      2  -0.000024(    45)     0
     10  H        4   0.000020(     9)      1  -0.000037(    28)      9  -0.000008(    46)     0
     11  C        5   0.000090(    10)      3  -0.000434(    29)      1  -0.000193(    47)     0
     12  H        5  -0.000000(    11)      3   0.000001(    30)     11  -0.000039(    48)     0
     13  H        5  -0.000032(    12)      3  -0.000129(    31)     11   0.000012(    49)     0
     14  H        8  -0.000005(    13)      2  -0.000050(    32)      1  -0.000047(    50)     0
     15  C        8   0.000059(    14)      2  -0.000204(    33)     14  -0.000029(    51)     0
     16  H        9   0.000001(    15)      4  -0.000010(    34)      1   0.000008(    52)     0
     17  C       11   0.000003(    16)      5  -0.000211(    35)      3   0.000312(    53)     0
     18  H       11  -0.000019(    17)      5   0.000041(    36)     17  -0.000010(    54)     0
     19  H       15  -0.000005(    18)      8  -0.000000(    37)      2  -0.000019(    55)     0
     20  H       17   0.000015(    19)     11   0.000105(    38)      5  -0.000119(    56)     0
     21  H       17  -0.000003(    20)     11   0.000036(    39)     20   0.000083(    57)     0
 -----------------------------------------------------------------------------------------------
 Internal  Forces:  Max     0.001271868 RMS     0.000273235

 GradGradGradGradGradGradGradGradGradGradGradGradGradGradGradGradGradGrad
 Berny optimization.
 Search for a local minimum.
 Step number   2 out of a maximum of   67
 All quantities printed in internal units (Hartrees-Bohrs-Radians)
 Update second derivatives using D2CorN and points    1    2
 DE= -2.58D-05 DEPred=-2.18D-05 R= 1.18D+00
 TightC=F SS=  1.41D+00  RLast= 1.41D-02 DXNew= 1.6818D-01 4.2203D-02
 Trust test= 1.18D+00 RLast= 1.41D-02 DXMaxT set to 1.00D-01
 ITU=  1  0
     Eigenvalues ---    0.02375   0.03348   0.03582   0.04403   0.05277
     Eigenvalues ---    0.05809   0.05943   0.07169   0.09045   0.09478
     Eigenvalues ---    0.13806   0.14021   0.15117   0.17319   0.18200
     Eigenvalues ---    0.19503   0.20527   0.21413   0.21537   0.23646
     Eigenvalues ---    0.23928   0.24475   0.25110   0.25271   0.28398
     Eigenvalues ---    0.29356   0.29973   0.30219   0.33568   0.34564
     Eigenvalues ---    0.34738   0.35273   0.35491   0.35581   0.35610
     Eigenvalues ---    0.35639   0.35652   0.35668   0.35748   0.35939
     Eigenvalues ---    0.38434   0.39379   0.45676   0.47134   0.47235
     Eigenvalues ---    0.47443   0.48116   0.49601   0.49826   0.57251
     Eigenvalues ---    0.60050   0.60103   0.72094   0.81336   2.86364
     Eigenvalues ---    4.19315  26.31384
 RFO step:  Lambda=-1.42513550D-05 EMin= 2.37450158D-02
 Quartic linear search produced a step of  0.21961.
 Variable       Old X    -DE/DX   Delta X   Delta X   Delta X     New X
                                 (Linear)    (Quad)   (Total)
    R2        2.62350  -0.00005   0.00005   0.00005   0.00010   2.62359
    R3        3.43149   0.00051   0.00060   0.00270   0.00330   3.43479
    R4        2.62912  -0.00005   0.00001  -0.00011  -0.00009   2.62902
    R5        3.52988   0.00007   0.00017   0.00044   0.00061   3.53049
    R6        2.80265  -0.00062  -0.00062  -0.00056  -0.00119   2.80146
    R7        2.04655  -0.00002   0.00010  -0.00014  -0.00004   2.04651
    R8        2.62872  -0.00009   0.00002  -0.00013  -0.00011   2.62861
    R9        2.62622   0.00001   0.00009  -0.00018  -0.00009   2.62613
   R10        2.04887   0.00002   0.00002   0.00007   0.00009   2.04896
   R11        2.81379   0.00009   0.00011   0.00032   0.00043   2.81423
   R12        2.06464  -0.00000   0.00019  -0.00011   0.00008   2.06473
   R13        2.06139  -0.00003   0.00006  -0.00017  -0.00011   2.06129
   R14        2.04647  -0.00001   0.00004  -0.00004  -0.00001   2.04646
   R15        2.62857   0.00006   0.00008   0.00006   0.00014   2.62871
   R16        2.04765   0.00000   0.00021  -0.00012   0.00009   2.04774
   R17        2.50914   0.00000   0.00003  -0.00003   0.00001   2.50914
   R18        2.05228  -0.00002  -0.00001  -0.00006  -0.00007   2.05220
   R19        2.04725  -0.00000   0.00018  -0.00012   0.00006   2.04731
   R20        2.04452   0.00002  -0.00007   0.00011   0.00004   2.04457
   R21        2.04743  -0.00000   0.00000  -0.00002  -0.00002   2.04741
    A3        2.06203  -0.00127  -0.00072  -0.00236  -0.00308   2.05895
    A4        2.11149  -0.00086  -0.00015   0.00003  -0.00012   2.11138
    A5        1.68140   0.00045   0.00032   0.00186   0.00218   1.68357
    A6        1.85953   0.00045  -0.00164   0.00345   0.00181   1.86133
    A7        2.07435  -0.00010  -0.00028  -0.00025  -0.00053   2.07383
    A8        2.08196  -0.00044   0.00016  -0.00024  -0.00008   2.08188
    A9        2.08411  -0.00008   0.00008   0.00020   0.00027   2.08438
   A10        2.09941  -0.00004  -0.00034  -0.00014  -0.00048   2.09893
   A11        1.92049  -0.00043  -0.00055  -0.00103  -0.00158   1.91891
   A12        1.85086   0.00000   0.00012   0.00151   0.00163   1.85249
   A13        1.83487  -0.00013  -0.00000  -0.00150  -0.00151   1.83336
   A14        2.08792  -0.00005  -0.00014  -0.00020  -0.00034   2.08757
   A15        2.09801  -0.00020  -0.00004   0.00012   0.00008   2.09809
   A16        2.09084  -0.00001  -0.00005   0.00005  -0.00000   2.09084
   A17        2.16421  -0.00021  -0.00013  -0.00026  -0.00038   2.16383
   A18        2.03143   0.00004   0.00004   0.00018   0.00022   2.03164
   A19        2.09356  -0.00000  -0.00010   0.00002  -0.00007   2.09349
   A20        2.11929   0.00010  -0.00002   0.00002   0.00001   2.11930
   A21        2.12420   0.00004   0.00020   0.00022   0.00042   2.12462
    D4        3.07731   0.00006  -0.00052   0.00153   0.00101   3.07832
    D5       -1.79254   0.00016   0.00057  -0.00114  -0.00058  -1.79312
    D6        1.90467   0.00029  -0.00037   0.00300   0.00263   1.90731
    D7        0.02609  -0.00014   0.00026  -0.00184  -0.00158   0.02451
    D8       -3.12411  -0.00005   0.00044   0.00113   0.00157  -3.12254
    D9        0.02348  -0.00002  -0.00025  -0.00171  -0.00197   0.02151
   D10       -3.12403  -0.00001   0.00052   0.00132   0.00184  -3.12219
   D11       -3.09276  -0.00019   0.00003  -0.00209  -0.00206  -3.09482
   D12        2.13090  -0.00004   0.00008   0.00119   0.00127   2.13217
   D13       -2.11916   0.00001   0.00039   0.00171   0.00211  -2.11705
   D14       -3.14562  -0.00005  -0.00042  -0.00151  -0.00193  -3.14755
   D15       -3.13189  -0.00003   0.00043   0.00198   0.00241  -3.12948
   D16        3.14561   0.00001   0.00067   0.00195   0.00263   3.14824
   D17       -1.78533   0.00031   0.00098   0.00957   0.01055  -1.77478
   D18        3.10064  -0.00001  -0.00071  -0.00405  -0.00476   3.09588
   D19        3.13069  -0.00002  -0.00065  -0.00189  -0.00254   3.12815
   D20        3.11264  -0.00012  -0.00041  -0.00454  -0.00495   3.10769
   D21       -3.12750   0.00008   0.00056   0.00234   0.00290  -3.12461
         Item               Value     Threshold  Converged?
 Maximum Force            0.001272     0.000450     NO 
 RMS     Force            0.000273     0.000300     YES
 Maximum Displacement     0.010550     0.001800     NO 
 RMS     Displacement     0.002133     0.001200     NO 
 Predicted change in Energy=-6.947427D-06
 GradGradGradGradGradGradGradGradGradGradGradGradGradGradGradGradGradGrad

 ---------------------------------------------------------------------------------------------------
                            Z-MATRIX (ANGSTROMS AND DEGREES)
   CD    Cent   Atom    N1       Length/X        N2       Alpha/Y        N3        Beta/Z          J
 ---------------------------------------------------------------------------------------------------
      1      1  C 
      2      2  C        1   1.388346(     1)
      3      3  S        1   1.817612(     2)      2  117.969(    21)
      4      4  C        1   1.391218(     3)      2  120.973(    22)      3  176.374(    40)      0
      5      5  C        3   1.868257(     4)      1   96.462(    23)      2 -102.738(    41)      0
      6      6  O        3   1.482470(     5)      1  106.647(    24)      5  109.281(    42)      0
      7      7  H        2   1.082965(     6)      1  118.822(    25)      3    1.404(    43)      0
      8      8  C        2   1.390999(     7)      1  119.283(    26)      7 -178.908(    44)      0
      9      9  C        4   1.389690(     8)      1  119.426(    27)      2    1.233(    45)      0
     10     10  H        4   1.084264(     9)      1  120.260(    28)      9 -178.888(    46)      0
     11     11  C        5   1.489225(    10)      3  109.945(    29)      1 -177.320(    47)      0
     12     12  H        5   1.092607(    11)      3  106.140(    30)     11  122.164(    48)      0
     13     13  H        5   1.090787(    12)      3  105.044(    31)     11 -121.298(    49)      0
     14     14  H        8   1.082940(    13)      2  119.609(    32)      1 -180.341(    50)      0
     15     15  C        8   1.391052(    14)      2  120.212(    33)     14 -179.306(    51)      0
     16     16  H        9   1.083616(    15)      4  119.796(    34)      1  180.381(    52)      0
     17     17  C       11   1.327781(    16)      5  123.978(    35)      3 -101.688(    53)      0
     18     18  H       11   1.085979(    17)      5  116.404(    36)     17  177.381(    54)      0
     19     19  H       15   1.083388(    18)      8  119.948(    37)      2  179.230(    55)      0
     20     20  H       17   1.081939(    19)     11  121.427(    38)      5  178.057(    56)      0
     21     21  H       17   1.083445(    20)     11  121.732(    39)     20 -179.027(    57)      0
 ---------------------------------------------------------------------------------------------------
                         Z-Matrix orientation:                         
 ---------------------------------------------------------------------
 Center     Atomic      Atomic             Coordinates (Angstroms)
 Number     Number       Type             X           Y           Z
 ---------------------------------------------------------------------
      1          6           0        0.000000    0.000000    0.000000
      2          6           0        0.000000    0.000000    1.388346
      3         16           0        1.605317    0.000000   -0.852450
      4          6           0       -1.190456   -0.075429   -0.715970
      5          6           0        1.599040    1.810699   -1.312574
      6          8           0        2.642187   -0.161832    0.194655
      7          1           0        0.948529    0.023255    1.910425
      8          6           0       -1.212100   -0.052838    2.068714
      9          6           0       -2.397862   -0.125842   -0.029773
     10          1           0       -1.174964   -0.112838   -1.799478
     11          6           0        2.810862    2.135125   -2.115086
     12          1           0        0.670756    1.980958   -1.863110
     13          1           0        1.572437    2.344377   -0.361629
     14          1           0       -1.218025   -0.058707    3.151622
     15          6           0       -2.409134   -0.112430    1.362608
     16          1           0       -3.328352   -0.190907   -0.581297
     17          6           0        3.885566    2.741075   -1.624333
     18          1           0        2.805809    1.808755   -3.150850
     19          1           0       -3.350110   -0.166048    1.896854
     20          1           0        4.756588    2.929321   -2.237908
     21          1           0        3.939132    3.056309   -0.589146
 ---------------------------------------------------------------------
                    Distance matrix (angstroms):
                    1          2          3          4          5
     1  C    0.000000
     2  C    1.388346   0.000000
     3  S    1.817612   2.756485   0.000000
     4  C    1.391218   2.418889   2.800118   0.000000
     5  C    2.749256   3.623607   1.868257   3.419752   0.000000
     6  O    2.654285   2.903832   1.482470   3.940286   2.692726
     7  H    2.133066   1.082965   2.839963   3.388649   3.742438
     8  C    2.398240   1.390999   4.058796   2.784860   4.775812
     9  C    2.401347   2.788663   4.088774   1.389690   4.622877
    10  H    2.152067   3.399337   2.939312   1.084264   3.410596
    11  C    4.115008   4.973303   2.757961   4.780651   1.489225
    12  H    2.800944   3.866016   2.412267   3.001461   1.092607
    13  H    2.845951   3.321306   2.395431   3.689796   1.090787
    14  H    3.379313   2.143869   4.899724   3.867727   5.599962
    15  C    2.770066   2.411893   4.586386   2.409779   5.188495
    16  H    3.384121   3.872191   4.944801   2.145244   5.368462
    17  C    5.024895   5.629152   3.648127   5.875697   2.488171
    18  H    4.590426   5.634577   3.161553   5.044692   2.198989
    19  H    3.853423   3.392549   5.669436   3.391042   6.221097
    20  H    6.017831   6.660013   4.520059   6.834629   3.475294
    21  H    5.020446   5.363605   3.854484   6.011368   2.747894
                    6          7          8          9         10
     6  O    0.000000
     7  H    2.417975   0.000000
     8  C    4.287132   2.167755   0.000000
     9  C    5.045171   3.871038   2.411433   0.000000
    10  H    4.306925   4.276812   3.868835   2.151163   0.000000
    11  C    3.261805   4.912537   6.202869   6.049075   4.586911
    12  H    3.565457   4.260203   4.810480   4.149235   2.791901
    13  H    2.781169   3.307431   4.405321   4.687791   3.956453
    14  H    4.863694   2.498248   1.082940   3.393789   4.951583
    15  C    5.184823   3.404763   1.391052   1.392492   3.394402
    16  H    6.020820   4.954417   3.394134   1.083616   2.475306
    17  C    3.644390   5.339218   6.886998   7.088251   5.812440
    18  H    3.886179   5.679261   6.844923   6.368829   4.622259
    19  H    6.229376   4.302826   2.147892   2.149485   4.289168
    20  H    4.465791   6.336814   7.941380   8.086782   6.680588
    21  H    3.557084   4.938723   6.577705   7.113120   6.136967
                   11         12         13         14         15
    11  C    0.000000
    12  H    2.160396   0.000000
    13  H    2.156872   1.788728   0.000000
    14  H    6.984486   5.733696   5.089639   0.000000
    15  C    6.662899   4.926790   4.986161   2.149930   0.000000
    16  H    6.741875   4.727886   5.522105   4.290180   2.151717
    17  C    1.327781   3.312068   2.665025   7.529619   7.529114
    18  H    1.085979   2.499275   3.096426   7.707127   7.159461
    19  H    7.703807   5.908835   5.969459   2.476238   1.083388
    20  H    2.105156   4.211162   3.741845   8.583202   8.576919
    21  H    2.109518   3.669011   2.481906   7.091752   7.358718
                   16         17         18         19         20
    16  H    0.000000
    17  C    7.856529   0.000000
    18  H    6.944723   2.089342   0.000000
    19  H    2.478371   8.556000   8.202104   0.000000
    20  H    8.823063   1.081939   2.427894   9.612291   0.000000
    21  H    7.959949   1.083445   3.066454   8.348463   1.844662
                   21
    21  H    0.000000
 Symmetry turned off by external request.
 Stoichiometry    C9H10OS
 Framework group  C1[X(C9H10OS)]
 Deg. of freedom    57
 Full point group                 C1      NOp   1
 Rotational constants (GHZ):           2.3665745           0.5225846           0.4866792
 Standard basis: def2TZVP (5D, 7F)
 The following finite field(s) will be applied:
 An electric field of             -0.0049  0.0010 -0.0003
   407 basis functions,   659 primitive gaussians,   462 cartesian basis functions
    44 alpha electrons       44 beta electrons
       nuclear repulsion energy       664.6162261932 Hartrees.
 NAtoms=   21 NActive=   21 NUniq=   21 SFac= 1.00D+00 NAtFMM=   60 NAOKFM=F Big=F
 Integral buffers will be    131072 words long.
 Raffenetti 2 integral format.
 Two-electron integral symmetry is turned off.
 One-electron integrals computed using PRISM.
   1 Symmetry operations used in ECPInt.
 ECPInt:  NShTT=   13366 NPrTT=   41614 LenC2=   12465 LenP2D=   29236.
 LDataN:  DoStor=T MaxTD1= 6 Len=  172
 NBasis=   407 RedAO= T EigKep=  8.68D-06  NBF=   407
 NBsUse=   407 1.00D-06 EigRej= -1.00D+00 NBFU=   407
 The nuclear repulsion energy is now       664.1763042245 hartrees.
 Initial guess from the checkpoint file:  "checkpoint.chk"
 B after Tr=     0.005301   -0.001818    0.003086
         Rot=    0.999999   -0.000487    0.000873    0.001208 Ang=  -0.18 deg.
 Requested convergence on RMS density matrix=1.00D-08 within 128 cycles.
 Requested convergence on MAX density matrix=1.00D-06.
 Requested convergence on             energy=1.00D-06.
 No special actions if energy rises.
 SCF Done:  E(RB3LYP) =  -822.527753058     A.U. after    9 cycles
            NFock=  9  Conv=0.45D-08     -V/T= 2.0035
   1 Symmetry operations used in ECPInt.
 ECPInt:  NShTT=   13366 NPrTT=   41614 LenC2=   12465 LenP2D=   29236.
 LDataN:  DoStor=T MaxTD1= 7 Len=  274
 Calling FoFJK, ICntrl=      2127 FMM=F ISym2X=0 I1Cent= 0 IOpClX= 0 NMat=1 NMatS=1 NMatT=0.
 -------------------------------------------------------------------
 Center     Atomic                   Forces (Hartrees/Bohr)
 Number     Number              X              Y              Z
 -------------------------------------------------------------------
      1        6           0.000667234    0.001341168   -0.000040785
      2        6          -0.000733415   -0.000346492    0.000045962
      3       16           0.000154496   -0.001137379   -0.000329935
      4        6           0.000175736   -0.000086375   -0.000057256
      5        6          -0.000034590    0.000148383    0.000205083
      6        8          -0.000239773    0.000178776    0.000027384
      7        1          -0.000010275    0.000011002    0.000035299
      8        6           0.000030723   -0.000129425    0.000030120
      9        6           0.000004851   -0.000027046    0.000026923
     10        1          -0.000023586    0.000031401   -0.000002782
     11        6           0.000004316   -0.000139676   -0.000036968
     12        1           0.000045870   -0.000101724    0.000056677
     13        1          -0.000046698    0.000094258   -0.000024332
     14        1          -0.000027806    0.000052328    0.000005179
     15        6          -0.000011876   -0.000022656    0.000032128
     16        1           0.000034526    0.000053915    0.000010736
     17        6           0.000029301   -0.000060644    0.000022991
     18        1          -0.000026939    0.000078344   -0.000015030
     19        1           0.000018354    0.000051587   -0.000009192
     20        1           0.000019424    0.000008475    0.000018299
     21        1          -0.000029874    0.000001778   -0.000000500
 -------------------------------------------------------------------
 Cartesian Forces:  Max     0.001341168 RMS     0.000271000
 -----------------------------------------------------------------------------------------------
                       Internal Coordinate Forces (Hartree/Bohr or radian)
  Cent   Atom   N1       Length/X         N2         Alpha/Y        N3         Beta/Z          J
 -----------------------------------------------------------------------------------------------
      1  C 
      2  C        1   0.000139(     1)
      3  S        1  -0.000074(     2)      2  -0.000185(    21)
      4  C        1  -0.000151(     3)      2   0.000144(    22)      3   0.000058(    40)     0
      5  C        3  -0.000027(     4)      1  -0.000234(    23)      2   0.000103(    41)     0
      6  O        3  -0.000168(     5)      1  -0.000516(    24)      5  -0.000450(    42)     0
      7  H        2   0.000008(     6)      1   0.000073(    25)      3  -0.000024(    43)     0
      8  C        2   0.000022(     7)      1   0.000137(    26)      7  -0.000044(    44)     0
      9  C        4  -0.000017(     8)      1  -0.000122(    27)      2  -0.000002(    45)     0
     10  H        4   0.000001(     9)      1   0.000046(    28)      9  -0.000057(    46)     0
     11  C        5  -0.000021(    10)      3  -0.000284(    29)      1  -0.000081(    47)     0
     12  H        5  -0.000083(    11)      3  -0.000192(    30)     11   0.000010(    48)     0
     13  H        5   0.000026(    12)      3   0.000194(    31)     11  -0.000092(    49)     0
     14  H        8   0.000005(    13)      2   0.000052(    32)      1   0.000031(    50)     0
     15  C        8  -0.000018(    14)      2   0.000047(    33)     14  -0.000064(    51)     0
     16  H        9  -0.000038(    15)      4  -0.000018(    34)      1  -0.000092(    52)     0
     17  C       11   0.000007(    16)      5  -0.000175(    35)      3   0.000254(    53)     0
     18  H       11  -0.000009(    17)      5   0.000017(    36)     17   0.000153(    54)     0
     19  H       15  -0.000023(    18)      8  -0.000004(    37)      2   0.000090(    55)     0
     20  H       17   0.000007(    19)     11   0.000055(    38)      5  -0.000031(    56)     0
     21  H       17  -0.000001(    20)     11  -0.000055(    39)     20  -0.000023(    57)     0
 -----------------------------------------------------------------------------------------------
 Internal  Forces:  Max     0.000516145 RMS     0.000135800

 GradGradGradGradGradGradGradGradGradGradGradGradGradGradGradGradGradGrad
 Berny optimization.
 Search for a local minimum.
 Step number   3 out of a maximum of   67
 All quantities printed in internal units (Hartrees-Bohrs-Radians)
 Update second derivatives using D2CorN and points    1    2    3
 DE= -6.89D-06 DEPred=-6.95D-06 R= 9.92D-01
 TightC=F SS=  1.41D+00  RLast= 1.61D-02 DXNew= 1.6818D-01 4.8316D-02
 Trust test= 9.92D-01 RLast= 1.61D-02 DXMaxT set to 1.00D-01
 ITU=  1  1  0
     Eigenvalues ---    0.02195   0.03407   0.03747   0.04368   0.05298
     Eigenvalues ---    0.05697   0.05941   0.07176   0.09079   0.09539
     Eigenvalues ---    0.13806   0.14021   0.14661   0.17330   0.18588
     Eigenvalues ---    0.19819   0.20550   0.21411   0.21547   0.23546
     Eigenvalues ---    0.23891   0.24550   0.25110   0.25349   0.28532
     Eigenvalues ---    0.29358   0.29983   0.30225   0.33568   0.34580
     Eigenvalues ---    0.34738   0.35272   0.35489   0.35580   0.35607
     Eigenvalues ---    0.35639   0.35652   0.35667   0.35749   0.35854
     Eigenvalues ---    0.38371   0.39390   0.45573   0.47146   0.47236
     Eigenvalues ---    0.47442   0.48118   0.49596   0.49825   0.57261
     Eigenvalues ---    0.60048   0.60068   0.71677   0.81198   2.86358
     Eigenvalues ---    4.19315  26.31389
 RFO step:  Lambda=-5.99229977D-06 EMin= 2.19480896D-02
 Quartic linear search produced a step of -0.07140.
 Variable       Old X    -DE/DX   Delta X   Delta X   Delta X     New X
                                 (Linear)    (Quad)   (Total)
    R2        2.62359   0.00014  -0.00001   0.00030   0.00030   2.62389
    R3        3.43479  -0.00007  -0.00024   0.00052   0.00029   3.43507
    R4        2.62902  -0.00015   0.00001  -0.00041  -0.00040   2.62862
    R5        3.53049  -0.00003  -0.00004   0.00002  -0.00003   3.53047
    R6        2.80146  -0.00017   0.00008  -0.00052  -0.00043   2.80103
    R7        2.04651   0.00001   0.00000   0.00002   0.00003   2.04653
    R8        2.62861   0.00002   0.00001  -0.00004  -0.00004   2.62857
    R9        2.62613  -0.00002   0.00001   0.00002   0.00002   2.62616
   R10        2.04896   0.00000  -0.00001   0.00003   0.00002   2.04898
   R11        2.81423  -0.00002  -0.00003   0.00004   0.00000   2.81423
   R12        2.06473  -0.00008  -0.00001  -0.00026  -0.00027   2.06446
   R13        2.06129   0.00003   0.00001   0.00006   0.00007   2.06136
   R14        2.04646   0.00001   0.00000   0.00002   0.00002   2.04648
   R15        2.62871  -0.00002  -0.00001  -0.00001  -0.00002   2.62868
   R16        2.04774  -0.00004  -0.00001  -0.00010  -0.00010   2.04763
   R17        2.50914   0.00001  -0.00000   0.00001   0.00001   2.50916
   R18        2.05220  -0.00001   0.00001  -0.00005  -0.00004   2.05216
   R19        2.04731  -0.00002  -0.00000  -0.00006  -0.00006   2.04725
   R20        2.04457   0.00001  -0.00000   0.00003   0.00003   2.04460
   R21        2.04741  -0.00000   0.00000  -0.00001  -0.00001   2.04740
    A3        2.05895  -0.00019   0.00022  -0.00097  -0.00075   2.05820
    A4        2.11138   0.00014   0.00001   0.00035   0.00036   2.11174
    A5        1.68357  -0.00023  -0.00016  -0.00124  -0.00139   1.68218
    A6        1.86133  -0.00052  -0.00013  -0.00234  -0.00247   1.85886
    A7        2.07383   0.00007   0.00004   0.00016   0.00019   2.07402
    A8        2.08188   0.00014   0.00001  -0.00008  -0.00007   2.08181
    A9        2.08438  -0.00012  -0.00002  -0.00037  -0.00039   2.08399
   A10        2.09893   0.00005   0.00003   0.00026   0.00029   2.09922
   A11        1.91891  -0.00028   0.00011  -0.00152  -0.00141   1.91750
   A12        1.85249  -0.00019  -0.00012  -0.00004  -0.00016   1.85233
   A13        1.83336   0.00019   0.00011   0.00053   0.00064   1.83400
   A14        2.08757   0.00005   0.00002   0.00022   0.00024   2.08781
   A15        2.09809   0.00005  -0.00001  -0.00019  -0.00019   2.09790
   A16        2.09084  -0.00002   0.00000  -0.00020  -0.00020   2.09064
   A17        2.16383  -0.00018   0.00003  -0.00033  -0.00031   2.16352
   A18        2.03164   0.00002  -0.00002   0.00015   0.00013   2.03177
   A19        2.09349  -0.00000   0.00001  -0.00005  -0.00005   2.09344
   A20        2.11930   0.00005  -0.00000   0.00012   0.00012   2.11942
   A21        2.12462  -0.00005  -0.00003  -0.00003  -0.00006   2.12455
    D4        3.07832   0.00006  -0.00007   0.00221   0.00213   3.08045
    D5       -1.79312   0.00010   0.00004   0.00020   0.00025  -1.79287
    D6        1.90731  -0.00045  -0.00019  -0.00277  -0.00295   1.90435
    D7        0.02451  -0.00002   0.00011  -0.00194  -0.00183   0.02268
    D8       -3.12254  -0.00004  -0.00011   0.00025   0.00014  -3.12240
    D9        0.02151  -0.00000   0.00014  -0.00000   0.00014   0.02165
   D10       -3.12219  -0.00006  -0.00013  -0.00089  -0.00102  -3.12321
   D11       -3.09482  -0.00008   0.00015  -0.00224  -0.00209  -3.09691
   D12        2.13217   0.00001  -0.00009   0.00009   0.00000   2.13217
   D13       -2.11705  -0.00009  -0.00015   0.00045   0.00030  -2.11675
   D14       -3.14755   0.00003   0.00014  -0.00007   0.00007  -3.14747
   D15       -3.12948  -0.00006  -0.00017  -0.00075  -0.00092  -3.13040
   D16        3.14824  -0.00009  -0.00019  -0.00116  -0.00135   3.14689
   D17       -1.77478   0.00025  -0.00075   0.00798   0.00722  -1.76756
   D18        3.09588   0.00015   0.00034  -0.00266  -0.00232   3.09356
   D19        3.12815   0.00009   0.00018   0.00129   0.00147   3.12962
   D20        3.10769  -0.00003   0.00035  -0.00305  -0.00269   3.10500
   D21       -3.12461  -0.00002  -0.00021   0.00090   0.00069  -3.12392
         Item               Value     Threshold  Converged?
 Maximum Force            0.000516     0.000450     NO 
 RMS     Force            0.000136     0.000300     YES
 Maximum Displacement     0.007225     0.001800     NO 
 RMS     Displacement     0.001355     0.001200     NO 
 Predicted change in Energy=-3.214912D-06
 GradGradGradGradGradGradGradGradGradGradGradGradGradGradGradGradGradGrad

 ---------------------------------------------------------------------------------------------------
                            Z-MATRIX (ANGSTROMS AND DEGREES)
   CD    Cent   Atom    N1       Length/X        N2       Alpha/Y        N3        Beta/Z          J
 ---------------------------------------------------------------------------------------------------
      1      1  C 
      2      2  C        1   1.388504(     1)
      3      3  S        1   1.817763(     2)      2  117.926(    21)
      4      4  C        1   1.391007(     3)      2  120.994(    22)      3  176.497(    40)      0
      5      5  C        3   1.868243(     4)      1   96.382(    23)      2 -102.724(    41)      0
      6      6  O        3   1.482240(     5)      1  106.505(    24)      5  109.111(    42)      0
      7      7  H        2   1.082980(     6)      1  118.833(    25)      3    1.300(    43)      0
      8      8  C        2   1.390980(     7)      1  119.279(    26)      7 -178.901(    44)      0
      9      9  C        4   1.389702(     8)      1  119.404(    27)      2    1.241(    45)      0
     10     10  H        4   1.084274(     9)      1  120.277(    28)      9 -178.947(    46)      0
     11     11  C        5   1.489227(    10)      3  109.864(    29)      1 -177.440(    47)      0
     12     12  H        5   1.092466(    11)      3  106.130(    30)     11  122.164(    48)      0
     13     13  H        5   1.090825(    12)      3  105.080(    31)     11 -121.281(    49)      0
     14     14  H        8   1.082949(    13)      2  119.623(    32)      1 -180.337(    50)      0
     15     15  C        8   1.391040(    14)      2  120.201(    33)     14 -179.359(    51)      0
     16     16  H        9   1.083560(    15)      4  119.785(    34)      1  180.304(    52)      0
     17     17  C       11   1.327788(    16)      5  123.961(    35)      3 -101.274(    53)      0
     18     18  H       11   1.085958(    17)      5  116.412(    36)     17  177.248(    54)      0
     19     19  H       15   1.083356(    18)      8  119.945(    37)      2  179.314(    55)      0
     20     20  H       17   1.081954(    19)     11  121.434(    38)      5  177.903(    56)      0
     21     21  H       17   1.083439(    20)     11  121.728(    39)     20 -178.987(    57)      0
 ---------------------------------------------------------------------------------------------------
                         Z-Matrix orientation:                         
 ---------------------------------------------------------------------
 Center     Atomic      Atomic             Coordinates (Angstroms)
 Number     Number       Type             X           Y           Z
 ---------------------------------------------------------------------
      1          6           0        0.000000    0.000000    0.000000
      2          6           0        0.000000    0.000000    1.388504
      3         16           0        1.606088    0.000000   -0.851318
      4          6           0       -1.190175   -0.072861   -0.716292
      5          6           0        1.598047    1.811070   -1.309895
      6          8           0        2.639603   -0.158102    0.199342
      7          1           0        0.948481    0.021520    1.910773
      8          6           0       -1.212221   -0.050790    2.068773
      9          6           0       -2.397684   -0.120524   -0.030054
     10          1           0       -1.174723   -0.109462   -1.799838
     11          6           0        2.811957    2.136130   -2.108993
     12          1           0        0.670931    1.980131   -1.862485
     13          1           0        1.568556    2.344512   -0.358859
     14          1           0       -1.218497   -0.056595    3.151689
     15          6           0       -2.409201   -0.107334    1.362350
     16          1           0       -3.328239   -0.182325   -0.581736
     17          6           0        3.887989    2.735386   -1.612941
     18          1           0        2.808077    1.814141   -3.146110
     19          1           0       -3.350430   -0.157995    1.896374
     20          1           0        4.761555    2.922291   -2.223329
     21          1           0        3.940325    3.045666   -0.576202
 ---------------------------------------------------------------------
                    Distance matrix (angstroms):
                    1          2          3          4          5
     1  C    0.000000
     2  C    1.388504   0.000000
     3  S    1.817763   2.756143   0.000000
     4  C    1.391007   2.419089   2.800470   0.000000
     5  C    2.747645   3.621476   1.868243   3.416979   0.000000
     6  O    2.651836   2.899414   1.482240   3.938635   2.690776
     7  H    2.133338   1.082980   2.839377   3.388839   3.741274
     8  C    2.398308   1.390980   4.058618   2.785240   4.772790
     9  C    2.400900   2.788498   4.088911   1.389702   4.618974
    10  H    2.152063   3.399629   2.940167   1.084274   3.408335
    11  C    4.113150   4.970174   2.756613   4.778736   1.489227
    12  H    2.799985   3.865229   2.412031   2.998708   1.092466
    13  H    2.843569   3.318189   2.395968   3.685383   1.090825
    14  H    3.379509   2.144006   4.899546   3.868119   5.597037
    15  C    2.769796   2.411732   4.586327   2.409972   5.184516
    16  H    3.383612   3.871984   4.945048   2.145088   5.363966
    17  C    5.019997   5.622052   3.642729   5.871795   2.487977
    18  H    4.590688   5.633749   3.162587   5.044880   2.199061
    19  H    3.853126   3.392385   5.669379   3.391161   6.216495
    20  H    6.012935   6.652633   4.514330   6.831193   3.475192
    21  H    5.013407   5.353719   3.847133   6.005570   2.747507
                    6          7          8          9         10
     6  O    0.000000
     7  H    2.412706   0.000000
     8  C    4.282853   2.167677   0.000000
     9  C    5.042648   3.870893   2.411486   0.000000
    10  H    4.306759   4.277124   3.869238   2.151253   0.000000
    11  C    3.259082   4.909444   6.199222   6.046059   4.586052
    12  H    3.563543   4.260360   4.808918   4.145715   2.788685
    13  H    2.778814   3.306360   4.400407   4.681407   3.952719
    14  H    4.859176   2.498353   1.082949   3.393827   4.952003
    15  C    5.181272   3.404614   1.391040   1.392515   3.394610
    16  H    6.018787   4.954239   3.394117   1.083560   2.475220
    17  C    3.635259   5.331260   6.879675   7.083180   5.810262
    18  H    3.887181   5.678350   6.843666   6.368099   4.623353
    19  H    6.225786   4.302682   2.147826   2.149478   4.289294
    20  H    4.456550   6.328097   7.933937   8.082319   6.679092
    21  H    3.543653   4.927640   6.567546   7.105871   6.133175
                   11         12         13         14         15
    11  C    0.000000
    12  H    2.160808   0.000000
    13  H    2.156951   1.788685   0.000000
    14  H    6.980499   5.732376   5.084970   0.000000
    15  C    6.659117   4.923849   4.979624   2.149903   0.000000
    16  H    6.738675   4.723335   5.514814   4.290137   2.151679
    17  C    1.327788   3.313932   2.665572   7.521506   7.522501
    18  H    1.085958   2.498527   3.096203   7.705532   7.158091
    19  H    7.699415   5.905248   5.961966   2.476133   1.083356
    20  H    2.105245   4.213203   3.742369   8.574707   8.570617
    21  H    2.109483   3.671352   2.482770   7.080582   7.349549
                   16         17         18         19         20
    16  H    0.000000
    17  C    7.851774   0.000000
    18  H    6.943793   2.089380   0.000000
    19  H    2.478329   8.548781   8.200194   0.000000
    20  H    8.819197   1.081954   2.428085   9.605437   0.000000
    21  H    7.953111   1.083439   3.066442   8.338596   1.844632
                   21
    21  H    0.000000
 Symmetry turned off by external request.
 Stoichiometry    C9H10OS
 Framework group  C1[X(C9H10OS)]
 Deg. of freedom    57
 Full point group                 C1      NOp   1
 Rotational constants (GHZ):           2.3670846           0.5232873           0.4872790
 Standard basis: def2TZVP (5D, 7F)
 The following finite field(s) will be applied:
 An electric field of             -0.0049  0.0010 -0.0003
   407 basis functions,   659 primitive gaussians,   462 cartesian basis functions
    44 alpha electrons       44 beta electrons
       nuclear repulsion energy       664.8082797973 Hartrees.
 NAtoms=   21 NActive=   21 NUniq=   21 SFac= 1.00D+00 NAtFMM=   60 NAOKFM=F Big=F
 Integral buffers will be    131072 words long.
 Raffenetti 2 integral format.
 Two-electron integral symmetry is turned off.
 One-electron integrals computed using PRISM.
   1 Symmetry operations used in ECPInt.
 ECPInt:  NShTT=   13366 NPrTT=   41614 LenC2=   12469 LenP2D=   29244.
[...]
 6905,-0.13340883,0.00145333,-0.00085688,0.00215552,0.00007273,-0.00015
 132,-0.00006887,-0.00047120,0.00012705,0.00013719,0.00046959,-0.000140
 58,-0.00046037,0.00009713,0.00022644,0.00009197,0.06895880,0.15400690,
 0.62637553,-0.00017324,-0.00025513,0.00057044,0.00015925,-0.00019149,-
 0.00041136,-0.00008602,0.00163561,-0.00008799,-0.00039924,-0.00039384,
 0.00022812,-0.22959004,0.03530158,-0.11457316,0.00033208,-0.00054142,0
 .00023396,-0.00000132,0.00000889,0.00001619,-0.00020816,-0.00001264,0.
 00007035,0.00006260,-0.00014053,0.00001668,-0.00003846,-0.00008618,0.0
 0025635,-0.02223115,0.00282249,-0.01421183,0.25204590,0.00002710,0.000
 56386,-0.00081683,-0.00037756,0.00012534,0.00052986,0.01854769,-0.0019
 2544,0.01280768,-0.00004505,0.00033217,0.00051600,0.04168590,-0.046352
 79,0.01896400,0.00208716,-0.00870224,0.00310420,0.00016101,-0.00001748
 ,-0.00012903,0.00054751,-0.00011740,-0.00003832,-0.00056701,0.00003731
 ,0.00015874,-0.00025578,-0.00045460,-0.00011488,-0.01031790,0.00141917
 ,-0.00464511,-0.03699671,0.05045079,-0.00002006,-0.00025961,0.00023428
 ,0.00020862,-0.00001432,-0.00041950,-0.00439459,-0.00048271,-0.0049677
 4,0.00008090,-0.00017066,0.00003460,-0.11418247,0.01790623,-0.11747233
 ,-0.00075982,0.00323098,0.00025793,-0.00009120,-0.00005348,0.00012250,
 -0.00030382,0.00005734,0.00004625,0.00040123,-0.00016242,-0.00016174,-
 0.00000293,0.00015973,0.00023169,0.01698657,-0.00365864,0.01091346,0.1
 2198328,-0.02453243,0.12300377,-0.00006741,-0.00031918,-0.00077115,0.0
 0015348,0.00015135,0.00010239,0.00097278,0.00059296,-0.00011193,-0.000
 44487,-0.00004071,-0.00017094,-0.04958957,0.00264360,0.00428241,-0.000
 53111,-0.00003784,0.00039142,0.00010095,-0.00007176,-0.00002276,-0.000
 20439,0.00005188,0.00008235,0.00002835,-0.00001401,-0.00007300,0.00008
 122,0.00001322,0.00012186,0.00021280,0.01284191,0.02431707,0.00152936,
 -0.01408578,-0.02103884,0.04984439,0.00211398,0.00218801,-0.00051085,-
 0.00019596,0.00020050,0.00013240,-0.00415028,-0.03109624,-0.02018724,-
 0.00070466,0.00031335,0.00006490,0.00602082,-0.09983914,-0.12018165,0.
 00061488,0.00810400,0.00265782,0.00004738,-0.00008511,0.00010537,-0.00
 039326,-0.00011278,0.00019694,0.00037312,-0.00025869,-0.00045032,0.000
 05256,0.00004054,-0.00002647,-0.00183079,0.00429071,0.00798032,-0.0005
 0569,0.00431693,0.00645418,-0.00041046,0.11102099,-0.00078954,0.000219
 45,0.00118251,-0.00029566,-0.00017222,0.00019153,0.00068702,0.00750918
 ,0.00404029,-0.00013172,-0.00007959,-0.00004342,0.00436547,-0.11300290
 ,-0.25149329,0.00105730,-0.00201442,0.00068853,0.00001491,0.00004764,-
 0.00001376,0.00016376,-0.00002201,-0.00000611,-0.00003036,-0.00002122,
 0.00011721,0.00001027,0.00007694,0.00002191,0.00121077,-0.00753612,-0.
 01629553,0.00140752,-0.00744664,-0.01140830,-0.00906992,0.12153139,0.2
 7083916,-0.00429175,-0.00053831,0.00310769,0.00359370,0.00008095,0.028
 79582,0.00040625,-0.00001744,0.00147000,-0.00130024,-0.00004136,-0.000
 03539,-0.00006982,0.00010832,0.00006932,-0.00007364,0.00000269,-0.0006
 0688,0.00113468,0.00018386,-0.00058002,-0.05944114,-0.00092458,0.00126
 635,-0.00436397,-0.00053998,-0.00232922,0.00012430,0.00006280,0.000007
 87,0.00001963,-0.00010552,-0.00005975,-0.00000165,-0.00000489,0.000004
 81,0.00000407,-0.00003548,-0.00000265,0.05863159,-0.00047772,0.0073807
 5,-0.00015185,-0.00015404,0.00293765,0.00142034,-0.00015370,0.00003080
 ,-0.00008162,0.00023473,-0.00071698,0.00008605,0.00004794,0.00003168,-
 0.00004377,0.00003223,0.00013828,-0.00003280,0.00006565,-0.00390793,-0
 .00009499,-0.00084699,-0.03602336,0.00156659,-0.00058629,0.00765309,-0
 .00017159,0.00008020,-0.00132601,0.00003931,0.00000755,-0.00000601,0.0
 0001992,0.00002481,-0.00001232,0.00000002,-0.00002600,-0.00000588,0.00
 001764,0.00134947,0.02536805,0.00310475,0.00024055,0.00024099,-0.00125
 671,-0.00001435,-0.01177242,-0.00064618,-0.00003012,-0.00062879,0.0001
 1333,0.00002427,0.00072456,0.00006287,-0.00009520,-0.00005459,0.000168
 30,0.00001420,0.00034211,-0.00000204,-0.00005156,0.00080914,0.00113703
 ,0.00109434,-0.33508464,-0.00317382,-0.00013470,0.00067630,-0.00000085
 ,-0.00001040,-0.00006751,-0.00003387,0.00009746,0.00005902,0.00000060,
 0.00000441,-0.00000161,0.00000128,0.00001557,0.00000251,-0.00189282,-0
 .00129150,0.35624772,-0.01644377,-0.00041310,-0.02885386,-0.05899751,-
 0.00272456,0.02335499,0.00023152,-0.00006540,-0.00028872,0.03003112,0.
 00176302,0.02961734,-0.00061743,0.00086204,-0.00006539,-0.00028396,-0.
 00046233,0.00023545,-0.00235961,-0.00043047,0.00331228,-0.27560865,-0.
 00990009,-0.12038387,-0.12765951,-0.00404837,0.03360860,-0.00449679,-0
 .00058310,0.00319290,0.00014649,-0.00032261,0.00011078,0.00009010,-0.0
 0014554,0.00014916,0.00005823,0.00014130,-0.00012710,0.00462172,0.0001
 7690,0.00251485,0.71303270,-0.00104614,-0.00565118,-0.00157278,-0.0028
 5910,0.00566741,0.00105945,0.00014418,-0.00077145,-0.00036951,0.002302
 13,0.00446333,0.00100637,-0.00014828,0.00008588,0.00009332,0.00007620,
 0.00000423,0.00022814,-0.00023917,0.00714202,0.00038780,-0.01034200,-0
 .05744859,-0.00552874,-0.00453578,-0.05466742,-0.00037964,-0.00070818,
 0.00774538,-0.00019689,-0.00002174,-0.00008898,0.00002430,0.00002567,-
 0.00003595,0.00004370,-0.00000115,-0.00000500,0.00001970,0.00026560,0.
 00177712,0.00017374,0.02865608,0.12433355,-0.03143845,-0.00271263,-0.0
 5154310,-0.02360572,-0.00078884,0.06489687,0.00050874,0.00089467,-0.00
 362966,0.07857939,0.00298160,-0.02753572,0.00045996,0.00010276,0.00013
 938,0.00011907,-0.00056075,0.00100646,0.00328362,0.00025616,-0.0010837
 2,-0.05562587,-0.00171457,-0.18233893,-0.03096582,-0.00463906,-0.32555
 542,0.00208461,-0.00001337,0.00094494,-0.00000187,0.00026239,0.0004924
 9,0.00009480,-0.00047158,0.00022355,0.00012062,0.00043184,-0.00007334,
 -0.02842504,-0.00126568,-0.01168311,-0.03397320,0.00106645,0.67259876,
 -0.00367088,-0.00053002,0.00404914,0.00013813,0.00008429,0.00090085,0.
 00072509,-0.00009552,-0.00105272,-0.01981228,-0.00140132,-0.01624972,-
 0.00008379,0.00004245,0.00009995,-0.00089637,0.00012044,-0.00016789,-0
 .00005620,0.00007917,-0.00004748,0.00180904,-0.00037484,0.00031700,-0.
 25954753,-0.01423858,-0.11897728,0.00108250,0.00025920,0.00020251,0.00
 008129,-0.00012353,-0.00006632,-0.00000252,-0.00003350,0.00001548,-0.0
 0000447,-0.00000524,0.00000230,-0.00000416,-0.00001711,0.00020658,0.00
 336954,0.00022091,0.00195586,0.27610999,-0.00027750,0.00770434,0.00035
 863,0.00017848,-0.00089418,-0.00017208,0.00005979,0.00046091,-0.000184
 33,-0.00103096,0.00102200,-0.00069786,-0.00004640,0.00004987,0.0000046
 6,-0.00012563,-0.00025228,0.00012206,0.00003286,-0.00113206,-0.0000114
 2,-0.00032271,0.00761059,-0.00010359,-0.01449037,-0.03320486,-0.008454
 27,0.00021385,-0.00371232,0.00020046,-0.00000554,-0.00003839,-0.000015
 13,0.00001978,0.00003252,0.00001690,0.00000699,-0.00000327,-0.00002731
 ,-0.00005582,0.00025340,0.00000245,-0.00015203,0.00050804,0.00017475,0
 .01576326,0.02493982,0.00317093,0.00002812,-0.00047475,0.00087203,0.00
 000918,-0.00079460,0.00018294,0.00000197,0.00047178,0.01448187,0.00092
 459,0.01123188,-0.00002708,0.00000853,-0.00003687,0.00038862,-0.000043
 32,0.00004447,-0.00002932,0.00000495,0.00007036,0.00150623,-0.00005557
 ,-0.00570918,-0.11900959,-0.00798687,-0.13001607,-0.00061994,0.0000850
 0,0.00092891,-0.00000725,-0.00000349,-0.00001033,-0.00000410,0.0000370
 3,-0.00000937,-0.00000101,0.00000102,-0.00000280,-0.00140892,-0.000037
 37,-0.00063085,-0.02930964,-0.00185310,-0.01081830,0.12928432,0.008787
 08,0.13464347,-0.00007582,-0.00021130,-0.00037163,0.00017774,-0.000212
 74,-0.00027197,-0.00298429,0.00638909,-0.00236232,-0.00013393,-0.00016
 749,0.00021750,-0.03280951,-0.02207714,-0.00293072,0.00227487,-0.00015
 086,0.00099883,0.00001711,-0.00000533,-0.00001567,-0.00018706,0.000025
 02,-0.00004783,0.00011870,0.00002853,-0.00007627,0.00003094,0.00006047
 ,0.00004444,-0.38825769,-0.17496560,-0.13639620,-0.00249987,-0.0006061
 2,0.00147620,0.00146726,0.00066207,-0.00194843,-0.00000685,0.00002202,
 0.00000893,0.00001921,0.00001206,0.00015257,-0.00002311,-0.00000120,-0
 .00000410,0.71492553,0.00017644,0.00014449,0.00017122,-0.00011407,-0.0
 0004331,0.00004560,0.00017332,0.00156633,-0.00050247,-0.00001495,-0.00
 003898,0.00005708,-0.01164746,-0.00045772,-0.00154680,-0.00031956,-0.0
 0033340,-0.00017584,0.00000824,-0.00000802,-0.00003092,-0.00002144,0.0
 0002761,-0.00001104,0.00003497,-0.00002302,-0.00001883,0.00002163,0.00
 002630,-0.00001378,-0.17260280,-0.14499409,-0.08843236,0.00056192,0.00
 062416,0.00065631,0.00041451,0.00000220,0.00040618,-0.00001068,0.00000
 272,0.00001353,-0.00002454,0.00000871,0.00004527,-0.00001829,-0.000006
 52,-0.00000553,0.24626131,0.24985631,-0.00072587,0.00134498,-0.0002775
 4,0.00033099,-0.00008971,-0.00007810,0.00387117,0.00205383,-0.00003367
 ,0.00014300,-0.00007030,-0.00014689,0.01376332,0.00532001,0.01318171,-
 0.00094969,-0.00069796,-0.00095285,0.00003057,0.00012159,0.00001933,0.
 00002215,-0.00017294,-0.00000153,-0.00014897,-0.00004471,0.00006625,-0
 .00002541,-0.00000404,-0.00001071,-0.13376052,-0.08886390,-0.17945879,
 0.00395917,0.00154220,-0.00162834,0.00079403,0.00124256,0.00135895,0.0
 0003725,0.00001070,-0.00004571,0.00013076,0.00000673,-0.00014937,0.000
 04538,0.00000724,0.00000788,0.01610999,0.14283048,0.64462957,-0.000109
 99,-0.00019804,-0.00020969,0.00000866,-0.00001922,-0.00002814,-0.00011
 335,0.00083450,0.00016673,0.00007178,0.00000030,0.00011684,0.00001926,
 0.00674556,0.02570780,0.00027860,-0.00006241,0.00004169,-0.00000814,0.
 00002567,-0.00002842,0.00004723,-0.00000747,-0.00006947,-0.00002571,0.
 00002178,0.00002386,-0.00001320,-0.00003101,-0.00000986,-0.05332202,-0
 .00612991,0.00271067,0.00115425,0.00051511,-0.00080679,-0.00360323,-0.
 00214391,0.00287068,0.00000121,-0.00000216,0.00000535,-0.00005526,0.00
 000634,-0.00001770,-0.00001859,0.00000008,-0.00000031,0.00216042,-0.00
 920568,-0.02812814,0.05542748,-0.00003185,0.00004605,-0.00025143,0.000
 08236,-0.00003437,0.00003100,0.00004862,0.00085673,0.00001782,0.000047
 05,0.00001839,-0.00006839,-0.00045983,0.00392926,0.00738780,0.00029271
 ,-0.00018441,0.00002939,-0.00001475,0.00001821,0.00000641,0.00006338,-
 0.00001081,-0.00004758,-0.00000121,-0.00001041,0.00005141,-0.00001683,
 0.00000474,0.00001577,-0.00666468,-0.06245412,-0.07280955,-0.00021574,
 -0.00000658,-0.00028482,-0.00133949,0.00090084,0.00025876,0.00001433,0
 .00000160,-0.00001074,-0.00003264,-0.00000029,-0.00004370,0.00001541,0
 .00000668,-0.00000135,-0.00132682,0.00163117,-0.01569507,0.01239988,0.
 05293057,0.00008934,0.00050388,0.00027256,-0.00008912,0.00000578,0.000
 03377,0.00045843,-0.00112584,-0.00044060,-0.00001853,-0.00000073,-0.00
 007435,-0.00066357,-0.00464844,-0.01288609,-0.00026912,0.00024388,-0.0
 0006452,0.00000033,-0.00000405,0.00001157,-0.00000988,-0.00004100,0.00
 005821,0.00000457,-0.00002999,-0.00000700,0.00001513,0.00001626,-0.000
 00395,-0.00031956,-0.07259077,-0.30570953,0.00049849,0.00021222,0.0007
 8805,0.00218582,0.00079372,-0.00001248,-0.00000703,-0.00000011,0.00000
 008,0.00003140,0.00000097,0.00000292,0.00001207,-0.00000324,0.00000080
 ,0.00046854,-0.00431679,-0.01039637,-0.00093386,0.08207583,0.32617984,
 0.00023411,0.00003736,-0.00102458,-0.00335387,-0.00051866,-0.00417566,
 0.00000473,0.00010532,-0.00015889,0.00181806,-0.00040504,-0.00014326,0
 .00000507,0.00000881,0.00001402,-0.00013199,-0.00000150,0.00024138,-0.
 00070299,-0.00004151,0.00088483,-0.01930055,-0.00110312,0.01645095,0.0
 0284545,0.00015171,-0.00183585,-0.00000703,-0.00001476,-0.00018001,0.0
 0003267,-0.00003395,-0.00003167,-0.00000234,-0.00000317,0.00000199,0.0
 0000238,0.00001658,-0.00000246,0.00102412,0.00022406,-0.00032601,-0.26
 506325,-0.01180603,0.11665465,0.00081391,0.00023791,0.00053546,-0.0000
 1180,-0.00001472,0.00002283,-0.00000930,0.00000602,0.00000512,0.281805
 76,0.00030071,-0.00119986,-0.00015941,-0.00070140,0.00779804,0.0000043
 5,-0.00022053,-0.00070121,-0.00010602,-0.00036503,0.00777536,-0.000218
 97,-0.00015458,-0.00001675,0.00012702,-0.00001859,-0.00007543,0.000090
 57,0.00004775,0.00013194,0.00002031,-0.00060378,0.00113179,0.00093991,
 0.00043625,0.00040963,-0.00039269,0.00003412,0.00018568,-0.00007784,0.
 00002048,-0.00009503,-0.00000108,0.00001259,-0.00001824,0.00001706,-0.
 00000439,0.00001480,0.00000840,0.00019740,-0.00358033,-0.00002891,-0.0
 1233645,-0.03306725,0.00600795,0.00022680,-0.00335338,0.00009904,-0.00
 000536,-0.00000587,0.00002005,-0.00000200,0.00000362,0.00000482,0.0131
 4137,0.02465353,-0.00096644,-0.00004913,-0.00091614,-0.00324261,-0.000
 06930,-0.00074921,-0.00021251,-0.00001818,-0.00002529,-0.00109697,-0.0
 0023018,-0.00567443,-0.00003264,0.00002583,-0.00002678,0.00014071,0.00
 000457,0.00018300,-0.00062443,-0.00003330,0.00039203,-0.01474659,-0.00
 077282,0.01178643,0.02946068,0.00165526,-0.01052270,0.00138704,0.00005
 030,-0.00063987,-0.00000785,0.00000488,0.00003522,0.00001254,-0.000034
 15,0.00002249,0.00001253,0.00000961,-0.00000247,0.00059531,0.00001447,
 0.00086005,0.11676415,0.00579027,-0.12591473,-0.00052674,-0.00000175,0
 .00110458,0.00001341,0.00000640,-0.00001435,-0.00000029,-0.00000322,-0
 .00000088,-0.12693240,-0.00634786,0.13010184,0.00011444,-0.00044784,0.
 00007075,-0.00008200,-0.00001885,-0.00001556,-0.00135974,0.00047724,-0
 .00008467,-0.00004461,0.00000541,0.00008921,-0.00012311,-0.00520742,-0
 .00131764,0.00034766,0.00006053,0.00022707,0.00000404,-0.00002866,-0.0
 0001001,-0.00002190,0.00004768,-0.00000531,0.00003242,0.00003301,-0.00
 002686,0.00000746,-0.00000634,-0.00001361,-0.01650770,-0.00482429,0.01
 605367,-0.00003166,-0.00009321,0.00010568,0.00021964,0.00007518,-0.000
 20178,-0.00001152,0.00000172,0.00001384,-0.00003553,-0.00000322,0.0000
 5352,-0.00001930,-0.00000421,-0.00000229,-0.23807619,-0.04580697,0.130
 21063,-0.00001323,0.00279090,-0.00079050,-0.00000886,-0.00000670,0.000
 00457,0.25108370,-0.00021398,0.00056467,0.00002809,0.00013455,-0.00001
 230,-0.00008909,0.00178595,0.00065938,-0.00049485,0.00008289,-0.000078
 32,-0.00008298,-0.00512045,0.00916782,-0.00507216,-0.00013026,-0.00029
 277,0.00005374,-0.00000776,0.00004690,0.00000888,-0.00002973,-0.000071
 06,0.00001265,0.00001271,-0.00006095,0.00001852,0.00000855,0.00006098,
 0.00004511,-0.01252168,0.00212177,0.00853939,-0.00191924,-0.00093668,0
 .00105869,-0.00005312,0.00000343,0.00040890,0.00000996,0.00000162,-0.0
 0001157,0.00006619,0.00001013,-0.00002790,0.00001907,0.00000661,0.0000
 0058,-0.04421901,-0.04879163,0.02222916,0.00296259,-0.00605943,0.00193
 872,0.00000570,0.00001362,0.00000091,0.05331302,0.03923516,0.00011217,
 -0.00036250,0.00006359,-0.00007240,0.00000218,0.00000764,-0.00105433,0
 .00024930,-0.00004942,-0.00003550,0.00000812,0.00004210,-0.00066146,-0
 .00394605,0.00057071,0.00031757,0.00025179,0.00020708,-0.00000703,-0.0
 0004065,0.00000599,-0.00000440,0.00004679,0.00000619,0.00001917,0.0000
 2721,-0.00001395,0.00000100,-0.00001383,-0.00000965,-0.01255832,-0.004
 05278,0.01006372,0.00004401,0.00034374,0.00005511,-0.00031742,0.000034
 02,0.00019915,-0.00000748,-0.00000248,0.00000695,-0.00002693,-0.000002
 20,0.00002904,-0.00000676,-0.00000265,-0.00000004,0.13442266,0.0248171
 1,-0.14956438,-0.00060358,0.00200759,0.00077536,-0.00000035,-0.0000066
 2,0.00000074,-0.14162178,-0.02414256,0.14834088,-0.00005436,0.00018281
 ,0.00007095,0.00001728,0.00001231,-0.00000812,0.00046623,-0.00023436,-
 0.00004365,0.00001993,-0.00001306,-0.00004857,0.00099192,0.00274773,-0
 .00268836,-0.00020010,0.00011086,-0.00004596,-0.00000131,-0.00000808,0
 .00001633,-0.00000800,-0.00001334,0.00002153,-0.00000702,-0.00001173,0
 .00001043,0.00000092,0.00000759,0.00000579,0.00168996,-0.00868777,-0.0
 2596570,-0.00010788,-0.00003926,0.00018662,-0.00022986,0.00025786,0.00
 080963,0.00000347,-0.00000326,-0.00000540,0.00002065,0.00000161,-0.000
 01376,0.00000970,-0.00000060,0.00000115,-0.05612567,-0.00785118,-0.005
 73265,-0.00187685,-0.00565681,-0.00066809,0.00000571,0.00000134,-0.000
 00149,0.00452600,0.00581406,0.02206115,0.05085927,0.00019093,-0.000442
 85,-0.00001081,-0.00003958,0.00001444,0.00001722,-0.00200791,-0.000024
 40,-0.00056776,-0.00002331,0.00003115,-0.00001921,0.00281465,-0.006517
 10,0.00258972,0.00098040,0.00050945,0.00051460,-0.00003658,-0.00004212
 ,0.00002854,0.00001119,0.00004229,0.00000172,0.00002003,0.00003891,0.0
 0000525,-0.00001059,-0.00002561,-0.00001047,-0.00022568,0.00240993,-0.
 01539221,0.00084531,0.00067748,0.00001795,-0.00031253,0.00000981,-0.00
 018176,-0.00000131,0.00000207,-0.00000150,-0.00002432,-0.00000968,0.00
 001424,0.00000696,0.00000249,-0.00000050,-0.00951159,-0.05918744,-0.07
 109090,-0.00570997,0.00841255,-0.00303511,0.00000759,-0.00000466,-0.00
 000261,-0.00035698,0.00441104,0.00478446,0.01338328,0.04969224,-0.0000
 0589,0.00001964,0.00009921,-0.00000348,-0.00000831,-0.00000349,0.00006
 071,0.00010297,-0.00018046,0.00003313,-0.00000936,-0.00002813,0.000685
 04,0.00253025,0.00066842,0.00014105,0.00019081,0.00003786,-0.00000119,
 0.00000902,0.00000632,0.,-0.00000071,0.00000847,-0.00000283,-0.0000009
 8,0.00001383,0.00000312,0.00000337,0.00000316,0.00101509,-0.00380657,-
 0.00992815,-0.00010407,0.00000889,0.00013526,-0.00083482,-0.00029514,0
 .00070975,0.00000077,-0.00000127,-0.00000021,0.00000604,0.00000191,-0.
 00000901,0.00000347,-0.00000058,-0.00000094,-0.00948792,-0.07399484,-0
 .31650506,-0.00080735,-0.00266593,0.00147262,-0.00000009,-0.00000008,0
 .00000048,-0.00273893,-0.00442222,-0.01073678,0.01203817,0.08233912,0.
 33423685\\-0.00083058,-0.00132103,-0.00001170,0.00084867,0.00042650,-0
 .00000361,-0.00000425,0.00089184,0.00004366,-0.00001533,-0.00001925,0.
 00001020,0.00000669,-0.00000115,-0.00002396,0.00001810,-0.00000999,-0.
 00000081,-0.00000095,0.00000725,-0.00000530,-0.00001301,-0.00000576,-0
 .00000495,0.00000222,0.00000151,-0.00000458,-0.00000262,0.00000408,0.0
 0000053,-0.00002028,0.00004692,-0.00001016,-0.00000052,-0.00000117,-0.
 00000280,-0.00000426,-0.00000295,-0.00000446,0.00000005,0.00000415,-0.
 00000021,0.00000185,-0.00000019,0.00000627,-0.00000263,0.00000484,0.00
 000029,0.00002551,-0.00005128,0.00001228,0.00000476,0.00000041,0.00000
 087,-0.00000181,0.00000210,0.00000044,-0.00000215,0.00000949,0.0000013
 0,-0.00000946,0.00001370,-0.00000330\\\@


 THOUGH I SPEAK WITH THE TONGUES OF MEN AND OF ANGELS, 
 AND HAVE NOT LOVE,
 I AM BECOME AS SOUNDING BRASS, A TINKLING CYMBAL.
 AND THOUGH I HAVE THE GIFT OF PROPHECY,
 AND UNDERSTAND ALL MYSTERIES, AND ALL KNOWLEDGE.
 AND THOUGH I HAVE ALL FAITH, SO THAT I COULD REMOVE MOUNTAINS,
 AND HAVE NOT LOVE, I AM NOTHING.
 AND THOUGH I BESTOW ALL MY GOODS TO FEED THE POOR,
 AND THOUGH I GIVE MY BODY TO BE BURNED,
 AND HAVE NOT LOVE IT PROFITETH ME NOTHING.
 LOVE SUFFERETH LONG, AND IS KIND,
 LOVE ENVIETH NOT,
 LOVE VAUNTETH NOT ITSELF, IS NOT PUFFED UP,
 DOTH NOT BEHAVE ITSELF UNSEEMLY, SEEKETH NOT HER OWN,
 IS NOT EASILY PROVOKED, THINKETH NO EVIL,
 REJOICETH NOT IN INIQUITY, BUT REJOICETH IN THE TRUTH,
 BEARETH ALL THINGS, BELIEVETH ALL THINGS,
 HOPETH ALL THINGS, ENDURETH ALL THINGS.
 LOVE NEVER FAILETH, BUT WHETHER THERE BE PROPHECIES, THEY SHALL FAIL, 
 WHETHER THERE BE TONGUES, THEY SHALL CEASE,
 WHETHER THERE BE KNOWLEDGE, IT SHALL VANISH AWAY.
 FOR WE KNOW IN PART, AND WE PROPHESY IN PART.
 BUT WHEN THAT WHICH IS PERFECT IS COME, THEN THAT WHICH IS IN PART 
 SHALL BE DONE AWAY. 
 WHEN I WAS A CHILD, I SPAKE AS A CHILD, I UNDERSTOOD AS A CHILD, 
 I THOUGHT AS A CHILD.
 BUT WHEN I BECAME A MAN, I PUT AWAY CHILDISH THINGS.
 FOR NOW WE SEE THROUGH A GLASS, DARKLY, BUT THEN FACE TO FACE.
 NOW I KNOW IN PART. BUT THEN SHALL I KNOW EVEN AS ALSO I AM KNOWN.
 AND NOW ABIDETH FAITH, HOPE AND LOVE, THESE THREE.
 BUT THE GREATEST OF THESE IS LOVE.

                     I CORINTHIANS 13
 Job cpu time:       0 days  3 hours  8 minutes 12.0 seconds.
 Elapsed time:       0 days  0 hours 15 minutes 41.5 seconds.
 File lengths (MBytes):  RWF=    290 Int=      0 D2E=      0 Chk=     32 Scr=      1
 Normal termination of Gaussian 16 at Fri Jun 10 12:43:45 2022.
