 Entering Gaussian System, Link 0=g16
 Input=int_initalOpt_zmat_sp.gjf
 Output=int_initalOpt_zmat_sp.out
 Initial command:
 /software/gaussian/g16-a03/l1.exe "/local_scratch/11171283/Gau-24543.inp" -scrdir="/local_scratch/11171283/"
 Entering Link 1 = /software/gaussian/g16-a03/l1.exe PID=     24544.
  
 Copyright (c) 1988,1990,1992,1993,1995,1998,2003,2009,2016,
            Gaussian, Inc.  All Rights Reserved.
  
 This is part of the Gaussian(R) 16 program.  It is based on
 the Gaussian(R) 09 system (copyright 2009, Gaussian, Inc.),
 the Gaussian(R) 03 system (copyright 2003, Gaussian, Inc.),
 the Gaussian(R) 98 system (copyright 1998, Gaussian, Inc.),
 the Gaussian(R) 94 system (copyright 1995, Gaussian, Inc.),
 the Gaussian 92(TM) system (copyright 1992, Gaussian, Inc.),
 the Gaussian 90(TM) system (copyright 1990, Gaussian, Inc.),
 the Gaussian 88(TM) system (copyright 1988, Gaussian, Inc.),
 the Gaussian 86(TM) system (copyright 1986, Carnegie Mellon
 University), and the Gaussian 82(TM) system (copyright 1983,
 Carnegie Mellon University). Gaussian is a federally registered
 trademark of Gaussian, Inc.
  
 This software contains proprietary and confidential information,
 including trade secrets, belonging to Gaussian, Inc.
  
 This software is provided under written license and may be
 used, copied, transmitted, or stored only in accord with that
 written license.
  
 The following legend is applicable only to US Government
 contracts under FAR:
  
                    RESTRICTED RIGHTS LEGEND
  
 Use, reproduction and disclosure by the US Government is
 subject to restrictions as set forth in subparagraphs (a)
 and (c) of the Commercial Computer Software - Restricted
 Rights clause in FAR 52.227-19.
  
 Gaussian, Inc.
 340 Quinnipiac St., Bldg. 40, Wallingford CT 06492
  
  
 ---------------------------------------------------------------
 Warning -- This program may not be used in any manner that
 competes with the business of Gaussian, Inc. or will provide
 assistance to any competitor of Gaussian, Inc.  The licensee
 of this program is prohibited from giving any competitor of
 Gaussian, Inc. access to this program.  By using this program,
 the user acknowledges that Gaussian, Inc. is engaged in the
 business of creating and licensing software in the field of
 computational chemistry and represents and warrants to the
 licensee that it is not a competitor of Gaussian, Inc. and that
 it will not use this program in any manner prohibited above.
 ---------------------------------------------------------------
  

 Cite this work as:
 Gaussian 16, Revision A.03,
 M. J. Frisch, G. W. Trucks, H. B. Schlegel, G. E. Scuseria, 
 M. A. Robb, J. R. Cheeseman, G. Scalmani, V. Barone, 
 G. A. Petersson, H. Nakatsuji, X. Li, M. Caricato, A. V. Marenich, 
 J. Bloino, B. G. Janesko, R. Gomperts, B. Mennucci, H. P. Hratchian, 
 J. V. Ortiz, A. F. Izmaylov, J. L. Sonnenberg, D. Williams-Young, 
 F. Ding, F. Lipparini, F. Egidi, J. Goings, B. Peng, A. Petrone, 
 T. Henderson, D. Ranasinghe, V. G. Zakrzewski, J. Gao, N. Rega, 
 G. Zheng, W. Liang, M. Hada, M. Ehara, K. Toyota, R. Fukuda, 
 J. Hasegawa, M. Ishida, T. Nakajima, Y. Honda, O. Kitao, H. Nakai, 
 T. Vreven, K. Throssell, J. A. Montgomery, Jr., J. E. Peralta, 
 F. Ogliaro, M. J. Bearpark, J. J. Heyd, E. N. Brothers, K. N. Kudin, 
 V. N. Staroverov, T. A. Keith, R. Kobayashi, J. Normand, 
 K. Raghavachari, A. P. Rendell, J. C. Burant, S. S. Iyengar, 
 J. Tomasi, M. Cossi, J. M. Millam, M. Klene, C. Adamo, R. Cammi, 
 J. W. Ochterski, R. L. Martin, K. Morokuma, O. Farkas, 
 J. B. Foresman, and D. J. Fox, Gaussian, Inc., Wallingford CT, 2016.
 
 ******************************************
 Gaussian 16:  ES64L-G16RevA.03 25-Dec-2016
                10-Jun-2022 
 ******************************************
 %nprocshared=12
 Will use up to   12 processors via shared memory.
 %chk=checkpoint.chk
 %mem=12GB
 --------------------------
 # sp B3LYP/Def2TZVP NoSymm
 --------------------------
 1/38=1,172=1/1;
 2/12=2,15=1,17=6,18=5,40=1/2;
 3/5=44,7=101,11=2,25=1,30=1,74=-5/1,2,3;
 4//1;
 5/5=2,38=5/2;
 6/7=2,8=2,9=2,10=2,28=1/1;
 99/5=1,9=1/99;
 ----------------------------
 int_initalOpt_zmat_AlignedSp
 ----------------------------
 Symbolic Z-matrix:
 Charge =  0 Multiplicity = 1
 C
 C                    1    R2
 C                    1    R3       2    A3
 H                    1    R4       2    A4       3    D4       0
 O                    3    R5       1    A5       2    D5       0
 C                    2    R6       1    A6       3    D6       0
 H                    2    R7       1    A7       6    D7       0
 C                    6    R8       2    A8       1    D8       0
 H                    6    R9       2    A9       8    D9       0
 C                    8    R10      6    A10      2    D10      0
 N                    8    R11      6    A11      10   D11      0
 H                    10   R12      8    A12      6    D12      0
 C                    10   R13      8    A13      12   D13      0
 C                    11   R14      8    A14      6    D14      0
 H                    11   R15      8    A15      14   D15      0
 H                    13   R16      10   A16      8    D16      0
 H                    14   R17      11   A17      8    D17      0
       Variables:
  R2                    1.45401                  
  R3                    1.31998                  
  R4                    1.08514                  
  R5                    1.15845                  
  R6                    1.34727                  
  R7                    1.0832                   
  R8                    1.44481                  
  R9                    1.08623                  
  R10                   1.38864                  
  R11                   1.38161                  
  R12                   1.07576                  
  R13                   1.41452                  
  R14                   1.36598                  
  R15                   1.00484                  
  R16                   1.07724                  
  R17                   1.07652                  
  A3                  129.55525                  
  A4                  118.0439                   
  A5                  176.33458                  
  A6                  131.31079                  
  A7                  112.47716                  
  A8                  130.23634                  
  A9                  115.27054                  
  A10                 134.06789                  
  A11                 119.70483                  
  A12                 125.97988                  
  A13                 108.13984                  
  A14                 110.6512                   
  A15                 124.15012                  
  A16                 126.67419                  
  A17                 121.39736                  
  D4                 -173.38415                  
  D5                  176.91057                  
  D6                  -17.85921                  
  D7                  179.19384                  
  D8                   -5.10925                  
  D9                 -179.21448                  
  D10                 -24.54256                  
  D11                -175.41855                  
  D12                   0.50037                  
  D13                -176.85455                  
  D14                 177.41161                  
  D15                 176.13526                  
  D16                 179.52434                  
  D17                 179.02346                  
 
                          Input orientation:                          
 ---------------------------------------------------------------------
 Center     Atomic      Atomic             Coordinates (Angstroms)
 Number     Number       Type             X           Y           Z
 ---------------------------------------------------------------------
      1          6           0        0.000000    0.000000    0.000000
      2          6           0        0.000000    0.000000    1.454005
      3          6           0        1.017718    0.000000   -0.840592
      4          1           0       -0.951356    0.110342   -0.510178
      5          8           0        1.861972   -0.003991   -1.633825
      6          6           0        0.963221   -0.310355    2.343394
      7          1           0       -0.948265    0.320331    1.868128
      8          6           0        2.290594   -0.841237    2.134305
      9          1           0        0.702013   -0.148387    3.385237
     10          6           0        2.883659   -1.589855    1.126249
     11          7           0        3.247175   -0.701476    3.121354
     12          1           0        2.402398   -1.933266    0.227513
     13          6           0        4.209994   -1.885240    1.519265
     14          6           0        4.410479   -1.316885    2.755424
     15          1           0        3.116790   -0.165768    3.961426
     16          1           0        4.933877   -2.456641    0.962551
     17          1           0        5.277931   -1.300941    3.392731
 ---------------------------------------------------------------------
                    Distance matrix (angstroms):
                    1          2          3          4          5
     1  C    0.000000
     2  C    1.454005   0.000000
     3  C    1.319979   2.510164   0.000000
     4  H    1.085143   2.185238   1.999650   0.000000
     5  O    2.477164   3.605780   1.158447   3.031579   0.000000
     6  C    2.552570   1.347267   3.199540   3.462003   4.088995
     7  H    2.119367   1.083197   3.362270   2.387560   4.501809
     8  C    3.241876   2.533241   3.343337   4.290575   3.883748
     9  H    3.460443   2.060217   4.240202   4.239672   5.153381
    10  C    3.480167   3.309162   3.142902   4.502877   3.343174
    11  N    4.558406   3.717024   4.599952   5.610235   5.001699
    12  H    3.092053   3.318631   2.606857   3.996021   2.734728
    13  C    4.856578   4.613289   4.394733   5.894109   4.358243
    14  C    5.364594   4.783325   5.116282   6.438199   5.242526
    15  H    5.043288   4.003626   5.243373   6.051553   5.736512
    16  H    5.595063   5.533512   4.962127   6.587435   4.710972
    17  H    6.407778   5.771279   6.145151   7.485214   6.214267
                    6          7          8          9         10
     6  C    0.000000
     7  H    2.068193   0.000000
     8  C    1.444809   3.451130   0.000000
     9  H    1.086232   2.290138   2.137396   0.000000
    10  C    2.608954   4.345438   1.388644   3.455493   0.000000
    11  N    2.444308   4.496263   1.381610   2.617899   2.214002
    12  H    3.030185   4.358584   2.200200   4.006035   1.075765
    13  C    3.701484   5.620844   2.269871   4.336409   1.414525
    14  C    3.614755   5.673086   2.259633   3.938880   2.249423
    15  H    2.697553   4.598137   2.115947   2.482629   3.181290
    16  H    4.720104   6.567437   3.312021   5.395008   2.231929
    17  H    4.549625   6.611993   3.274010   4.718841   3.309524
                   11         12         13         14         15
    11  N    0.000000
    12  H    3.256573   0.000000
    13  C    2.212466   2.222237   0.000000
    14  C    1.365982   3.286738   1.375249   0.000000
    15  H    1.004841   4.192435   3.180539   2.110247   0.000000
    16  H    3.253613   2.687487   1.077236   2.188009   4.188456
    17  H    2.134706   4.322861   2.234226   1.076516   2.506504
                   16         17
    16  H    0.000000
    17  H    2.712893   0.000000
 Symmetry turned off by external request.
 Stoichiometry    C8H7NO
 Framework group  C1[X(C8H7NO)]
 Deg. of freedom    45
 Full point group                 C1      NOp   1
 Rotational constants (GHZ):           2.4040287           0.9754095           0.7267253
 Standard basis: def2TZVP (5D, 7F)
   352 basis functions,   566 primitive gaussians,   402 cartesian basis functions
    35 alpha electrons       35 beta electrons
       nuclear repulsion energy       459.9970948697 Hartrees.
 NAtoms=   17 NActive=   17 NUniq=   17 SFac= 1.00D+00 NAtFMM=   60 NAOKFM=F Big=F
 Integral buffers will be    131072 words long.
 Raffenetti 2 integral format.
 Two-electron integral symmetry is turned off.
 One-electron integrals computed using PRISM.
   1 Symmetry operations used in ECPInt.
 ECPInt:  NShTT=    9591 NPrTT=   29644 LenC2=    9221 LenP2D=   22129.
 LDataN:  DoStor=T MaxTD1= 6 Len=  172
 NBasis=   352 RedAO= T EigKep=  3.29D-05  NBF=   352
 NBsUse=   352 1.00D-06 EigRej= -1.00D+00 NBFU=   352
 ExpMin= 9.52D-02 ExpMax= 2.70D+04 ExpMxC= 9.22D+02 IAcc=3 IRadAn=         5 AccDes= 0.00D+00
 Harris functional with IExCor=  402 and IRadAn=       5 diagonalized for initial guess.
 HarFok:  IExCor=  402 AccDes= 0.00D+00 IRadAn=         5 IDoV= 1 UseB2=F ITyADJ=14
 ICtDFT=  3500011 ScaDFX=  1.000000  1.000000  1.000000  1.000000
 FoFCou: FMM=F IPFlag=           0 FMFlag=      100000 FMFlg1=           0
         NFxFlg=           0 DoJE=T BraDBF=F KetDBF=T FulRan=T
         wScrn=  0.000000 ICntrl=       500 IOpCl=  0 I1Cent=   200000004 NGrid=           0
         NMat0=    1 NMatS0=      1 NMatT0=    0 NMatD0=    1 NMtDS0=    0 NMtDT0=    0
 Symmetry not used in FoFCou.
 Requested convergence on RMS density matrix=1.00D-08 within 128 cycles.
 Requested convergence on MAX density matrix=1.00D-06.
 Requested convergence on             energy=1.00D-06.
 No special actions if energy rises.
 Integral accuracy reduced to 1.0D-05 until final iterations.
 Initial convergence to 1.0D-05 achieved.  Increase integral accuracy.
 SCF Done:  E(RB3LYP) =  -439.153854565     A.U. after   15 cycles
            NFock= 15  Conv=0.68D-08     -V/T= 2.0049

 **********************************************************************

            Population analysis using the SCF density.

 **********************************************************************

 Alpha  occ. eigenvalues --  -19.19830 -14.36149 -10.29963 -10.20234 -10.19481
 Alpha  occ. eigenvalues --  -10.19328 -10.19086 -10.17933 -10.15786 -10.15722
 Alpha  occ. eigenvalues --   -1.12788  -0.98269  -0.82669  -0.77797  -0.76941
 Alpha  occ. eigenvalues --   -0.71156  -0.62152  -0.59481  -0.57514  -0.54441
 Alpha  occ. eigenvalues --   -0.51928  -0.50766  -0.46470  -0.45926  -0.45741
 Alpha  occ. eigenvalues --   -0.43171  -0.41975  -0.40733  -0.39720  -0.38854
 Alpha  occ. eigenvalues --   -0.36368  -0.32507  -0.25328  -0.25187  -0.19186
 Alpha virt. eigenvalues --   -0.04578  -0.03416   0.02747   0.03967   0.05137
 Alpha virt. eigenvalues --    0.06106   0.07072   0.08264   0.09145   0.09873
 Alpha virt. eigenvalues --    0.11641   0.12120   0.12408   0.15060   0.16411
 Alpha virt. eigenvalues --    0.18013   0.19143   0.20310   0.21482   0.21598
 Alpha virt. eigenvalues --    0.22758   0.23083   0.24553   0.25098   0.26244
 Alpha virt. eigenvalues --    0.26724   0.27604   0.28388   0.29054   0.30582
 Alpha virt. eigenvalues --    0.32643   0.33031   0.33618   0.35740   0.36062
 Alpha virt. eigenvalues --    0.37193   0.37906   0.38434   0.39165   0.39602
 Alpha virt. eigenvalues --    0.41023   0.41336   0.42647   0.43224   0.43705
 Alpha virt. eigenvalues --    0.44554   0.46453   0.46519   0.48106   0.49181
 Alpha virt. eigenvalues --    0.49798   0.52359   0.52906   0.55012   0.55538
 Alpha virt. eigenvalues --    0.56835   0.58420   0.59313   0.60348   0.61752
 Alpha virt. eigenvalues --    0.63488   0.63997   0.65595   0.67052   0.68906
 Alpha virt. eigenvalues --    0.69200   0.70929   0.72699   0.75233   0.76457
 Alpha virt. eigenvalues --    0.77471   0.80013   0.81888   0.83317   0.86103
 Alpha virt. eigenvalues --    0.87397   0.88102   0.88707   0.90410   0.92814
 Alpha virt. eigenvalues --    0.95178   0.96835   0.98048   0.99660   1.00716
 Alpha virt. eigenvalues --    1.04594   1.06618   1.07307   1.09304   1.10673
 Alpha virt. eigenvalues --    1.12175   1.14710   1.15993   1.17375   1.18943
 Alpha virt. eigenvalues --    1.19772   1.21475   1.22226   1.24480   1.27002
 Alpha virt. eigenvalues --    1.28228   1.29279   1.32703   1.34214   1.36665
 Alpha virt. eigenvalues --    1.37133   1.37649   1.39446   1.41937   1.42709
 Alpha virt. eigenvalues --    1.45273   1.45487   1.46882   1.48492   1.49469
 Alpha virt. eigenvalues --    1.50565   1.51948   1.52624   1.53699   1.57456
 Alpha virt. eigenvalues --    1.57766   1.59740   1.60726   1.62878   1.63368
 Alpha virt. eigenvalues --    1.65200   1.66778   1.69904   1.72222   1.74077
 Alpha virt. eigenvalues --    1.74770   1.80159   1.81275   1.84220   1.85950
 Alpha virt. eigenvalues --    1.86456   1.90922   1.92717   1.94636   1.95945
 Alpha virt. eigenvalues --    1.97391   2.01442   2.02327   2.04652   2.07590
 Alpha virt. eigenvalues --    2.08380   2.11836   2.13839   2.15270   2.17632
 Alpha virt. eigenvalues --    2.20880   2.22302   2.22772   2.26026   2.27401
 Alpha virt. eigenvalues --    2.27865   2.29747   2.32148   2.33372   2.40743
 Alpha virt. eigenvalues --    2.42063   2.43696   2.46456   2.51097   2.52931
 Alpha virt. eigenvalues --    2.54694   2.55169   2.56518   2.58062   2.59481
 Alpha virt. eigenvalues --    2.61118   2.62231   2.64962   2.65517   2.66796
 Alpha virt. eigenvalues --    2.68284   2.69891   2.70711   2.72204   2.72555
 Alpha virt. eigenvalues --    2.73233   2.74160   2.75844   2.79641   2.80158
 Alpha virt. eigenvalues --    2.82202   2.82946   2.84265   2.86013   2.88366
 Alpha virt. eigenvalues --    2.89161   2.90479   2.91547   2.93020   2.94668
 Alpha virt. eigenvalues --    2.95723   2.98240   3.00835   3.02072   3.02434
 Alpha virt. eigenvalues --    3.04033   3.04722   3.06276   3.06796   3.07561
 Alpha virt. eigenvalues --    3.08420   3.10299   3.12518   3.13555   3.14646
 Alpha virt. eigenvalues --    3.17502   3.18480   3.18941   3.19377   3.20979
 Alpha virt. eigenvalues --    3.23481   3.24334   3.26174   3.28423   3.28593
 Alpha virt. eigenvalues --    3.30702   3.32171   3.34589   3.35875   3.37723
 Alpha virt. eigenvalues --    3.39268   3.40215   3.43459   3.47972   3.48166
 Alpha virt. eigenvalues --    3.48741   3.50169   3.52684   3.53029   3.56653
 Alpha virt. eigenvalues --    3.57937   3.60349   3.63489   3.64128   3.66283
 Alpha virt. eigenvalues --    3.70709   3.72826   3.74077   3.79014   3.81208
 Alpha virt. eigenvalues --    3.84930   3.87417   3.90970   3.94379   3.95473
 Alpha virt. eigenvalues --    3.98107   4.01355   4.01518   4.04742   4.06886
 Alpha virt. eigenvalues --    4.17218   4.19206   4.21407   4.22628   4.24575
 Alpha virt. eigenvalues --    4.29928   4.31876   4.34869   4.37527   4.41905
 Alpha virt. eigenvalues --    4.48809   4.51325   4.56321   4.61747   4.64542
 Alpha virt. eigenvalues --    4.67199   4.70156   4.74268   4.77770   4.79002
 Alpha virt. eigenvalues --    4.82181   4.83116   4.88373   4.93674   4.95654
 Alpha virt. eigenvalues --    4.98070   5.02738   5.09855   5.10273   5.10501
 Alpha virt. eigenvalues --    5.10980   5.16490   5.21885   5.24376   5.26937
 Alpha virt. eigenvalues --    5.36689   5.43432   5.52428   5.58075   5.60161
 Alpha virt. eigenvalues --    5.61537   5.72584   5.91606   6.01016   6.27415
 Alpha virt. eigenvalues --    6.29498   6.51650   6.57505   6.62847   6.78895
 Alpha virt. eigenvalues --    6.83058   7.17694  22.29544  22.48791  22.64633
 Alpha virt. eigenvalues --   22.66874  22.76181  22.87209  23.20479  23.51770
 Alpha virt. eigenvalues --   32.32616  43.94848
          Condensed to atoms (all electrons):
               1          2          3          4          5          6
     1  C    5.139152   0.333743   0.557329   0.396402  -0.042075  -0.025961
     2  C    0.333743   4.880689  -0.034246  -0.020897   0.002597   0.636138
     3  C    0.557329  -0.034246   4.663061  -0.037708   0.624493  -0.015458
     4  H    0.396402  -0.020897  -0.037708   0.514852  -0.000289   0.004344
     5  O   -0.042075   0.002597   0.624493  -0.000289   7.549348   0.000964
     6  C   -0.025961   0.636138  -0.015458   0.004344   0.000964   5.087622
     7  H   -0.057051   0.407488   0.004609  -0.005563  -0.000091  -0.032787
     8  C   -0.040099  -0.083630   0.004649   0.000705  -0.002143   0.319510
     9  H    0.012071  -0.021216   0.000528  -0.000206  -0.000018   0.413942
    10  C    0.006996  -0.028721   0.003054   0.000230  -0.006281  -0.110068
    11  N    0.000559   0.000429  -0.000785   0.000005  -0.000026  -0.046008
    12  H   -0.004259  -0.002099  -0.005124   0.000200   0.004103  -0.003594
    13  C   -0.000267   0.002772   0.002368  -0.000016  -0.000552   0.019748
    14  C   -0.000242  -0.000854  -0.000339   0.000001   0.000037  -0.000349
    15  H    0.000050   0.000031  -0.000038   0.000001   0.000000   0.001101
    16  H    0.000014  -0.000007   0.000034   0.000000  -0.000023  -0.000292
    17  H   -0.000006   0.000038  -0.000001  -0.000000   0.000001  -0.000679
               7          8          9         10         11         12
     1  C   -0.057051  -0.040099   0.012071   0.006996   0.000559  -0.004259
     2  C    0.407488  -0.083630  -0.021216  -0.028721   0.000429  -0.002099
     3  C    0.004609   0.004649   0.000528   0.003054  -0.000785  -0.005124
     4  H   -0.005563   0.000705  -0.000206   0.000230   0.000005   0.000200
     5  O   -0.000091  -0.002143  -0.000018  -0.006281  -0.000026   0.004103
     6  C   -0.032787   0.319510   0.413942  -0.110068  -0.046008  -0.003594
     7  H    0.574464   0.013756  -0.013639  -0.000310  -0.000279  -0.000016
     8  C    0.013756   5.034162  -0.084963   0.507454   0.369770  -0.060944
     9  H   -0.013639  -0.084963   0.592748   0.001521   0.001696  -0.000297
    10  C   -0.000310   0.507454   0.001521   5.074455  -0.059618   0.446046
    11  N   -0.000279   0.369770   0.001696  -0.059618   6.332230   0.005183
    12  H   -0.000016  -0.060944  -0.000297   0.446046   0.005183   0.533506
    13  C    0.000048  -0.044482  -0.000873   0.436525  -0.110026  -0.048724
    14  C    0.000022  -0.143714   0.000825  -0.041371   0.410073   0.013527
    15  H   -0.000038  -0.052312   0.003107   0.012294   0.381421  -0.000202
    16  H   -0.000000   0.011978   0.000024  -0.047397   0.004678  -0.004522
    17  H   -0.000001   0.006614  -0.000026   0.005325  -0.034227  -0.000090
              13         14         15         16         17
     1  C   -0.000267  -0.000242   0.000050   0.000014  -0.000006
     2  C    0.002772  -0.000854   0.000031  -0.000007   0.000038
     3  C    0.002368  -0.000339  -0.000038   0.000034  -0.000001
     4  H   -0.000016   0.000001   0.000001   0.000000  -0.000000
     5  O   -0.000552   0.000037   0.000000  -0.000023   0.000001
     6  C    0.019748  -0.000349   0.001101  -0.000292  -0.000679
     7  H    0.000048   0.000022  -0.000038  -0.000000  -0.000001
     8  C   -0.044482  -0.143714  -0.052312   0.011978   0.006614
     9  H   -0.000873   0.000825   0.003107   0.000024  -0.000026
    10  C    0.436525  -0.041371   0.012294  -0.047397   0.005325
    11  N   -0.110026   0.410073   0.381421   0.004678  -0.034227
    12  H   -0.048724   0.013527  -0.000202  -0.004522  -0.000090
    13  C    4.936503   0.556353   0.005890   0.433401  -0.024530
    14  C    0.556353   4.947078  -0.038325  -0.049520   0.409867
    15  H    0.005890  -0.038325   0.479696  -0.000257  -0.004326
    16  H    0.433401  -0.049520  -0.000257   0.544564  -0.001982
    17  H   -0.024530   0.409867  -0.004326  -0.001982   0.512670
 Mulliken charges:
               1
     1  C   -0.276355
     2  C   -0.072255
     3  C    0.233576
     4  H    0.147940
     5  O   -0.130044
     6  C   -0.248172
     7  H    0.109388
     8  C    0.243686
     9  H    0.094777
    10  C   -0.200134
    11  N   -0.255075
    12  H    0.127305
    13  C   -0.164137
    14  C   -0.063069
    15  H    0.211907
    16  H    0.109308
    17  H    0.131355
 Sum of Mulliken charges =  -0.00000
 Mulliken charges with hydrogens summed into heavy atoms:
               1
     1  C   -0.128415
     2  C    0.037134
     3  C    0.233576
     5  O   -0.130044
     6  C   -0.153396
     8  C    0.243686
    10  C   -0.072829
    11  N   -0.043168
    13  C   -0.054829
    14  C    0.068285
 Electronic spatial extent (au):  <R**2>=           3092.8565
 Charge=             -0.0000 electrons
 Dipole moment (field-independent basis, Debye):
    X=             -0.8649    Y=              0.8006    Z=              2.0779  Tot=              2.3889
 Quadrupole moment (field-independent basis, Debye-Ang):
   XX=            -55.2864   YY=            -62.4535   ZZ=            -47.4340
   XY=             -0.2336   XZ=              9.0416   YZ=              3.4224
 Traceless Quadrupole moment (field-independent basis, Debye-Ang):
   XX=             -0.2284   YY=             -7.3955   ZZ=              7.6240
   XY=             -0.2336   XZ=              9.0416   YZ=              3.4224
 Octapole moment (field-independent basis, Debye-Ang**2):
  XXX=           -341.3696  YYY=            126.2858  ZZZ=           -154.9785  XYY=           -125.3314
  XXY=             32.9112  XXZ=            -35.8083  XZZ=            -85.5451  YZZ=             48.6650
  YYZ=            -86.1581  XYZ=              5.9236
 Hexadecapole moment (field-independent basis, Debye-Ang**3):
 XXXX=          -2308.0118 YYYY=           -436.4007 ZZZZ=          -1127.9223 XXXY=            348.1196
 XXXZ=           -466.4463 YYYX=            437.5816 YYYZ=            255.2888 ZZZX=           -427.1779
 ZZZY=            248.7788 XXYY=           -480.6541 XXZZ=           -487.5014 YYZZ=           -335.8076
 XXYZ=             79.5596 YYXZ=           -243.7519 ZZXY=            154.3686
 N-N= 4.599970948697D+02 E-N=-1.942475195022D+03  KE= 4.370010363629D+02
 1\1\GINC-BHC0106\SP\RB3LYP\def2TZVP\C8H7N1O1\DHANAWAY\10-Jun-2022\0\\#
  sp B3LYP/Def2TZVP NoSymm\\int_initalOpt_zmat_AlignedSp\\0,1\C\C,1,1.4
 5400505\C,1,1.3199791,2,129.55524833\H,1,1.08514269,2,118.04390291,3,-
 173.384148,0\O,3,1.15844692,1,176.33458384,2,176.91056627,0\C,2,1.3472
 6709,1,131.31079472,3,-17.85921372,0\H,2,1.0831968,1,112.47716148,6,17
 9.19383763,0\C,6,1.44480889,2,130.23633918,1,-5.10925485,0\H,6,1.08623
 152,2,115.27054261,8,-179.21447778,0\C,8,1.38864366,6,134.06788837,2,-
 24.54255632,0\N,8,1.38160983,6,119.70483291,10,-175.41855432,0\H,10,1.
 07576465,8,125.97987791,6,0.50036917,0\C,10,1.41452459,8,108.13983687,
 12,-176.85455485,0\C,11,1.36598234,8,110.65120306,6,177.41161158,0\H,1
 1,1.00484123,8,124.15012208,14,176.13526142,0\H,13,1.07723553,10,126.6
 741883,8,179.52434318,0\H,14,1.07651633,11,121.39735624,8,179.02346221
 ,0\\Version=ES64L-G16RevA.03\HF=-439.1538546\RMSD=6.847e-09\Dipole=-0.
 3402669,0.3149806,0.8175106\Quadrupole=-0.1698343,-5.4983972,5.6682315
 ,-0.1737094,6.7222013,2.5444988\PG=C01 [X(C8H7N1O1)]\\@


 THE SECRET OF SUCCESS IN LIFE IS TO EAT WHAT YOU LIKE, AND LET THE FOOD
 FIGHT IT OUT INSIDE YOU. -- FROM A FORTUNE COOKIE
 Job cpu time:       0 days  0 hours 15 minutes 55.5 seconds.
 Elapsed time:       0 days  0 hours  1 minutes 19.9 seconds.
 File lengths (MBytes):  RWF=     71 Int=      0 D2E=      0 Chk=     32 Scr=      1
 Normal termination of Gaussian 16 at Fri Jun 10 02:29:44 2022.
