 Entering Gaussian System, Link 0=g16
 Input=int_zmat_field_N100.gjf
 Output=int_zmat_field_N100.out
 Initial command:
 /software/gaussian/g16-a03/l1.exe "/local_scratch/11174590/Gau-957.inp" -scrdir="/local_scratch/11174590/"
 Entering Link 1 = /software/gaussian/g16-a03/l1.exe PID=       958.
  
 Copyright (c) 1988,1990,1992,1993,1995,1998,2003,2009,2016,
            Gaussian, Inc.  All Rights Reserved.
  
 This is part of the Gaussian(R) 16 program.  It is based on
 the Gaussian(R) 09 system (copyright 2009, Gaussian, Inc.),
 the Gaussian(R) 03 system (copyright 2003, Gaussian, Inc.),
 the Gaussian(R) 98 system (copyright 1998, Gaussian, Inc.),
 the Gaussian(R) 94 system (copyright 1995, Gaussian, Inc.),
 the Gaussian 92(TM) system (copyright 1992, Gaussian, Inc.),
 the Gaussian 90(TM) system (copyright 1990, Gaussian, Inc.),
 the Gaussian 88(TM) system (copyright 1988, Gaussian, Inc.),
 the Gaussian 86(TM) system (copyright 1986, Carnegie Mellon
 University), and the Gaussian 82(TM) system (copyright 1983,
 Carnegie Mellon University). Gaussian is a federally registered
 trademark of Gaussian, Inc.
  
 This software contains proprietary and confidential information,
 including trade secrets, belonging to Gaussian, Inc.
  
 This software is provided under written license and may be
 used, copied, transmitted, or stored only in accord with that
 written license.
  
 The following legend is applicable only to US Government
 contracts under FAR:
  
                    RESTRICTED RIGHTS LEGEND
  
 Use, reproduction and disclosure by the US Government is
 subject to restrictions as set forth in subparagraphs (a)
 and (c) of the Commercial Computer Software - Restricted
 Rights clause in FAR 52.227-19.
  
 Gaussian, Inc.
 340 Quinnipiac St., Bldg. 40, Wallingford CT 06492
  
  
 ---------------------------------------------------------------
 Warning -- This program may not be used in any manner that
 competes with the business of Gaussian, Inc. or will provide
 assistance to any competitor of Gaussian, Inc.  The licensee
 of this program is prohibited from giving any competitor of
 Gaussian, Inc. access to this program.  By using this program,
 the user acknowledges that Gaussian, Inc. is engaged in the
 business of creating and licensing software in the field of
 computational chemistry and represents and warrants to the
 licensee that it is not a competitor of Gaussian, Inc. and that
 it will not use this program in any manner prohibited above.
 ---------------------------------------------------------------
  

 Cite this work as:
 Gaussian 16, Revision A.03,
 M. J. Frisch, G. W. Trucks, H. B. Schlegel, G. E. Scuseria, 
 M. A. Robb, J. R. Cheeseman, G. Scalmani, V. Barone, 
 G. A. Petersson, H. Nakatsuji, X. Li, M. Caricato, A. V. Marenich, 
 J. Bloino, B. G. Janesko, R. Gomperts, B. Mennucci, H. P. Hratchian, 
 J. V. Ortiz, A. F. Izmaylov, J. L. Sonnenberg, D. Williams-Young, 
 F. Ding, F. Lipparini, F. Egidi, J. Goings, B. Peng, A. Petrone, 
 T. Henderson, D. Ranasinghe, V. G. Zakrzewski, J. Gao, N. Rega, 
 G. Zheng, W. Liang, M. Hada, M. Ehara, K. Toyota, R. Fukuda, 
 J. Hasegawa, M. Ishida, T. Nakajima, Y. Honda, O. Kitao, H. Nakai, 
 T. Vreven, K. Throssell, J. A. Montgomery, Jr., J. E. Peralta, 
 F. Ogliaro, M. J. Bearpark, J. J. Heyd, E. N. Brothers, K. N. Kudin, 
 V. N. Staroverov, T. A. Keith, R. Kobayashi, J. Normand, 
 K. Raghavachari, A. P. Rendell, J. C. Burant, S. S. Iyengar, 
 J. Tomasi, M. Cossi, J. M. Millam, M. Klene, C. Adamo, R. Cammi, 
 J. W. Ochterski, R. L. Martin, K. Morokuma, O. Farkas, 
 J. B. Foresman, and D. J. Fox, Gaussian, Inc., Wallingford CT, 2016.
 
 ******************************************
 Gaussian 16:  ES64L-G16RevA.03 25-Dec-2016
                10-Jun-2022 
 ******************************************
 %nprocshared=12
 Will use up to   12 processors via shared memory.
 %chk=checkpoint.chk
 %mem=12GB
 ----------------------------------------------------------------------
 # Opt=(Z-matrix, MaxStep=10) B3LYP/Def2TZVP geom=allcheckpoint guess=r
 ead Field=read NoSymm freq=noraman pop=none
 ----------------------------------------------------------------------
 1/8=10,10=7,18=40,26=3,29=7,38=1/1,3;
 2/12=2,15=1,29=3,40=1/2;
 3/5=44,7=101,11=2,14=-6,25=1,30=1,71=1,74=-5,116=-2/1,2,3;
 4/5=1/1;
 5/5=2,38=6/2;
 7/29=1,30=1/1,2,3,16;
 1/8=10,10=7,18=40,26=3/3(2);
 2/15=1,29=3/2;
 99//99;
 2/15=1,29=3/2;
 3/5=44,7=101,11=2,14=-2,25=1,30=1,71=1,74=-5/1,2,3;
 4/5=5,16=3,69=1/1;
 5/5=2,38=5/2;
 7/30=1/1,2,3,16;
 1/8=10,18=40,26=3/3(-5);
 2/15=1,29=3/2;
 99/9=1/99;
 Structure from the checkpoint file:  "checkpoint.chk"
 ------------------
 int_zmat_initalOpt
 ------------------
 Charge =  0 Multiplicity = 1
 Z-Matrix found in chk file.
 H
 C,1,R2
 C,2,R3,1,A3
 C,2,R4,1,A4,3,D4,0
 H,3,R5,2,A5,1,D5,0
 O,3,R6,2,A6,5,D6,0
 C,4,R7,2,A7,1,D7,0
 H,4,R8,2,A8,7,D8,0
 C,6,R9,3,A9,2,D9,0
 H,7,R10,4,A10,2,D10,0
 H,9,R11,6,A11,3,D11,0
 H,9,R12,6,A12,11,D12,0
      Variables:
 R2=1.08009983
 R3=1.340813
 R4=1.45501284
 R5=1.08264669
 R6=1.35410494
 R7=1.33557593
 R8=1.08243042
 R9=1.44568865
 R10=1.08179481
 R11=1.08885274
 R12=1.10411651
 A3=119.63534808
 A4=121.29781814
 A5=124.28183027
 A6=123.56813442
 A7=119.18764109
 A8=119.27504948
 A9=115.5809477
 A10=122.59090847
 A11=105.38975745
 A12=107.2821448
 D4=168.39545185
 D5=2.09492043
 D6=174.15397155
 D7=176.34617214
 D8=174.40939848
 D9=21.07287358
 D10=173.70061327
 D11=-162.39275047
 D12=-115.09019529
 Recover connectivity data from disk.

 GradGradGradGradGradGradGradGradGradGradGradGradGradGradGradGradGradGrad
 Berny optimization.
 Initialization pass.
                       ----------------------------
                       !    Initial Parameters    !
                       ! (Angstroms and Degrees)  !
 ----------------------                            ----------------------
 !      Name          Value   Derivative information (Atomic Units)     !
 ------------------------------------------------------------------------
 !       R2          1.0801   estimate D2E/DX2                          !
 !       R3          1.3408   estimate D2E/DX2                          !
 !       R4          1.455    estimate D2E/DX2                          !
 !       R5          1.0826   estimate D2E/DX2                          !
 !       R6          1.3541   estimate D2E/DX2                          !
 !       R7          1.3356   estimate D2E/DX2                          !
 !       R8          1.0824   estimate D2E/DX2                          !
 !       R9          1.4457   estimate D2E/DX2                          !
 !       R10         1.0818   estimate D2E/DX2                          !
 !       R11         1.0889   estimate D2E/DX2                          !
 !       R12         1.1041   estimate D2E/DX2                          !
 !       A3        119.6353   estimate D2E/DX2                          !
 !       A4        121.2978   estimate D2E/DX2                          !
 !       A5        124.2818   estimate D2E/DX2                          !
 !       A6        123.5681   estimate D2E/DX2                          !
 !       A7        119.1876   estimate D2E/DX2                          !
 !       A8        119.275    estimate D2E/DX2                          !
 !       A9        115.5809   estimate D2E/DX2                          !
 !       A10       122.5909   estimate D2E/DX2                          !
 !       A11       105.3898   estimate D2E/DX2                          !
 !       A12       107.2821   estimate D2E/DX2                          !
 !       D4        168.3955   estimate D2E/DX2                          !
 !       D5          2.0949   estimate D2E/DX2                          !
 !       D6        174.154    estimate D2E/DX2                          !
 !       D7        176.3462   estimate D2E/DX2                          !
 !       D8        174.4094   estimate D2E/DX2                          !
 !       D9         21.0729   estimate D2E/DX2                          !
 !       D10       173.7006   estimate D2E/DX2                          !
 !       D11      -162.3928   estimate D2E/DX2                          !
 !       D12      -115.0902   estimate D2E/DX2                          !
 ------------------------------------------------------------------------
 Trust Radius=1.00D-01 FncErr=1.00D-07 GrdErr=1.00D-06 EigMax=2.50D+02 EigMin=1.00D-04
 Number of steps in this run=     40 maximum allowed number of steps=    100.
 GradGradGradGradGradGradGradGradGradGradGradGradGradGradGradGradGradGrad

 ---------------------------------------------------------------------------------------------------
                            Z-MATRIX (ANGSTROMS AND DEGREES)
   CD    Cent   Atom    N1       Length/X        N2       Alpha/Y        N3        Beta/Z          J
 ---------------------------------------------------------------------------------------------------
      1      1  H 
      2      2  C        1   1.080100(     1)
      3      3  C        2   1.340813(     2)      1  119.635(    12)
      4      4  C        2   1.455013(     3)      1  121.298(    13)      3  168.395(    22)      0
      5      5  H        3   1.082647(     4)      2  124.282(    14)      1    2.095(    23)      0
      6      6  O        3   1.354105(     5)      2  123.568(    15)      5  174.154(    24)      0
      7      7  C        4   1.335576(     6)      2  119.188(    16)      1  176.346(    25)      0
      8      8  H        4   1.082430(     7)      2  119.275(    17)      7  174.409(    26)      0
      9      9  C        6   1.445689(     8)      3  115.581(    18)      2   21.073(    27)      0
     10     10  H        7   1.081795(     9)      4  122.591(    19)      2  173.701(    28)      0
     11     11  H        9   1.088853(    10)      6  105.390(    20)      3 -162.393(    29)      0
     12     12  H        9   1.104117(    11)      6  107.282(    21)     11 -115.090(    30)      0
 ---------------------------------------------------------------------------------------------------
                         Z-Matrix orientation:                         
 ---------------------------------------------------------------------
 Center     Atomic      Atomic             Coordinates (Angstroms)
 Number     Number       Type             X           Y           Z
 ---------------------------------------------------------------------
      1          1           0        0.000000    0.000000    0.000000
      2          6           0        0.000000    0.000000    1.080100
      3          6           0        1.165421    0.000000    1.743103
      4          6           0       -1.217864    0.250092    1.835959
      5          1           0        2.137515    0.032701    1.267615
      6          8           0        1.259489    0.073815    3.091918
      7          6           0       -1.185845    0.167660    3.168604
      8          1           0       -2.104618    0.587035    1.314622
      9          6           0        0.074493   -0.315989    3.822569
     10          1           0       -2.029265    0.438394    3.789592
     11          1           0        0.203080    0.095544    4.822422
     12          1           0        0.084364   -1.417342    3.900012
 ---------------------------------------------------------------------
                    Distance matrix (angstroms):
                    1          2          3          4          5
     1  H    0.000000
     2  C    1.080100   0.000000
     3  C    2.096810   1.340813   0.000000
     4  C    2.217315   1.455013   2.398169   0.000000
     5  H    2.485335   2.145973   1.082647   3.410109   0.000000
     6  O    3.339419   2.374695   1.354105   2.783125   2.025019
     7  C    3.387387   2.407528   2.754745   1.335576   3.831017
     8  H    2.549953   2.197505   3.349830   1.082430   4.278456
     9  C    3.836331   2.761619   2.369421   2.436648   3.302338
    10  H    4.321008   3.413423   3.819205   2.123796   4.887434
    11  H    4.827642   3.749046   3.227606   3.310880   4.047548
    12  H    4.150430   3.157195   2.798178   2.955748   3.639721
                    6          7          8          9         10
     6  O    0.000000
     7  C    2.448336   0.000000
     8  H    3.839192   2.111225   0.000000
     9  C    1.445689   1.500012   3.442931   0.000000
    10  H    3.381652   1.081795   2.480574   2.235168   0.000000
    11  H    2.027590   2.160885   4.227493   1.088853   2.483475
    12  H    2.063367   2.158847   3.936167   1.104117   2.814849
                   11         12
    11  H    0.000000
    12  H    1.775882   0.000000
 Symmetry turned off by external request.
 Stoichiometry    C5H6O
 Framework group  C1[X(C5H6O)]
 Deg. of freedom    30
 Full point group                 C1      NOp   1
 Rotational constants (GHZ):           5.5814591           5.3669124           2.8513671
 Standard basis: def2TZVP (5D, 7F)
 The following finite field(s) will be applied:
 An electric field of              0.0053 -0.0085 -0.0003
   222 basis functions,   354 primitive gaussians,   252 cartesian basis functions
    22 alpha electrons       22 beta electrons
       nuclear repulsion energy       223.5158519745 Hartrees.
 NAtoms=   12 NActive=   12 NUniq=   12 SFac= 1.00D+00 NAtFMM=   60 NAOKFM=F Big=F
 Integral buffers will be    131072 words long.
 Raffenetti 2 integral format.
 Two-electron integral symmetry is turned off.
 One-electron integrals computed using PRISM.
   1 Symmetry operations used in ECPInt.
 ECPInt:  NShTT=    4095 NPrTT=   12396 LenC2=    4075 LenP2D=   10418.
 LDataN:  DoStor=T MaxTD1= 6 Len=  172
 NBasis=   222 RedAO= T EigKep=  9.80D-05  NBF=   222
 NBsUse=   222 1.00D-06 EigRej= -1.00D+00 NBFU=   222
 The nuclear repulsion energy is now       223.4462661467 hartrees.
 Initial guess from the checkpoint file:  "checkpoint.chk"
 B after Tr=     0.000000   -0.000000   -0.000000
         Rot=    1.000000    0.000000    0.000000   -0.000000 Ang=   0.00 deg.
 Keep R1 ints in memory in canonical form, NReq=319363885.
 Requested convergence on RMS density matrix=1.00D-08 within 128 cycles.
 Requested convergence on MAX density matrix=1.00D-06.
 Requested convergence on             energy=1.00D-06.
 No special actions if energy rises.
 SCF Done:  E(RB3LYP) =  -269.425827464     A.U. after   11 cycles
            NFock= 11  Conv=0.16D-08     -V/T= 2.0050
   1 Symmetry operations used in ECPInt.
 ECPInt:  NShTT=    4095 NPrTT=   12396 LenC2=    4075 LenP2D=   10418.
 LDataN:  DoStor=T MaxTD1= 7 Len=  274
 Calling FoFJK, ICntrl=      2127 FMM=F ISym2X=0 I1Cent= 0 IOpClX= 0 NMat=1 NMatS=1 NMatT=0.
 -------------------------------------------------------------------
 Center     Atomic                   Forces (Hartrees/Bohr)
 Number     Number              X              Y              Z
 -------------------------------------------------------------------
      1        1          -0.000103433   -0.000403290   -0.000060009
      2        6           0.000371650    0.001467204    0.000191325
      3        6          -0.000326059   -0.001509822   -0.000363466
      4        6          -0.000396063    0.000014938    0.000034589
      5        1           0.000102813    0.000278498   -0.000103964
      6        8           0.000449042   -0.000423106    0.000516094
      7        6          -0.000028607   -0.000405888   -0.000043683
      8        1           0.000077025    0.000176290    0.000081102
      9        6          -0.000189633    0.001132538   -0.000124323
     10        1           0.000060773    0.000198313   -0.000053420
     11        1          -0.000067625    0.000112774   -0.000045269
     12        1           0.000050116   -0.000638448   -0.000028974
 -------------------------------------------------------------------
 Cartesian Forces:  Max     0.001509822 RMS     0.000469866
 -----------------------------------------------------------------------------------------------
                       Internal Coordinate Forces (Hartree/Bohr or radian)
  Cent   Atom   N1       Length/X         N2         Alpha/Y        N3         Beta/Z          J
 -----------------------------------------------------------------------------------------------
      1  H 
      2  C        1   0.000060(     1)
      3  C        2  -0.000058(     2)      1  -0.000173(    12)
      4  C        2   0.000247(     3)      1  -0.000121(    13)      3  -0.000526(    22)     0
      5  H        3   0.000146(     4)      2  -0.000110(    14)      1  -0.001253(    23)     0
      6  O        3   0.000343(     5)      2  -0.000242(    15)      5  -0.001715(    24)     0
      7  C        4  -0.000083(     6)      2  -0.000116(    16)      1  -0.000761(    25)     0
      8  H        4  -0.000047(     7)      2   0.000073(    17)      7  -0.000357(    26)     0
      9  C        6  -0.000094(     8)      3  -0.000496(    18)      2  -0.001434(    27)     0
     10  H        7  -0.000028(     9)      4  -0.000118(    19)      2  -0.000352(    28)     0
     11  H        9  -0.000007(    10)      6   0.000009(    20)      3   0.000194(    29)     0
     12  H        9   0.000635(    11)      6  -0.000158(    21)     11  -0.000081(    30)     0
 -----------------------------------------------------------------------------------------------
 Internal  Forces:  Max     0.001714683 RMS     0.000540616

 GradGradGradGradGradGradGradGradGradGradGradGradGradGradGradGradGradGrad
 Berny optimization.
 Search for a local minimum.
 Step number   1 out of a maximum of   40
 All quantities printed in internal units (Hartrees-Bohrs-Radians)
 Second derivative matrix not updated -- first step.
 ITU=  0
     Eigenvalues ---    0.03373   0.04715   0.05333   0.07274   0.11613
     Eigenvalues ---    0.15628   0.17352   0.17493   0.18485   0.21963
     Eigenvalues ---    0.24825   0.27979   0.31914   0.33231   0.34946
     Eigenvalues ---    0.35676   0.35702   0.35780   0.35982   0.36886
     Eigenvalues ---    0.38298   0.42259   0.46506   0.54199   0.57527
     Eigenvalues ---    0.57834   0.60301   2.32671   3.92026  24.98446
 RFO step:  Lambda=-2.40552514D-05 EMin= 3.37251323D-02
 Linear search not attempted -- first point.
 Variable       Old X    -DE/DX   Delta X   Delta X   Delta X     New X
                                 (Linear)    (Quad)   (Total)
    R2        2.04109   0.00006   0.00000   0.00017   0.00017   2.04126
    R3        2.53377  -0.00006   0.00000  -0.00010  -0.00010   2.53367
    R4        2.74958   0.00025   0.00000   0.00044   0.00044   2.75001
    R5        2.04591   0.00015   0.00000   0.00041   0.00041   2.04632
    R6        2.55889   0.00034   0.00000   0.00084   0.00084   2.55972
    R7        2.52387  -0.00008   0.00000  -0.00039  -0.00039   2.52349
    R8        2.04550  -0.00005   0.00000  -0.00013  -0.00013   2.04536
    R9        2.73196  -0.00009   0.00000   0.00031   0.00031   2.73227
   R10        2.04430  -0.00003   0.00000  -0.00006  -0.00006   2.04424
   R11        2.05763  -0.00001   0.00000   0.00001   0.00001   2.05765
   R12        2.08648   0.00064   0.00000   0.00192   0.00192   2.08839
    A3        2.08803  -0.00017   0.00000  -0.00069  -0.00069   2.08735
    A4        2.11705  -0.00012   0.00000  -0.00149  -0.00149   2.11555
    A5        2.16913  -0.00011   0.00000  -0.00088  -0.00088   2.16825
    A6        2.15667  -0.00024   0.00000   0.00090   0.00090   2.15757
    A7        2.08022  -0.00012   0.00000  -0.00040  -0.00040   2.07982
    A8        2.08174   0.00007   0.00000   0.00049   0.00049   2.08224
    A9        2.01727  -0.00050   0.00000   0.00011   0.00011   2.01738
   A10        2.13961  -0.00012   0.00000  -0.00054  -0.00054   2.13907
   A11        1.83940   0.00001   0.00000  -0.00003  -0.00003   1.83937
   A12        1.87243  -0.00016   0.00000  -0.00082  -0.00082   1.87161
    D4        2.93906  -0.00053   0.00000  -0.00989  -0.00989   2.92916
    D5        0.03656  -0.00125   0.00000  -0.00282  -0.00282   0.03374
    D6        3.03956  -0.00171   0.00000  -0.00330  -0.00330   3.03626
    D7        3.07782  -0.00076   0.00000   0.00981   0.00981   3.08764
    D8        3.04402  -0.00036   0.00000  -0.00413  -0.00413   3.03988
    D9        0.36779  -0.00143   0.00000  -0.00768  -0.00768   0.36011
   D10        3.03165  -0.00035   0.00000  -0.00318  -0.00318   3.02847
   D11       -2.83429   0.00019   0.00000   0.00731   0.00731  -2.82697
   D12       -2.00870  -0.00008   0.00000   0.00006   0.00006  -2.00864
         Item               Value     Threshold  Converged?
 Maximum Force            0.001715     0.000450     NO 
 RMS     Force            0.000541     0.000300     NO 
 Maximum Displacement     0.009895     0.001800     NO 
 RMS     Displacement     0.003481     0.001200     NO 
 Predicted change in Energy=-1.202762D-05
 GradGradGradGradGradGradGradGradGradGradGradGradGradGradGradGradGradGrad

 ---------------------------------------------------------------------------------------------------
                            Z-MATRIX (ANGSTROMS AND DEGREES)
   CD    Cent   Atom    N1       Length/X        N2       Alpha/Y        N3        Beta/Z          J
 ---------------------------------------------------------------------------------------------------
      1      1  H 
      2      2  C        1   1.080188(     1)
      3      3  C        2   1.340760(     2)      1  119.596(    12)
      4      4  C        2   1.455244(     3)      1  121.212(    13)      3  167.829(    22)      0
      5      5  H        3   1.082864(     4)      2  124.232(    14)      1    1.933(    23)      0
      6      6  O        3   1.354548(     5)      2  123.620(    15)      5  173.965(    24)      0
      7      7  C        4   1.335371(     6)      2  119.165(    16)      1  176.908(    25)      0
      8      8  H        4   1.082360(     7)      2  119.303(    17)      7  174.173(    26)      0
      9      9  C        6   1.445855(     8)      3  115.588(    18)      2   20.633(    27)      0
     10     10  H        7   1.081764(     9)      4  122.560(    19)      2  173.518(    28)      0
     11     11  H        9   1.088861(    10)      6  105.388(    20)      3 -161.974(    29)      0
     12     12  H        9   1.105130(    11)      6  107.235(    21)     11 -115.087(    30)      0
 ---------------------------------------------------------------------------------------------------
                         Z-Matrix orientation:                         
 ---------------------------------------------------------------------
 Center     Atomic      Atomic             Coordinates (Angstroms)
 Number     Number       Type             X           Y           Z
 ---------------------------------------------------------------------
      1          1           0        0.000000    0.000000    0.000000
      2          6           0        0.000000    0.000000    1.080188
      3          6           0        1.165829    0.000000    1.742366
      4          6           0       -1.216625    0.262410    1.834311
      5          1           0        2.137418    0.030205    1.265189
      6          8           0        1.262298    0.080680    3.091063
      7          6           0       -1.184104    0.191061    3.167378
      8          1           0       -2.100994    0.602857    1.311348
      9          6           0        0.073989   -0.292136    3.825520
     10          1           0       -2.025087    0.473896    3.786220
     11          1           0        0.204855    0.130339    4.820510
     12          1           0        0.076882   -1.393576    3.915715
 ---------------------------------------------------------------------
                    Distance matrix (angstroms):
                    1          2          3          4          5
     1  H    0.000000
     2  C    1.080188   0.000000
     3  C    2.096425   1.340760   0.000000
     4  C    2.216694   1.455244   2.398624   0.000000
     5  H    2.483983   2.145622   1.082864   3.409900   0.000000
     6  O    3.339847   2.375610   1.354548   2.785231   2.025389
     7  C    3.386870   2.407274   2.754877   1.335371   3.831019
     8  H    2.548970   2.197965   3.349828   1.082360   4.277172
     9  C    3.837371   2.761822   2.370018   2.436825   3.304079
    10  H    4.319840   3.412941   3.818883   2.123273   4.886605
    11  H    4.826621   3.748195   3.227294   3.309899   4.047855
    12  H    4.157017   3.160408   2.802018   2.957650   3.646677
                    6          7          8          9         10
     6  O    0.000000
     7  C    2.450080   0.000000
     8  H    3.840806   2.110713   0.000000
     9  C    1.445855   1.499810   3.442764   0.000000
    10  H    3.383011   1.081764   2.479392   2.234831   0.000000
    11  H    2.027717   2.160033   4.225451   1.088861   2.482022
    12  H    2.063660   2.158974   3.938479   1.105130   2.814693
                   11         12
    11  H    0.000000
    12  H    1.776893   0.000000
 Symmetry turned off by external request.
 Stoichiometry    C5H6O
 Framework group  C1[X(C5H6O)]
 Deg. of freedom    30
 Full point group                 C1      NOp   1
 Rotational constants (GHZ):           5.5816943           5.3635228           2.8495892
 Standard basis: def2TZVP (5D, 7F)
 The following finite field(s) will be applied:
 An electric field of              0.0053 -0.0085 -0.0003
   222 basis functions,   354 primitive gaussians,   252 cartesian basis functions
    22 alpha electrons       22 beta electrons
       nuclear repulsion energy       223.4813677241 Hartrees.
 NAtoms=   12 NActive=   12 NUniq=   12 SFac= 1.00D+00 NAtFMM=   60 NAOKFM=F Big=F
 Integral buffers will be    131072 words long.
 Raffenetti 2 integral format.
 Two-electron integral symmetry is turned off.
 One-electron integrals computed using PRISM.
   1 Symmetry operations used in ECPInt.
 ECPInt:  NShTT=    4095 NPrTT=   12396 LenC2=    4075 LenP2D=   10418.
 LDataN:  DoStor=T MaxTD1= 6 Len=  172
 NBasis=   222 RedAO= T EigKep=  9.85D-05  NBF=   222
 NBsUse=   222 1.00D-06 EigRej= -1.00D+00 NBFU=   222
 The nuclear repulsion energy is now       223.4038592928 hartrees.
 Initial guess from the checkpoint file:  "checkpoint.chk"
 B after Tr=    -0.000729   -0.014910    0.000259
         Rot=    0.999988    0.003987   -0.000232    0.002820 Ang=   0.56 deg.
 Keep R1 ints in memory in canonical form, NReq=319363885.
 Requested convergence on RMS density matrix=1.00D-08 within 128 cycles.
 Requested convergence on MAX density matrix=1.00D-06.
 Requested convergence on             energy=1.00D-06.
 No special actions if energy rises.
 SCF Done:  E(RB3LYP) =  -269.425845098     A.U. after    9 cycles
            NFock=  9  Conv=0.22D-08     -V/T= 2.0050
   1 Symmetry operations used in ECPInt.
 ECPInt:  NShTT=    4095 NPrTT=   12396 LenC2=    4075 LenP2D=   10418.
 LDataN:  DoStor=T MaxTD1= 7 Len=  274
 Calling FoFJK, ICntrl=      2127 FMM=F ISym2X=0 I1Cent= 0 IOpClX= 0 NMat=1 NMatS=1 NMatT=0.
 -------------------------------------------------------------------
 Center     Atomic                   Forces (Hartrees/Bohr)
 Number     Number              X              Y              Z
 -------------------------------------------------------------------
      1        1          -0.000061156   -0.000647067   -0.000028681
      2        6           0.000220185    0.001947373    0.000033030
      3        6          -0.000082794   -0.001360350   -0.000046796
      4        6          -0.000188493    0.000041248    0.000055035
      5        1          -0.000003116    0.000093294    0.000026838
      6        8           0.000173951   -0.000278704   -0.000148970
      7        6           0.000038497   -0.000155968   -0.000038106
      8        1           0.000032476    0.000025019   -0.000021937
      9        6          -0.000210528    0.000193569    0.000172244
     10        1           0.000059056    0.000143410    0.000006282
     11        1          -0.000043237    0.000020867   -0.000016720
     12        1           0.000065159   -0.000022690    0.000007782
 -------------------------------------------------------------------
 Cartesian Forces:  Max     0.001947373 RMS     0.000424162
 -----------------------------------------------------------------------------------------------
                       Internal Coordinate Forces (Hartree/Bohr or radian)
  Cent   Atom   N1       Length/X         N2         Alpha/Y        N3         Beta/Z          J
 -----------------------------------------------------------------------------------------------
      1  H 
      2  C        1   0.000029(     1)
      3  C        2  -0.000090(     2)      1   0.000161(    12)
      4  C        2   0.000059(     3)      1   0.000133(    13)      3  -0.000404(    22)     0
      5  H        3  -0.000012(     4)      2   0.000043(    14)      1  -0.000233(    23)     0
      6  O        3   0.000008(     5)      2   0.000016(    15)      5  -0.000392(    24)     0
      7  C        4  -0.000029(     6)      2  -0.000275(    16)      1  -0.000016(    25)     0
      8  H        4  -0.000008(     7)      2  -0.000071(    17)      7  -0.000054(    26)     0
      9  C        6   0.000189(     8)      3   0.000192(    18)      2  -0.000416(    27)     0
     10  H        7  -0.000005(     9)      4   0.000006(    19)      2  -0.000267(    28)     0
     11  H        9  -0.000012(    10)      6   0.000053(    20)      3   0.000159(    29)     0
     12  H        9   0.000023(    11)      6  -0.000111(    21)     11   0.000076(    30)     0
 -----------------------------------------------------------------------------------------------
 Internal  Forces:  Max     0.000416059 RMS     0.000171076

 GradGradGradGradGradGradGradGradGradGradGradGradGradGradGradGradGradGrad
 Berny optimization.
 Search for a local minimum.
 Step number   2 out of a maximum of   40
 All quantities printed in internal units (Hartrees-Bohrs-Radians)
 Update second derivatives using D2CorN and points    1    2
 DE= -1.76D-05 DEPred=-1.20D-05 R= 1.47D+00
 TightC=F SS=  1.41D+00  RLast= 1.91D-02 DXNew= 1.6818D-01 5.7196D-02
 Trust test= 1.47D+00 RLast= 1.91D-02 DXMaxT set to 1.00D-01
 ITU=  1  0
     Eigenvalues ---    0.01686   0.04371   0.05038   0.06924   0.11473
     Eigenvalues ---    0.15607   0.17341   0.17472   0.18479   0.21971
     Eigenvalues ---    0.24822   0.27973   0.31891   0.33220   0.34946
     Eigenvalues ---    0.35678   0.35702   0.35780   0.35981   0.36882
     Eigenvalues ---    0.38258   0.42154   0.46492   0.54213   0.57522
     Eigenvalues ---    0.57837   0.60301   2.32697   3.91970  24.98443
 RFO step:  Lambda=-6.43599107D-06 EMin= 1.68635767D-02
 Quartic linear search produced a step of  0.88738.
 Variable       Old X    -DE/DX   Delta X   Delta X   Delta X     New X
                                 (Linear)    (Quad)   (Total)
    R2        2.04126   0.00003   0.00015   0.00003   0.00018   2.04144
    R3        2.53367  -0.00009  -0.00009  -0.00019  -0.00028   2.53339
    R4        2.75001   0.00006   0.00039   0.00019   0.00058   2.75059
    R5        2.04632  -0.00001   0.00036  -0.00043  -0.00006   2.04625
    R6        2.55972   0.00001   0.00074  -0.00076  -0.00002   2.55971
    R7        2.52349  -0.00003  -0.00034   0.00028  -0.00006   2.52343
    R8        2.04536  -0.00001  -0.00012   0.00006  -0.00006   2.04531
    R9        2.73227   0.00019   0.00028   0.00074   0.00102   2.73329
   R10        2.04424  -0.00000  -0.00005   0.00005   0.00000   2.04424
   R11        2.05765  -0.00001   0.00001  -0.00004  -0.00003   2.05762
   R12        2.08839   0.00002   0.00170  -0.00149   0.00021   2.08861
    A3        2.08735   0.00016  -0.00061  -0.00025  -0.00086   2.08648
    A4        2.11555   0.00013  -0.00132  -0.00003  -0.00135   2.11420
    A5        2.16825   0.00004  -0.00078   0.00046  -0.00032   2.16793
    A6        2.15757   0.00002   0.00080   0.00044   0.00124   2.15881
    A7        2.07982  -0.00028  -0.00036   0.00030  -0.00005   2.07976
    A8        2.08224  -0.00007   0.00044  -0.00082  -0.00038   2.08185
    A9        2.01738   0.00019   0.00010   0.00201   0.00212   2.01950
   A10        2.13907   0.00001  -0.00048   0.00009  -0.00039   2.13868
   A11        1.83937   0.00005  -0.00002   0.00051   0.00048   1.83985
   A12        1.87161  -0.00011  -0.00072   0.00006  -0.00067   1.87094
    D4        2.92916  -0.00040  -0.00878  -0.00454  -0.01332   2.91584
    D5        0.03374  -0.00023  -0.00250  -0.00383  -0.00633   0.02742
    D6        3.03626  -0.00039  -0.00293   0.00233  -0.00060   3.03567
    D7        3.08764  -0.00002   0.00871   0.00650   0.01521   3.10285
    D8        3.03988  -0.00005  -0.00367  -0.00147  -0.00514   3.03474
    D9        0.36011  -0.00042  -0.00682  -0.00548  -0.01230   0.34781
   D10        3.02847  -0.00027  -0.00282  -0.00382  -0.00664   3.02182
   D11       -2.82697   0.00016   0.00649   0.00453   0.01102  -2.81595
   D12       -2.00864   0.00008   0.00005   0.00036   0.00041  -2.00823
         Item               Value     Threshold  Converged?
 Maximum Force            0.000416     0.000450     YES
 RMS     Force            0.000171     0.000300     YES
 Maximum Displacement     0.015211     0.001800     NO 
 RMS     Displacement     0.005176     0.001200     NO 
 Predicted change in Energy=-8.052410D-06
 GradGradGradGradGradGradGradGradGradGradGradGradGradGradGradGradGradGrad

 ---------------------------------------------------------------------------------------------------
                            Z-MATRIX (ANGSTROMS AND DEGREES)
   CD    Cent   Atom    N1       Length/X        N2       Alpha/Y        N3        Beta/Z          J
 ---------------------------------------------------------------------------------------------------
      1      1  H 
      2      2  C        1   1.080282(     1)
      3      3  C        2   1.340611(     2)      1  119.547(    12)
      4      4  C        2   1.455552(     3)      1  121.135(    13)      3  167.065(    22)      0
      5      5  H        3   1.082830(     4)      2  124.213(    14)      1    1.571(    23)      0
      6      6  O        3   1.354538(     5)      2  123.691(    15)      5  173.931(    24)      0
      7      7  C        4   1.335339(     6)      2  119.162(    16)      1  177.780(    25)      0
      8      8  H        4   1.082331(     7)      2  119.281(    17)      7  173.878(    26)      0
      9      9  C        6   1.446395(     8)      3  115.709(    18)      2   19.928(    27)      0
     10     10  H        7   1.081765(     9)      4  122.537(    19)      2  173.138(    28)      0
     11     11  H        9   1.088844(    10)      6  105.416(    20)      3 -161.342(    29)      0
     12     12  H        9   1.105242(    11)      6  107.197(    21)     11 -115.063(    30)      0
 ---------------------------------------------------------------------------------------------------
                         Z-Matrix orientation:                         
 ---------------------------------------------------------------------
 Center     Atomic      Atomic             Coordinates (Angstroms)
 Number     Number       Type             X           Y           Z
 ---------------------------------------------------------------------
      1          1           0        0.000000    0.000000    0.000000
      2          6           0        0.000000    0.000000    1.080282
      3          6           0        1.166270    0.000000    1.741382
      4          6           0       -1.214272    0.278883    1.832877
      5          1           0        2.137351    0.024547    1.262924
      6          8           0        1.265862    0.088393    3.089358
      7          6           0       -1.180014    0.224668    3.166676
      8          1           0       -2.095928    0.621901    1.307083
      9          6           0        0.073867   -0.260183    3.830778
     10          1           0       -2.016537    0.525853    3.782899
     11          1           0        0.209232    0.177186    4.818688
     12          1           0        0.066457   -1.360065    3.939245
 ---------------------------------------------------------------------
                    Distance matrix (angstroms):
                    1          2          3          4          5
     1  H    0.000000
     2  C    1.080282   0.000000
     3  C    2.095852   1.340611   0.000000
     4  C    2.216229   1.455552   2.398567   0.000000
     5  H    2.482710   2.145280   1.082830   3.409238   0.000000
     6  O    3.339814   2.376260   1.354538   2.786771   2.024705
     7  C    3.386849   2.407478   2.754448   1.335339   3.830042
     8  H    2.547183   2.197980   3.349226   1.082331   4.275445
     9  C    3.840314   2.763762   2.372049   2.437519   3.306495
    10  H    4.318943   3.412783   3.817666   2.123019   4.884298
    11  H    4.826482   3.748447   3.227558   3.309346   4.047764
    12  H    4.167955   3.166681   2.808909   2.960270   3.656288
                    6          7          8          9         10
     6  O    0.000000
     7  C    2.450889   0.000000
     8  H    3.842235   2.110634   0.000000
     9  C    1.446395   1.499443   3.443126   0.000000
    10  H    3.383270   1.081765   2.478950   2.233816   0.000000
    11  H    2.028529   2.159028   4.224086   1.088844   2.479612
    12  H    2.063713   2.159151   3.941114   1.105242   2.814249
                   11         12
    11  H    0.000000
    12  H    1.776780   0.000000
 Symmetry turned off by external request.
 Stoichiometry    C5H6O
 Framework group  C1[X(C5H6O)]
 Deg. of freedom    30
 Full point group                 C1      NOp   1
 Rotational constants (GHZ):           5.5785767           5.3633252           2.8474012
 Standard basis: def2TZVP (5D, 7F)
 The following finite field(s) will be applied:
 An electric field of              0.0053 -0.0085 -0.0003
   222 basis functions,   354 primitive gaussians,   252 cartesian basis functions
    22 alpha electrons       22 beta electrons
       nuclear repulsion energy       223.4474897223 Hartrees.
 NAtoms=   12 NActive=   12 NUniq=   12 SFac= 1.00D+00 NAtFMM=   60 NAOKFM=F Big=F
 Integral buffers will be    131072 words long.
 Raffenetti 2 integral format.
 Two-electron integral symmetry is turned off.
 One-electron integrals computed using PRISM.
   1 Symmetry operations used in ECPInt.
 ECPInt:  NShTT=    4095 NPrTT=   12396 LenC2=    4075 LenP2D=   10419.
 LDataN:  DoStor=T MaxTD1= 6 Len=  172
 NBasis=   222 RedAO= T EigKep=  9.90D-05  NBF=   222
 NBsUse=   222 1.00D-06 EigRej= -1.00D+00 NBFU=   222
 The nuclear repulsion energy is now       223.3595077312 hartrees.
 Initial guess from the checkpoint file:  "checkpoint.chk"
 B after Tr=    -0.002169   -0.021468    0.001538
         Rot=    0.999976    0.005523   -0.000501    0.004191 Ang=   0.80 deg.
 Keep R1 ints in memory in canonical form, NReq=319363885.
 Requested convergence on RMS density matrix=1.00D-08 within 128 cycles.
 Requested convergence on MAX density matrix=1.00D-06.
 Requested convergence on             energy=1.00D-06.
 No special actions if energy rises.
 SCF Done:  E(RB3LYP) =  -269.425853816     A.U. after    9 cycles
            NFock=  9  Conv=0.42D-08     -V/T= 2.0050
   1 Symmetry operations used in ECPInt.
 ECPInt:  NShTT=    4095 NPrTT=   12396 LenC2=    4075 LenP2D=   10419.
 LDataN:  DoStor=T MaxTD1= 7 Len=  274
 Calling FoFJK, ICntrl=      2127 FMM=F ISym2X=0 I1Cent= 0 IOpClX= 0 NMat=1 NMatS=1 NMatT=0.
 -------------------------------------------------------------------
 Center     Atomic                   Forces (Hartrees/Bohr)
 Number     Number              X              Y              Z
 -------------------------------------------------------------------
      1        1          -0.000063297   -0.000966019    0.000009748
      2        6          -0.000003136    0.002497408   -0.000109253
      3        6           0.000058657   -0.001481052    0.000314215
      4        6           0.000055051    0.000122546    0.000119430
      5        1           0.000023162   -0.000017759    0.000020360
      6        8           0.000107908   -0.000091224   -0.000372825
      7        6          -0.000134542   -0.000037324   -0.000087608
      8        1          -0.000009484   -0.000045182   -0.000021326
      9        6          -0.000109830   -0.000123008    0.000146834
     10        1          -0.000007596    0.000012973   -0.000009913
     11        1           0.000037966    0.000002372    0.000008299
     12        1           0.000045140    0.000126269   -0.000017960
 -------------------------------------------------------------------
 Cartesian Forces:  Max     0.002497408 RMS     0.000521035
 -----------------------------------------------------------------------------------------------
                       Internal Coordinate Forces (Hartree/Bohr or radian)
  Cent   Atom   N1       Length/X         N2         Alpha/Y        N3         Beta/Z          J
 -----------------------------------------------------------------------------------------------
      1  H 
      2  C        1  -0.000010(     1)
      3  C        2   0.000191(     2)      1  -0.000528(    12)
      4  C        2   0.000091(     3)      1  -0.000544(    13)      3  -0.000022(    22)     0
      5  H        3   0.000011(     4)      2   0.000059(    14)      1   0.000053(    23)     0
      6  O        3  -0.000234(     5)      2   0.000602(    15)      5   0.000083(    24)     0
      7  C        4  -0.000100(     6)      2   0.000354(    16)      1  -0.000045(    25)     0
      8  H        4   0.000004(     7)      2  -0.000032(    17)      7   0.000086(    26)     0
      9  C        6   0.000091(     8)      3   0.000357(    18)      2   0.000047(    27)     0
     10  H        7   0.000004(     9)      4  -0.000031(    19)      2  -0.000016(    28)     0
     11  H        9   0.000013(    10)      6  -0.000066(    20)      3   0.000001(    29)     0
     12  H        9  -0.000128(    11)      6  -0.000085(    21)     11   0.000036(    30)     0
 -----------------------------------------------------------------------------------------------
 Internal  Forces:  Max     0.000602164 RMS     0.000213227

 GradGradGradGradGradGradGradGradGradGradGradGradGradGradGradGradGradGrad
 Berny optimization.
 Search for a local minimum.
 Step number   3 out of a maximum of   40
 All quantities printed in internal units (Hartrees-Bohrs-Radians)
 Update second derivatives using D2CorN and points    1    2    3
 DE= -8.72D-06 DEPred=-8.05D-06 R= 1.08D+00
 TightC=F SS=  1.41D+00  RLast= 2.84D-02 DXNew= 1.6818D-01 8.5055D-02
 Trust test= 1.08D+00 RLast= 2.84D-02 DXMaxT set to 1.00D-01
 ITU=  1  1  0
     Eigenvalues ---    0.01646   0.04375   0.05064   0.06881   0.11439
     Eigenvalues ---    0.15589   0.17337   0.17476   0.18473   0.21976
     Eigenvalues ---    0.24823   0.27971   0.31881   0.33237   0.34946
     Eigenvalues ---    0.35678   0.35702   0.35780   0.35981   0.36882
     Eigenvalues ---    0.38235   0.42132   0.46497   0.54230   0.57524
     Eigenvalues ---    0.57837   0.60303   2.32700   3.91953  24.98448
 RFO step:  Lambda=-7.13818632D-07 EMin= 1.64642777D-02
 Quartic linear search produced a step of  0.07213.
 Variable       Old X    -DE/DX   Delta X   Delta X   Delta X     New X
                                 (Linear)    (Quad)   (Total)
    R2        2.04144  -0.00001   0.00001  -0.00003  -0.00002   2.04142
    R3        2.53339   0.00019  -0.00002   0.00016   0.00014   2.53352
    R4        2.75059   0.00009   0.00004   0.00007   0.00011   2.75070
    R5        2.04625   0.00001  -0.00000   0.00004   0.00003   2.04628
    R6        2.55971  -0.00023  -0.00000  -0.00057  -0.00058   2.55913
    R7        2.52343  -0.00010  -0.00000  -0.00009  -0.00010   2.52333
    R8        2.04531   0.00000  -0.00000   0.00001   0.00001   2.04532
    R9        2.73329   0.00009   0.00007   0.00039   0.00047   2.73376
   R10        2.04424   0.00000   0.00000   0.00001   0.00001   2.04425
   R11        2.05762   0.00001  -0.00000   0.00004   0.00004   2.05766
   R12        2.08861  -0.00013   0.00002  -0.00042  -0.00040   2.08820
    A3        2.08648  -0.00053  -0.00006   0.00005  -0.00001   2.08647
    A4        2.11420  -0.00054  -0.00010   0.00001  -0.00008   2.11412
    A5        2.16793   0.00006  -0.00002   0.00016   0.00014   2.16807
    A6        2.15881   0.00060   0.00009   0.00014   0.00023   2.15904
    A7        2.07976   0.00035  -0.00000   0.00025   0.00024   2.08000
    A8        2.08185  -0.00003  -0.00003  -0.00018  -0.00021   2.08164
    A9        2.01950   0.00036   0.00015   0.00034   0.00050   2.01999
   A10        2.13868  -0.00003  -0.00003  -0.00005  -0.00008   2.13860
   A11        1.83985  -0.00007   0.00003  -0.00019  -0.00015   1.83970
   A12        1.87094  -0.00009  -0.00005  -0.00051  -0.00055   1.87039
    D4        2.91584  -0.00002  -0.00096  -0.00020  -0.00116   2.91468
    D5        0.02742   0.00005  -0.00046  -0.00057  -0.00103   0.02639
    D6        3.03567   0.00008  -0.00004   0.00087   0.00083   3.03650
    D7        3.10285  -0.00004   0.00110  -0.00009   0.00100   3.10385
    D8        3.03474   0.00009  -0.00037   0.00094   0.00057   3.03531
    D9        0.34781   0.00005  -0.00089  -0.00099  -0.00188   0.34594
   D10        3.02182  -0.00002  -0.00048   0.00027  -0.00021   3.02161
   D11       -2.81595   0.00000   0.00079   0.00081   0.00161  -2.81435
   D12       -2.00823   0.00004   0.00003   0.00034   0.00037  -2.00786
         Item               Value     Threshold  Converged?
 Maximum Force            0.000602     0.000450     NO 
 RMS     Force            0.000213     0.000300     YES
 Maximum Displacement     0.001877     0.001800     NO 
 RMS     Displacement     0.000639     0.001200     YES
 Predicted change in Energy=-3.789651D-07
 GradGradGradGradGradGradGradGradGradGradGradGradGradGradGradGradGradGrad

 ---------------------------------------------------------------------------------------------------
                            Z-MATRIX (ANGSTROMS AND DEGREES)
   CD    Cent   Atom    N1       Length/X        N2       Alpha/Y        N3        Beta/Z          J
 ---------------------------------------------------------------------------------------------------
      1      1  H 
      2      2  C        1   1.080271(     1)
      3      3  C        2   1.340683(     2)      1  119.546(    12)
      4      4  C        2   1.455609(     3)      1  121.130(    13)      3  166.999(    22)      0
      5      5  H        3   1.082847(     4)      2  124.221(    14)      1    1.512(    23)      0
      6      6  O        3   1.354233(     5)      2  123.704(    15)      5  173.978(    24)      0
      7      7  C        4   1.335289(     6)      2  119.175(    16)      1  177.837(    25)      0
      8      8  H        4   1.082335(     7)      2  119.269(    17)      7  173.910(    26)      0
      9      9  C        6   1.446641(     8)      3  115.737(    18)      2   19.821(    27)      0
     10     10  H        7   1.081772(     9)      4  122.533(    19)      2  173.125(    28)      0
     11     11  H        9   1.088866(    10)      6  105.407(    20)      3 -161.250(    29)      0
     12     12  H        9   1.105029(    11)      6  107.165(    21)     11 -115.042(    30)      0
 ---------------------------------------------------------------------------------------------------
                         Z-Matrix orientation:                         
 ---------------------------------------------------------------------
 Center     Atomic      Atomic             Coordinates (Angstroms)
 Number     Number       Type             X           Y           Z
 ---------------------------------------------------------------------
      1          1           0        0.000000    0.000000    0.000000
      2          6           0        0.000000    0.000000    1.080271
      3          6           0        1.166339    0.000000    1.741394
      4          6           0       -1.214056    0.280317    1.832792
      5          1           0        2.137507    0.023624    1.263028
      6          8           0        1.266244    0.088582    3.089029
      7          6           0       -1.179999    0.227302    3.166593
      8          1           0       -2.095598    0.622938    1.306539
      9          6           0        0.073790   -0.257332    3.831436
     10          1           0       -2.016384    0.529797    3.782375
     11          1           0        0.210024    0.181702    4.818513
     12          1           0        0.065837   -1.356800    3.941865
 ---------------------------------------------------------------------
                    Distance matrix (angstroms):
                    1          2          3          4          5
     1  H    0.000000
     2  C    1.080271   0.000000
     3  C    2.095901   1.340683   0.000000
     4  C    2.216221   1.455609   2.398585   0.000000
     5  H    2.482888   2.145435   1.082847   3.409324   0.000000
     6  O    3.339658   2.376200   1.354233   2.786894   2.024252
     7  C    3.386942   2.407656   2.754662   1.335289   3.830260
     8  H    2.546886   2.197903   3.349236   1.082335   4.275540
     9  C    3.840777   2.764159   2.372375   2.437661   3.306748
    10  H    4.318894   3.412895   3.817855   2.122933   4.884478
    11  H    4.826509   3.748543   3.227416   3.309419   4.047425
    12  H    4.169357   3.167643   2.809641   2.960822   3.656987
                    6          7          8          9         10
     6  O    0.000000
     7  C    2.451400   0.000000
     8  H    3.842497   2.110605   0.000000
     9  C    1.446641   1.499624   3.443287   0.000000
    10  H    3.383939   1.081772   2.478853   2.234012   0.000000
    11  H    2.028641   2.159417   4.224280   1.088866   2.480251
    12  H    2.063355   2.159290   3.941587   1.105029   2.814309
                   11         12
    11  H    0.000000
    12  H    1.776595   0.000000
 Symmetry turned off by external request.
 Stoichiometry    C5H6O
 Framework group  C1[X(C5H6O)]
 Deg. of freedom    30
 Full point group                 C1      NOp   1
 Rotational constants (GHZ):           5.5781869           5.3628214           2.8468639
 Standard basis: def2TZVP (5D, 7F)
 The following finite field(s) will be applied:
 An electric field of              0.0053 -0.0085 -0.0003
   222 basis functions,   354 primitive gaussians,   252 cartesian basis functions
    22 alpha electrons       22 beta electrons
       nuclear repulsion energy       223.4395505464 Hartrees.
 NAtoms=   12 NActive=   12 NUniq=   12 SFac= 1.00D+00 NAtFMM=   60 NAOKFM=F Big=F
 Integral buffers will be    131072 words long.
 Raffenetti 2 integral format.
 Two-electron integral symmetry is turned off.
 One-electron integrals computed using PRISM.
   1 Symmetry operations used in ECPInt.
 ECPInt:  NShTT=    4095 NPrTT=   12396 LenC2=    4075 LenP2D=   10418.
 LDataN:  DoStor=T MaxTD1= 6 Len=  172
 NBasis=   222 RedAO= T EigKep=  9.91D-05  NBF=   222
 NBsUse=   222 1.00D-06 EigRej= -1.00D+00 NBFU=   222
 The nuclear repulsion energy is now       223.3507385640 hartrees.
 Initial guess from the checkpoint file:  "checkpoint.chk"
 B after Tr=    -0.000190   -0.002167    0.000174
         Rot=    1.000000    0.000485   -0.000037    0.000365 Ang=   0.07 deg.
 Keep R1 ints in memory in canonical form, NReq=319363885.
 Requested convergence on RMS density matrix=1.00D-08 within 128 cycles.
 Requested convergence on MAX density matrix=1.00D-06.
 Requested convergence on             energy=1.00D-06.
 No special actions if energy rises.
 SCF Done:  E(RB3LYP) =  -269.425854339     A.U. after    7 cycles
            NFock=  7  Conv=0.67D-08     -V/T= 2.0050
   1 Symmetry operations used in ECPInt.
 ECPInt:  NShTT=    4095 NPrTT=   12396 LenC2=    4075 LenP2D=   10418.
 LDataN:  DoStor=T MaxTD1= 7 Len=  274
 Calling FoFJK, ICntrl=      2127 FMM=F ISym2X=0 I1Cent= 0 IOpClX= 0 NMat=1 NMatS=1 NMatT=0.
 -------------------------------------------------------------------
 Center     Atomic                   Forces (Hartrees/Bohr)
 Number     Number              X              Y              Z
 -------------------------------------------------------------------
      1        1          -0.000064044   -0.000984344    0.000005869
      2        6           0.000051385    0.002573421   -0.000054212
      3        6           0.000007833   -0.001558685    0.000152590
      4        6           0.000050608    0.000056996    0.000040799
      5        1           0.000005485   -0.000010919   -0.000011686
      6        8           0.000050260   -0.000015514   -0.000171831
      7        6          -0.000020210   -0.000020216   -0.000016758
      8        1          -0.000010207   -0.000027072   -0.000006629
      9        6          -0.000084031   -0.000047267    0.000069316
     10        1           0.000003393   -0.000002767    0.000000445
     11        1           0.000007181    0.000010893   -0.000009212
     12        1           0.000002349    0.000025475    0.000001308
 -------------------------------------------------------------------
 Cartesian Forces:  Max     0.002573421 RMS     0.000529965
 -----------------------------------------------------------------------------------------------
                       Internal Coordinate Forces (Hartree/Bohr or radian)
  Cent   Atom   N1       Length/X         N2         Alpha/Y        N3         Beta/Z          J
 -----------------------------------------------------------------------------------------------
      1  H 
      2  C        1  -0.000006(     1)
      3  C        2   0.000006(     2)      1   0.000055(    12)
      4  C        2  -0.000009(     3)      1   0.000043(    13)      3   0.000023(    22)     0
      5  H        3   0.000010(     4)      2  -0.000016(    14)      1  -0.000041(    23)     0
      6  O        3  -0.000113(     5)      2   0.000010(    15)      5  -0.000022(    24)     0
      7  C        4  -0.000016(     6)      2   0.000020(    16)      1  -0.000007(    25)     0
      8  H        4   0.000003(     7)      2  -0.000004(    17)      7   0.000053(    26)     0
      9  C        6   0.000096(     8)      3   0.000067(    18)      2  -0.000024(    27)     0
     10  H        7  -0.000003(     9)      4   0.000006(    19)      2   0.000002(    28)     0
     11  H        9  -0.000003(    10)      6  -0.000027(    20)      3   0.000026(    29)     0
     12  H        9  -0.000025(    11)      6   0.000000(    21)     11   0.000009(    30)     0
 -----------------------------------------------------------------------------------------------
 Internal  Forces:  Max     0.000113396 RMS     0.000036938

 GradGradGradGradGradGradGradGradGradGradGradGradGradGradGradGradGradGrad
 Berny optimization.
 Search for a local minimum.
 Step number   4 out of a maximum of   40
 All quantities printed in internal units (Hartrees-Bohrs-Radians)
 Update second derivatives using D2CorN and points    1    2    3    4
 DE= -5.23D-07 DEPred=-3.79D-07 R= 1.38D+00
 Trust test= 1.38D+00 RLast= 3.50D-03 DXMaxT set to 1.00D-01
 ITU=  0  1  1  0
     Eigenvalues ---    0.01123   0.04329   0.04927   0.06704   0.11513
     Eigenvalues ---    0.15517   0.17306   0.17457   0.18311   0.21948
     Eigenvalues ---    0.24806   0.27979   0.31875   0.33166   0.34947
     Eigenvalues ---    0.35676   0.35702   0.35780   0.35980   0.36882
     Eigenvalues ---    0.38095   0.42127   0.46383   0.53822   0.57489
     Eigenvalues ---    0.57830   0.60272   2.32701   3.91933  24.98461
 RFO step:  Lambda=-1.10818856D-07 EMin= 1.12258088D-02
 Quartic linear search produced a step of  0.53448.
 Variable       Old X    -DE/DX   Delta X   Delta X   Delta X     New X
                                 (Linear)    (Quad)   (Total)
    R2        2.04142  -0.00001  -0.00001  -0.00001  -0.00002   2.04139
    R3        2.53352   0.00001   0.00007  -0.00005   0.00002   2.53355
    R4        2.75070  -0.00001   0.00006  -0.00004   0.00002   2.75072
    R5        2.04628   0.00001   0.00002   0.00003   0.00005   2.04633
    R6        2.55913  -0.00011  -0.00031  -0.00009  -0.00040   2.55873
    R7        2.52333  -0.00002  -0.00005   0.00001  -0.00004   2.52329
    R8        2.04532   0.00000   0.00000   0.00001   0.00001   2.04533
    R9        2.73376   0.00010   0.00025   0.00021   0.00046   2.73421
   R10        2.04425  -0.00000   0.00001  -0.00002  -0.00001   2.04424
   R11        2.05766  -0.00000   0.00002  -0.00003  -0.00001   2.05765
   R12        2.08820  -0.00003  -0.00022   0.00007  -0.00015   2.08806
    A3        2.08647   0.00006  -0.00001   0.00010   0.00010   2.08657
    A4        2.11412   0.00004  -0.00004  -0.00002  -0.00006   2.11405
    A5        2.16807  -0.00002   0.00007  -0.00020  -0.00013   2.16794
    A6        2.15904   0.00001   0.00012   0.00006   0.00019   2.15923
    A7        2.08000   0.00002   0.00013   0.00012   0.00025   2.08026
    A8        2.08164  -0.00000  -0.00011  -0.00002  -0.00014   2.08151
    A9        2.01999   0.00007   0.00027   0.00017   0.00043   2.02043
   A10        2.13860   0.00001  -0.00004   0.00004  -0.00001   2.13859
   A11        1.83970  -0.00003  -0.00008  -0.00007  -0.00015   1.83955
   A12        1.87039   0.00000  -0.00030   0.00026  -0.00004   1.87035
    D4        2.91468   0.00002  -0.00062  -0.00016  -0.00078   2.91390
    D5        0.02639  -0.00004  -0.00055  -0.00035  -0.00090   0.02548
    D6        3.03650  -0.00002   0.00044   0.00022   0.00066   3.03716
    D7        3.10385  -0.00001   0.00054   0.00021   0.00074   3.10459
    D8        3.03531   0.00005   0.00030   0.00032   0.00062   3.03593
    D9        0.34594  -0.00002  -0.00100  -0.00028  -0.00128   0.34465
   D10        3.02161   0.00000  -0.00011   0.00006  -0.00006   3.02155
   D11       -2.81435   0.00003   0.00086   0.00080   0.00166  -2.81268
   D12       -2.00786   0.00001   0.00020  -0.00017   0.00003  -2.00783
         Item               Value     Threshold  Converged?
 Maximum Force            0.000113     0.000450     YES
 RMS     Force            0.000037     0.000300     YES
 Maximum Displacement     0.001663     0.001800     YES
 RMS     Displacement     0.000516     0.001200     YES
 Predicted change in Energy=-1.186681D-07
 Optimization completed.
    -- Stationary point found.
                       ----------------------------
                       !   Optimized Parameters   !
                       ! (Angstroms and Degrees)  !
 ----------------------                            ----------------------
 !      Name          Value   Derivative information (Atomic Units)     !
 ------------------------------------------------------------------------
 !       R2          1.0803   -DE/DX =    0.0                           !
 !       R3          1.3407   -DE/DX =    0.0                           !
 !       R4          1.4556   -DE/DX =    0.0                           !
 !       R5          1.0828   -DE/DX =    0.0                           !
 !       R6          1.3542   -DE/DX =   -0.0001                        !
 !       R7          1.3353   -DE/DX =    0.0                           !
 !       R8          1.0823   -DE/DX =    0.0                           !
 !       R9          1.4466   -DE/DX =    0.0001                        !
 !       R10         1.0818   -DE/DX =    0.0                           !
 !       R11         1.0889   -DE/DX =    0.0                           !
 !       R12         1.105    -DE/DX =    0.0                           !
 !       A3        119.5461   -DE/DX =    0.0001                        !
 !       A4        121.1299   -DE/DX =    0.0                           !
 !       A5        124.2212   -DE/DX =    0.0                           !
 !       A6        123.7038   -DE/DX =    0.0                           !
 !       A7        119.1755   -DE/DX =    0.0                           !
 !       A8        119.2694   -DE/DX =    0.0                           !
 !       A9        115.7371   -DE/DX =    0.0001                        !
 !       A10       122.5325   -DE/DX =    0.0                           !
 !       A11       105.4071   -DE/DX =    0.0                           !
 !       A12       107.1653   -DE/DX =    0.0                           !
 !       D4        166.9986   -DE/DX =    0.0                           !
 !       D5          1.5119   -DE/DX =    0.0                           !
 !       D6        173.9784   -DE/DX =    0.0                           !
 !       D7        177.8374   -DE/DX =    0.0                           !
 !       D8        173.9105   -DE/DX =    0.0001                        !
 !       D9         19.8206   -DE/DX =    0.0                           !
 !       D10       173.1255   -DE/DX =    0.0                           !
 !       D11      -161.2501   -DE/DX =    0.0                           !
 !       D12      -115.0418   -DE/DX =    0.0                           !
 ------------------------------------------------------------------------
 GradGradGradGradGradGradGradGradGradGradGradGradGradGradGradGradGradGrad

 ---------------------------------------------------------------------------------------------------
                            Z-MATRIX (ANGSTROMS AND DEGREES)
   CD    Cent   Atom    N1       Length/X        N2       Alpha/Y        N3        Beta/Z          J
 ---------------------------------------------------------------------------------------------------
      1      1  H 
      2      2  C        1   1.080271(     1)
      3      3  C        2   1.340683(     2)      1  119.546(    12)
      4      4  C        2   1.455609(     3)      1  121.130(    13)      3  166.999(    22)      0
      5      5  H        3   1.082847(     4)      2  124.221(    14)      1    1.512(    23)      0
      6      6  O        3   1.354233(     5)      2  123.704(    15)      5  173.978(    24)      0
      7      7  C        4   1.335289(     6)      2  119.175(    16)      1  177.837(    25)      0
      8      8  H        4   1.082335(     7)      2  119.269(    17)      7  173.910(    26)      0
      9      9  C        6   1.446641(     8)      3  115.737(    18)      2   19.821(    27)      0
     10     10  H        7   1.081772(     9)      4  122.533(    19)      2  173.125(    28)      0
     11     11  H        9   1.088866(    10)      6  105.407(    20)      3 -161.250(    29)      0
     12     12  H        9   1.105029(    11)      6  107.165(    21)     11 -115.042(    30)      0
 ---------------------------------------------------------------------------------------------------
                         Z-Matrix orientation:                         
 ---------------------------------------------------------------------
 Center     Atomic      Atomic             Coordinates (Angstroms)
 Number     Number       Type             X           Y           Z
 ---------------------------------------------------------------------
      1          1           0        0.000000    0.000000    0.000000
      2          6           0        0.000000    0.000000    1.080271
      3          6           0        1.166339    0.000000    1.741394
      4          6           0       -1.214056    0.280317    1.832792
      5          1           0        2.137507    0.023624    1.263028
      6          8           0        1.266244    0.088582    3.089029
      7          6           0       -1.179999    0.227302    3.166593
      8          1           0       -2.095598    0.622938    1.306539
      9          6           0        0.073790   -0.257332    3.831436
     10          1           0       -2.016384    0.529797    3.782375
     11          1           0        0.210024    0.181702    4.818513
     12          1           0        0.065837   -1.356800    3.941865
 ---------------------------------------------------------------------
                    Distance matrix (angstroms):
                    1          2          3          4          5
     1  H    0.000000
     2  C    1.080271   0.000000
     3  C    2.095901   1.340683   0.000000
     4  C    2.216221   1.455609   2.398585   0.000000
     5  H    2.482888   2.145435   1.082847   3.409324   0.000000
     6  O    3.339658   2.376200   1.354233   2.786894   2.024252
     7  C    3.386942   2.407656   2.754662   1.335289   3.830260
     8  H    2.546886   2.197903   3.349236   1.082335   4.275540
     9  C    3.840777   2.764159   2.372375   2.437661   3.306748
    10  H    4.318894   3.412895   3.817855   2.122933   4.884478
    11  H    4.826509   3.748543   3.227416   3.309419   4.047425
    12  H    4.169357   3.167643   2.809641   2.960822   3.656987
                    6          7          8          9         10
     6  O    0.000000
     7  C    2.451400   0.000000
     8  H    3.842497   2.110605   0.000000
     9  C    1.446641   1.499624   3.443287   0.000000
    10  H    3.383939   1.081772   2.478853   2.234012   0.000000
    11  H    2.028641   2.159417   4.224280   1.088866   2.480251
    12  H    2.063355   2.159290   3.941587   1.105029   2.814309
                   11         12
    11  H    0.000000
    12  H    1.776595   0.000000
 Symmetry turned off by external request.
 Stoichiometry    C5H6O
 Framework group  C1[X(C5H6O)]
 Deg. of freedom    30
 Full point group                 C1      NOp   1
 Rotational constants (GHZ):           5.5781869           5.3628214           2.8468639
 1\1\GINC-BHC0108\FOpt\RB3LYP\def2TZVP\C5H6O1\DHANAWAY\10-Jun-2022\1\\#
  Opt=(Z-matrix, MaxStep=10) B3LYP/Def2TZVP geom=allcheckpoint guess=re
 ad Field=read NoSymm freq=noraman pop=none\\int_zmat_initalOpt\\0,1\H\
 C,1,R2\C,2,R3,1,A3\C,2,R4,1,A4,3,D4,0\H,3,R5,2,A5,1,D5,0\O,3,R6,2,A6,5
 ,D6,0\C,4,R7,2,A7,1,D7,0\H,4,R8,2,A8,7,D8,0\C,6,R9,3,A9,2,D9,0\H,7,R10
 ,4,A10,2,D10,0\H,9,R11,6,A11,3,D11,0\H,9,R12,6,A12,11,D12,0\\R2=1.0802
 7077\R3=1.34068287\R4=1.45560886\R5=1.08284733\R6=1.35423324\R7=1.3352
 8885\R8=1.08233456\R9=1.44664149\R10=1.08177177\R11=1.08886647\R12=1.1
 0502882\A3=119.54612449\A4=121.12992094\A5=124.22123235\A6=123.7038341
 3\A7=119.17547389\A8=119.26942443\A9=115.7371246\A10=122.53250757\A11=
 105.40709842\A12=107.16527973\D4=166.99864631\D5=1.51192009\D6=173.978
 41825\D7=177.83743149\D8=173.91047367\D9=19.82063734\D10=173.12549905\
 D11=-161.25009768\D12=-115.0418467\\Version=ES64L-G16RevA.03\HF=-269.4
 258543\RMSD=6.701e-09\RMSF=5.300e-04\Dipole=-0.6343149,0.3524228,0.015
 0485\PG=C01 [X(C5H6O1)]\\@


 EVERY WORD THAT YOU WRITE IS A BLOW THAT SMITES THE DEVIL.
     -- ST. BERNARD OF CLAIRVAUX
 Job cpu time:       0 days  0 hours 15 minutes 39.2 seconds.
 Elapsed time:       0 days  0 hours  1 minutes 39.6 seconds.
 File lengths (MBytes):  RWF=     24 Int=      0 D2E=      0 Chk=     32 Scr=      1
 Normal termination of Gaussian 16 at Fri Jun 10 23:39:32 2022.
 Link1:  Proceeding to internal job step number  2.
 --------------------------------------------------------------------
 #N Geom=AllCheck Guess=TCheck SCRF=Check GenChk RB3LYP/def2TZVP Freq
 --------------------------------------------------------------------
 1/8=10,10=4,29=7,30=1,38=1,40=1/1,3;
 2/12=2,15=1,40=1/2;
 3/5=44,7=101,11=2,14=-4,25=1,30=1,70=2,71=2,74=-5,116=1,140=1/1,2,3;
 4/5=101/1;
 5/5=2,38=6,98=1/2;
 8/6=4,10=90,11=11/1;
 11/6=1,8=1,9=11,15=111,16=1,31=1/1,2,10;
 10/6=1,31=1/2;
 7/8=1,10=1,25=1,30=1/1,2,3,16;
 1/8=10,10=4,30=1/3;
 99//99;
 Structure from the checkpoint file:  "checkpoint.chk"
 ------------------
 int_zmat_initalOpt
 ------------------
 Charge =  0 Multiplicity = 1
 Z-Matrix found in chk file.
 H
 C,1,R2
 C,2,R3,1,A3
 C,2,R4,1,A4,3,D4,0
 H,3,R5,2,A5,1,D5,0
 O,3,R6,2,A6,5,D6,0
 C,4,R7,2,A7,1,D7,0
 H,4,R8,2,A8,7,D8,0
 C,6,R9,3,A9,2,D9,0
 H,7,R10,4,A10,2,D10,0
 H,9,R11,6,A11,3,D11,0
 H,9,R12,6,A12,11,D12,0
      Variables:
 R2=1.08027077
 R3=1.34068287
 R4=1.45560886
 R5=1.08284733
 R6=1.35423324
 R7=1.33528885
 R8=1.08233456
 R9=1.44664149
 R10=1.08177177
 R11=1.08886647
 R12=1.10502882
 A3=119.54612449
 A4=121.12992094
 A5=124.22123235
 A6=123.70383413
 A7=119.17547389
 A8=119.26942443
 A9=115.7371246
 A10=122.53250757
 A11=105.40709842
 A12=107.16527973
 D4=166.99864631
 D5=1.51192009
 D6=173.97841825
 D7=177.83743149
 D8=173.91047367
 D9=19.82063734
 D10=173.12549905
 D11=-161.25009768
 D12=-115.0418467
 Recover connectivity data from disk.

 GradGradGradGradGradGradGradGradGradGradGradGradGradGradGradGradGradGrad
 Berny optimization.
 Initialization pass.
                       ----------------------------
                       !    Initial Parameters    !
                       ! (Angstroms and Degrees)  !
 ----------------------                            ----------------------
 !      Name          Value   Derivative information (Atomic Units)     !
 ------------------------------------------------------------------------
 !       R2          1.0803   calculate D2E/DX2 analytically            !
 !       R3          1.3407   calculate D2E/DX2 analytically            !
 !       R4          1.4556   calculate D2E/DX2 analytically            !
 !       R5          1.0828   calculate D2E/DX2 analytically            !
 !       R6          1.3542   calculate D2E/DX2 analytically            !
 !       R7          1.3353   calculate D2E/DX2 analytically            !
 !       R8          1.0823   calculate D2E/DX2 analytically            !
 !       R9          1.4466   calculate D2E/DX2 analytically            !
 !       R10         1.0818   calculate D2E/DX2 analytically            !
 !       R11         1.0889   calculate D2E/DX2 analytically            !
 !       R12         1.105    calculate D2E/DX2 analytically            !
 !       A3        119.5461   calculate D2E/DX2 analytically            !
 !       A4        121.1299   calculate D2E/DX2 analytically            !
 !       A5        124.2212   calculate D2E/DX2 analytically            !
 !       A6        123.7038   calculate D2E/DX2 analytically            !
 !       A7        119.1755   calculate D2E/DX2 analytically            !
 !       A8        119.2694   calculate D2E/DX2 analytically            !
 !       A9        115.7371   calculate D2E/DX2 analytically            !
 !       A10       122.5325   calculate D2E/DX2 analytically            !
 !       A11       105.4071   calculate D2E/DX2 analytically            !
 !       A12       107.1653   calculate D2E/DX2 analytically            !
 !       D4        166.9986   calculate D2E/DX2 analytically            !
 !       D5          1.5119   calculate D2E/DX2 analytically            !
 !       D6        173.9784   calculate D2E/DX2 analytically            !
 !       D7        177.8374   calculate D2E/DX2 analytically            !
 !       D8        173.9105   calculate D2E/DX2 analytically            !
 !       D9         19.8206   calculate D2E/DX2 analytically            !
 !       D10       173.1255   calculate D2E/DX2 analytically            !
 !       D11      -161.2501   calculate D2E/DX2 analytically            !
 !       D12      -115.0418   calculate D2E/DX2 analytically            !
 ------------------------------------------------------------------------
 Trust Radius=1.00D-01 FncErr=1.00D-07 GrdErr=1.00D-07 EigMax=2.50D+02 EigMin=1.00D-04
 Number of steps in this run=      2 maximum allowed number of steps=      2.
 GradGradGradGradGradGradGradGradGradGradGradGradGradGradGradGradGradGrad

                          Input orientation:                          
 ---------------------------------------------------------------------
 Center     Atomic      Atomic             Coordinates (Angstroms)
 Number     Number       Type             X           Y           Z
 ---------------------------------------------------------------------
      1          1           0        0.000000    0.000000    0.000000
      2          6           0        0.000000    0.000000    1.080271
      3          6           0        1.166339    0.000000    1.741394
      4          6           0       -1.214056    0.280317    1.832792
      5          1           0        2.137507    0.023624    1.263028
      6          8           0        1.266244    0.088582    3.089029
      7          6           0       -1.179999    0.227302    3.166593
      8          1           0       -2.095598    0.622938    1.306539
      9          6           0        0.073790   -0.257332    3.831436
     10          1           0       -2.016384    0.529797    3.782375
     11          1           0        0.210024    0.181702    4.818513
     12          1           0        0.065837   -1.356800    3.941865
 ---------------------------------------------------------------------
                    Distance matrix (angstroms):
                    1          2          3          4          5
     1  H    0.000000
     2  C    1.080271   0.000000
     3  C    2.095901   1.340683   0.000000
     4  C    2.216221   1.455609   2.398585   0.000000
     5  H    2.482888   2.145435   1.082847   3.409324   0.000000
     6  O    3.339658   2.376200   1.354233   2.786894   2.024252
     7  C    3.386942   2.407656   2.754662   1.335289   3.830260
     8  H    2.546886   2.197903   3.349236   1.082335   4.275540
     9  C    3.840777   2.764159   2.372375   2.437661   3.306748
    10  H    4.318894   3.412895   3.817855   2.122933   4.884478
    11  H    4.826509   3.748543   3.227416   3.309419   4.047425
    12  H    4.169357   3.167643   2.809641   2.960822   3.656987
                    6          7          8          9         10
     6  O    0.000000
     7  C    2.451400   0.000000
     8  H    3.842497   2.110605   0.000000
     9  C    1.446641   1.499624   3.443287   0.000000
    10  H    3.383939   1.081772   2.478853   2.234012   0.000000
    11  H    2.028641   2.159417   4.224280   1.088866   2.480251
    12  H    2.063355   2.159290   3.941587   1.105029   2.814309
                   11         12
    11  H    0.000000
    12  H    1.776595   0.000000
 Symmetry turned off by external request.
 Stoichiometry    C5H6O
 Framework group  C1[X(C5H6O)]
 Deg. of freedom    30
 Full point group                 C1      NOp   1
 Rotational constants (GHZ):           5.5781869           5.3628214           2.8468639
 Standard basis: def2TZVP (5D, 7F)
 The following finite field(s) will be applied:
 An electric field of              0.0053 -0.0085 -0.0003
   222 basis functions,   354 primitive gaussians,   252 cartesian basis functions
    22 alpha electrons       22 beta electrons
       nuclear repulsion energy       223.4395505464 Hartrees.
 NAtoms=   12 NActive=   12 NUniq=   12 SFac= 1.00D+00 NAtFMM=   60 NAOKFM=F Big=F
 Integral buffers will be    131072 words long.
 Raffenetti 2 integral format.
 Two-electron integral symmetry is turned off.
 One-electron integrals computed using PRISM.
   1 Symmetry operations used in ECPInt.
 ECPInt:  NShTT=    4095 NPrTT=   12396 LenC2=    4075 LenP2D=   10418.
 LDataN:  DoStor=T MaxTD1= 6 Len=  172
 NBasis=   222 RedAO= T EigKep=  9.91D-05  NBF=   222
 NBsUse=   222 1.00D-06 EigRej= -1.00D+00 NBFU=   222
 The nuclear repulsion energy is now       223.3507385640 hartrees.
 Initial guess from the checkpoint file:  "checkpoint.chk"
 B after Tr=     0.000000    0.000000    0.000000
         Rot=    1.000000    0.000000    0.000000    0.000000 Ang=   0.00 deg.
 Keep R1 ints in memory in canonical form, NReq=319363885.
 Requested convergence on RMS density matrix=1.00D-08 within 128 cycles.
 Requested convergence on MAX density matrix=1.00D-06.
 Requested convergence on             energy=1.00D-06.
 No special actions if energy rises.
 SCF Done:  E(RB3LYP) =  -269.425854339     A.U. after    1 cycles
            NFock=  1  Conv=0.46D-08     -V/T= 2.0050
 DoSCS=F DFT=T ScalE2(SS,OS)=  1.000000  1.000000
 Range of M.O.s used for correlation:     1   222
 NBasis=   222 NAE=    22 NBE=    22 NFC=     0 NFV=     0
 NROrb=    222 NOA=    22 NOB=    22 NVA=   200 NVB=   200

 **** Warning!!: The largest alpha MO coefficient is  0.20635594D+02

   1 Symmetry operations used in ECPInt.
 ECPInt:  NShTT=    4095 NPrTT=   12396 LenC2=    4075 LenP2D=   10418.
 LDataN:  DoStor=T MaxTD1= 7 Len=  274
 Symmetrizing basis deriv contribution to polar:
 IMax=3 JMax=2 DiffMx= 0.00D+00
 G2DrvN: will do    13 centers at a time, making    1 passes.
 Calling FoFCou, ICntrl=  3107 FMM=F I1Cent=   0 AccDes= 0.00D+00.
 End of G2Drv F.D. properties file   721 does not exist.
 End of G2Drv F.D. properties file   722 does not exist.
 End of G2Drv F.D. properties file   788 does not exist.
          IDoAtm=111111111111
          Differentiating once with respect to electric field.
                with respect to dipole field.
          Differentiating once with respect to nuclear coordinates.
 Keep R1 ints in memory in canonical form, NReq=319334014.
          There are    39 degrees of freedom in the 1st order CPHF.  IDoFFX=6 NUNeed=     3.
     36 vectors produced by pass  0 Test12= 1.13D-14 2.56D-09 XBig12= 7.59D+01 5.96D+00.
 AX will form    36 AO Fock derivatives at one time.
     36 vectors produced by pass  1 Test12= 1.13D-14 2.56D-09 XBig12= 1.64D+01 7.55D-01.
     36 vectors produced by pass  2 Test12= 1.13D-14 2.56D-09 XBig12= 2.10D-01 8.15D-02.
     36 vectors produced by pass  3 Test12= 1.13D-14 2.56D-09 XBig12= 5.83D-04 4.08D-03.
     36 vectors produced by pass  4 Test12= 1.13D-14 2.56D-09 XBig12= 1.45D-06 2.08D-04.
     30 vectors produced by pass  5 Test12= 1.13D-14 2.56D-09 XBig12= 3.15D-09 6.87D-06.
      6 vectors produced by pass  6 Test12= 1.13D-14 2.56D-09 XBig12= 3.93D-12 2.98D-07.
      3 vectors produced by pass  7 Test12= 1.13D-14 2.56D-09 XBig12= 3.92D-15 7.28D-09.
 InvSVY:  IOpt=1 It=  1 EMax= 1.95D-14
 Solved reduced A of dimension   219 with    39 vectors.
 Isotropic polarizability for W=    0.000000       59.75 Bohr**3.
 End of Minotr F.D. properties file   721 does not exist.
 End of Minotr F.D. properties file   722 does not exist.
 End of Minotr F.D. properties file   788 does not exist.
   1 Symmetry operations used in ECPInt.
 ECPInt:  NShTT=    4095 NPrTT=   12396 LenC2=    4075 LenP2D=   10418.
 LDataN:  DoStor=T MaxTD1= 8 Len=  415
 Calling FoFJK, ICntrl=    100127 FMM=F ISym2X=0 I1Cent= 0 IOpClX= 0 NMat=1 NMatS=1 NMatT=0.
 Full mass-weighted force constant matrix:
 Low frequencies ---  -14.5338   -2.8175   -0.0004    0.0006    0.0006   10.7943
 Low frequencies ---  161.9413  334.5716  500.5565
 Diagonal vibrational polarizability:
        4.0531133       8.2009633       4.1953911
 Harmonic frequencies (cm**-1), IR intensities (KM/Mole), Raman scattering
 activities (A**4/AMU), depolarization ratios for plane and unpolarized
 incident light, reduced masses (AMU), force constants (mDyne/A),
 and normal coordinates:
                      1                      2                      3
                      A                      A                      A
 Frequencies --    161.9155               334.5479               500.5447
 Red. masses --      2.2257                 2.7166                 3.3288
 Frc consts  --      0.0344                 0.1791                 0.4914
 IR Inten    --      1.9433                10.9840                16.2636
  Atom  AN      X      Y      Z        X      Y      Z        X      Y      Z
     1   1    -0.03  -0.30   0.04     0.03   0.15   0.01     0.06   0.02   0.14
     2   6    -0.01  -0.15   0.04    -0.01  -0.08   0.01    -0.03   0.13   0.14
     3   6     0.00  -0.01   0.03     0.01   0.21   0.01     0.02  -0.09   0.08
     4   6     0.02   0.05   0.02    -0.04  -0.17  -0.01    -0.20  -0.07  -0.05
     5   1    -0.00   0.02   0.02    -0.01   0.68  -0.01    -0.05  -0.39  -0.08
     6   8    -0.03   0.17   0.02     0.04  -0.16   0.00     0.21  -0.00   0.07
     7   6     0.02   0.09   0.02     0.03   0.19   0.01    -0.06   0.08  -0.06
     8   1     0.09   0.19  -0.00    -0.04  -0.23  -0.05    -0.30  -0.45  -0.14
[...]
     Eigenvalues ---    0.30150   0.31901   0.34222   0.35229   0.35675
     Eigenvalues ---    0.35920   0.36158   0.37034   0.46419   0.51017
     Eigenvalues ---    0.58174   0.59061   2.28731   3.78870  21.87663
 Angle between quadratic step and forces=  62.72 degrees.
 Linear search not attempted -- first point.
 Variable       Old X    -DE/DX   Delta X   Delta X   Delta X     New X
                                 (Linear)    (Quad)   (Total)
    R2        2.04142  -0.00001   0.00000  -0.00003  -0.00003   2.04138
    R3        2.53352   0.00001   0.00000  -0.00001  -0.00001   2.53352
    R4        2.75070  -0.00001   0.00000   0.00000   0.00000   2.75071
    R5        2.04628   0.00001   0.00000   0.00005   0.00005   2.04634
    R6        2.55913  -0.00011   0.00000  -0.00041  -0.00041   2.55872
    R7        2.52333  -0.00002   0.00000  -0.00007  -0.00007   2.52326
    R8        2.04532   0.00000   0.00000   0.00001   0.00001   2.04533
    R9        2.73376   0.00010   0.00000   0.00050   0.00050   2.73425
   R10        2.04425  -0.00000   0.00000   0.00000   0.00000   2.04426
   R11        2.05766  -0.00000   0.00000   0.00001   0.00001   2.05767
   R12        2.08820  -0.00003   0.00000  -0.00013  -0.00013   2.08807
    A3        2.08647   0.00006   0.00000   0.00019   0.00019   2.08667
    A4        2.11412   0.00004   0.00000  -0.00006  -0.00006   2.11405
    A5        2.16807  -0.00002   0.00000  -0.00019  -0.00019   2.16788
    A6        2.15904   0.00001   0.00000   0.00028   0.00028   2.15931
    A7        2.08000   0.00002   0.00000   0.00027   0.00027   2.08028
    A8        2.08164  -0.00000   0.00000  -0.00003  -0.00003   2.08161
    A9        2.01999   0.00007   0.00000   0.00070   0.00070   2.02070
   A10        2.13860   0.00001   0.00000  -0.00008  -0.00008   2.13852
   A11        1.83970  -0.00003   0.00000  -0.00020  -0.00020   1.83950
   A12        1.87039   0.00000   0.00000  -0.00006  -0.00006   1.87033
    D4        2.91468   0.00002   0.00000   0.00009   0.00009   2.91477
    D5        0.02639  -0.00004   0.00000  -0.00076  -0.00076   0.02562
    D6        3.03650  -0.00002   0.00000   0.00065   0.00065   3.03715
    D7        3.10385  -0.00001   0.00000   0.00054   0.00054   3.10439
    D8        3.03531   0.00005   0.00000   0.00108   0.00108   3.03639
    D9        0.34594  -0.00002   0.00000  -0.00154  -0.00154   0.34440
   D10        3.02161   0.00000   0.00000   0.00059   0.00059   3.02220
   D11       -2.81435   0.00003   0.00000   0.00292   0.00292  -2.81142
   D12       -2.00786   0.00001   0.00000   0.00016   0.00016  -2.00770
         Item               Value     Threshold  Converged?
 Maximum Force            0.000113     0.000450     YES
 RMS     Force            0.000037     0.000300     YES
 Maximum Displacement     0.002922     0.001800     NO 
 RMS     Displacement     0.000706     0.001200     YES
 Predicted change in Energy=-1.794967D-07
                       ----------------------------
                       ! Non-Optimized Parameters !
                       ! (Angstroms and Degrees)  !
 ----------------------                            ----------------------
 !      Name          Value   Derivative information (Atomic Units)     !
 ------------------------------------------------------------------------
 !       R2          1.0803   -DE/DX =    0.0                           !
 !       R3          1.3407   -DE/DX =    0.0                           !
 !       R4          1.4556   -DE/DX =    0.0                           !
 !       R5          1.0829   -DE/DX =    0.0                           !
 !       R6          1.354    -DE/DX =   -0.0001                        !
 !       R7          1.3353   -DE/DX =    0.0                           !
 !       R8          1.0823   -DE/DX =    0.0                           !
 !       R9          1.4469   -DE/DX =    0.0001                        !
 !       R10         1.0818   -DE/DX =    0.0                           !
 !       R11         1.0889   -DE/DX =    0.0                           !
 !       R12         1.105    -DE/DX =    0.0                           !
 !       A3        119.5573   -DE/DX =    0.0001                        !
 !       A4        121.1262   -DE/DX =    0.0                           !
 !       A5        124.2103   -DE/DX =    0.0                           !
 !       A6        123.7196   -DE/DX =    0.0                           !
 !       A7        119.1912   -DE/DX =    0.0                           !
 !       A8        119.2677   -DE/DX =    0.0                           !
 !       A9        115.7774   -DE/DX =    0.0001                        !
 !       A10       122.528    -DE/DX =    0.0                           !
 !       A11       105.3956   -DE/DX =    0.0                           !
 !       A12       107.1621   -DE/DX =    0.0                           !
 !       D4        167.0037   -DE/DX =    0.0                           !
 !       D5          1.4681   -DE/DX =    0.0                           !
 !       D6        174.0158   -DE/DX =    0.0                           !
 !       D7        177.8683   -DE/DX =    0.0                           !
 !       D8        173.9721   -DE/DX =    0.0001                        !
 !       D9         19.7324   -DE/DX =    0.0                           !
 !       D10       173.1595   -DE/DX =    0.0                           !
 !       D11      -161.0827   -DE/DX =    0.0                           !
 !       D12      -115.0327   -DE/DX =    0.0                           !
 ------------------------------------------------------------------------
 GradGradGradGradGradGradGradGradGradGradGradGradGradGradGradGradGradGrad


 ----------------------------------------------------------------------

 Electric dipole moment (input orientation):
 (Debye = 10**-18 statcoulomb cm , SI units = C m)
                  (au)            (Debye)         (10**-30 SI)
   Tot        0.725800D+00      0.184480D+01      0.615359D+01
   x         -0.634317D+00     -0.161227D+01     -0.537796D+01
   y          0.352422D+00      0.895766D+00      0.298795D+01
   z          0.150528D-01      0.382605D-01      0.127623D+00

 Dipole polarizability, Alpha (input orientation).
 (esu units = cm**3 , SI units = C**2 m**2 J**-1)
 Alpha(0;0):
               (au)            (10**-24 esu)      (10**-40 SI)
   iso        0.597461D+02      0.885347D+01      0.985081D+01
   aniso      0.275701D+02      0.408547D+01      0.454570D+01
   xx         0.661221D+02      0.979828D+01      0.109021D+02
   yx        -0.376909D+01     -0.558522D+00     -0.621439D+00
   yy         0.424122D+02      0.628483D+01      0.699282D+01
   zx        -0.210350D+01     -0.311706D+00     -0.346820D+00
   zy        -0.203489D+01     -0.301540D+00     -0.335508D+00
   zz         0.707042D+02      0.104773D+02      0.116575D+02

 ----------------------------------------------------------------------

 Dipole orientation:
     1          0.00000000          0.00000000          0.00000000
     6          1.78410686         -0.99123611          0.04233822
     6          3.43078353         -0.68155735         -1.85800282
     6          2.66964356         -2.22816920          2.33410244
     1          3.12127304          0.55469372         -3.45899264
     8          5.77356803         -1.71090282         -1.88890088
     6          4.84701490         -3.50232810          2.28148540
     1          1.65035579         -1.93994837          4.08375906
     6          6.16069019         -3.83164587         -0.20782730
     1          5.70379632         -4.28485010          3.96450432
     1          8.20060614         -3.99231931          0.00871184
     1          5.47550702         -5.53700716         -1.19921712

 Electric dipole moment (dipole orientation):
 (Debye = 10**-18 statcoulomb cm , SI units = C m)
                  (au)            (Debye)         (10**-30 SI)
   Tot        0.725800D+00      0.184480D+01      0.615359D+01
   x          0.000000D+00      0.000000D+00      0.000000D+00
   y          0.000000D+00      0.000000D+00      0.000000D+00
   z          0.725800D+00      0.184480D+01      0.615359D+01

 Dipole polarizability, Alpha (dipole orientation).
 (esu units = cm**3 , SI units = C**2 m**2 J**-1)
 Alpha(0;0):
               (au)            (10**-24 esu)      (10**-40 SI)
   iso        0.597461D+02      0.885347D+01      0.985081D+01
   aniso      0.275701D+02      0.408547D+01      0.454570D+01
   xx         0.623308D+02      0.923648D+01      0.102770D+02
   yx        -0.123699D+02     -0.183302D+01     -0.203951D+01
   yy         0.531395D+02      0.787446D+01      0.876152D+01
   zx        -0.307984D+01     -0.456386D+00     -0.507797D+00
   zy        -0.759076D+01     -0.112483D+01     -0.125155D+01
   zz         0.637681D+02      0.944946D+01      0.105139D+02

 ----------------------------------------------------------------------
 1\1\GINC-BHC0108\Freq\RB3LYP\def2TZVP\C5H6O1\DHANAWAY\10-Jun-2022\1\\#
 N Geom=AllCheck Guess=TCheck SCRF=Check GenChk RB3LYP/def2TZVP Freq\\i
 nt_zmat_initalOpt\\0,1\H\C,1,R2\C,2,R3,1,A3\C,2,R4,1,A4,3,D4,0\H,3,R5,
 2,A5,1,D5,0\O,3,R6,2,A6,5,D6,0\C,4,R7,2,A7,1,D7,0\H,4,R8,2,A8,7,D8,0\C
 ,6,R9,3,A9,2,D9,0\H,7,R10,4,A10,2,D10,0\H,9,R11,6,A11,3,D11,0\H,9,R12,
 6,A12,11,D12,0\\R2=1.08027077\R3=1.34068287\R4=1.45560886\R5=1.0828473
 3\R6=1.35423324\R7=1.33528885\R8=1.08233456\R9=1.44664149\R10=1.081771
 77\R11=1.08886647\R12=1.10502882\A3=119.54612449\A4=121.12992094\A5=12
 4.22123235\A6=123.70383413\A7=119.17547389\A8=119.26942443\A9=115.7371
 246\A10=122.53250757\A11=105.40709842\A12=107.16527973\D4=166.99864631
 \D5=1.51192009\D6=173.97841825\D7=177.83743149\D8=173.91047367\D9=19.8
 2063734\D10=173.12549905\D11=-161.25009768\D12=-115.0418467\\Version=E
 S64L-G16RevA.03\HF=-269.4258543\RMSD=4.623e-09\RMSF=5.300e-04\ZeroPoin
 t=0.0981906\Thermal=0.1031614\Dipole=-0.6343168,0.3524216,0.0150528\Di
 poleDeriv=0.0672755,0.0167025,0.0332354,0.040176,0.151875,0.0265,0.027
 6153,-0.0138168,-0.0791227,-0.3679586,-0.0761432,-0.0465061,-0.1283015
 ,-0.2301967,-0.0627756,-0.1381042,0.0278524,-0.0273682,0.369035,0.0711
 813,0.1873106,0.1725719,-0.099823,0.0703339,0.4826964,0.042956,0.78656
 61,0.2241805,-0.0629142,-0.1686642,-0.0997201,-0.0756636,-0.0200781,-0
 .0764988,-0.052544,0.0865014,-0.0784152,0.000863,0.0838423,0.0176672,0
 .1470466,-0.0276537,0.0724822,-0.0033158,-0.0018587,-0.4979232,-0.1122
 47,0.1298516,-0.1333485,-0.2698246,0.0346118,-0.3934755,0.103866,-1.07
 41432,-0.1023672,-0.0654895,0.0145229,-0.0693407,-0.2171307,0.0323783,
 0.0872882,0.0525652,-0.1937168,0.0065071,0.0395124,-0.0322855,0.059488
 6,0.1309242,0.0196327,-0.0311868,0.0156688,0.0471557,0.2847866,0.12490
 05,-0.1601567,0.064582,0.5942038,-0.1921829,-0.0535504,-0.1415369,0.53
 56468,0.0277515,0.0367277,0.0293365,0.0662416,0.1354888,-0.0270712,0.0
 335915,-0.0041606,0.0277607,0.0450893,-0.0066557,-0.0215113,-0.0187696
 ,0.0377824,-0.0571843,-0.009573,-0.02242,-0.1057796,0.0220388,0.033562
 2,-0.0489754,0.028753,-0.3046823,0.2034891,-0.0012849,-0.0051144,-0.00
 16415\Polar=66.1220935,-3.7690925,42.4121614,-2.1034973,-2.0348917,70.
 7041931\PG=C01 [X(C5H6O1)]\NImag=0\\0.05427211,-0.00441890,0.02272837,
 0.00141208,0.00179764,0.36258457,-0.05564182,0.00423146,-0.00213039,0.
 67768533,0.00530685,-0.02759085,-0.00163047,-0.04737060,0.11680248,0.0
 0139763,0.00392565,-0.34281127,0.09468953,0.02145306,0.73906648,0.0049
 3761,-0.00049333,0.00351106,-0.39464766,0.00479155,-0.15556232,0.85138
 345,-0.00069267,-0.00261963,-0.00021010,-0.00982227,-0.05287132,0.0011
 5286,0.01346150,0.12914461,-0.02960549,-0.00050567,-0.01336847,-0.1349
 6546,0.00964205,-0.19060985,0.03978053,0.01028808,0.60328939,0.0055521
 7,-0.00042607,-0.00256225,-0.19532308,0.03308225,0.06895678,-0.0544286
 6,0.01027443,-0.00564745,0.59007979,-0.00175362,-0.00024347,0.00072961
 ,0.04161771,-0.06745155,-0.01778921,0.00437630,0.00821695,0.00129284,-
 0.14515371,0.18052252,0.02671017,-0.00472757,-0.00972008,0.04079591,-0
 .00332699,-0.14313621,0.01125377,-0.00794045,0.02863787,0.06614081,-0.
 05627256,0.79533000,0.00068102,0.00039237,-0.00043930,-0.01793761,0.00
 070464,0.01466359,-0.28814149,-0.00828465,0.10594090,-0.00201268,-0.00
 114390,-0.00494004,0.29948732,-0.00048583,-0.00494340,-0.00017016,0.00
 474728,0.00702338,0.00243185,-0.01340957,-0.03657388,-0.00172042,-0.00
 108681,0.00941867,-0.00026861,0.00726708,0.02198208,0.00047161,-0.0000
 2619,0.00062450,-0.01401282,0.00114414,0.01184136,0.10223889,-0.001017
 24,-0.09824523,-0.00238617,-0.00023389,-0.00176482,-0.11665982,-0.0017
 6005,0.12050087,-0.00469223,0.00012918,-0.00228594,0.00730005,-0.00286
 824,-0.03778710,-0.11178286,-0.01412517,-0.00814208,0.00402873,0.00087
 580,0.00270715,0.00610942,0.00221668,0.03305874,0.29185587,0.00072521,
 0.01140304,0.00041146,0.00620239,0.00951487,-0.00788485,-0.01280982,-0
 .04429644,-0.01214053,-0.00549195,-0.00550901,0.00837764,-0.00003348,0
 .00134252,0.00410987,0.06775763,0.09308750,-0.00326152,0.00088621,0.00
 167908,-0.03586701,-0.01505627,-0.05908452,-0.03437964,-0.00939998,-0.
 27695372,0.02125204,-0.00364314,-0.01140578,0.00212743,0.00410371,-0.0
 2948585,-0.03196623,-0.02127596,0.48527436,-0.00502164,0.00118137,0.00
 260888,0.00307040,-0.00088787,0.03339607,-0.00371320,0.00526340,0.0030
 2810,-0.10917308,0.01881072,-0.00809958,0.00058969,-0.00109943,-0.0000
 0851,-0.03693085,0.00352640,-0.00346586,0.53431954,0.00200721,0.001209
 82,-0.00091358,0.00343809,0.00926351,-0.00954747,-0.00061496,0.0012308
 8,-0.00366421,0.01649368,-0.06465748,0.02086340,-0.00009029,-0.0005921
 0,0.00000493,-0.00274057,0.00566340,-0.00015087,-0.14840419,0.19240080
 ,0.00186978,-0.00005919,0.00035297,0.03687250,-0.00590249,-0.02892111,
 -0.01100898,0.00306447,-0.01189828,-0.02049253,0.02434616,-0.50367989,
 0.00025788,-0.00231590,-0.00025321,0.01807241,-0.00881789,0.01613741,-
 0.07650069,-0.00094226,0.82125830,0.00083220,-0.00061743,0.00016507,-0
 .01697771,0.00731439,-0.01214789,-0.00160514,0.00128018,0.00412038,-0.
 24277036,0.07827823,-0.11242201,-0.00076242,-0.00050271,-0.00066934,0.
 00085033,-0.00011114,-0.00041879,0.00445377,0.00046255,0.00069118,0.25
 413433,-0.00037286,-0.00037085,-0.00000874,0.00204672,0.00105307,0.004
 79289,0.00173983,0.00092006,-0.00201217,0.08127969,-0.06915113,0.04319
 208,0.00025450,0.00026457,0.00025684,0.00007472,-0.00056191,0.00080348
 ,0.00190626,0.00508793,-0.00007215,-0.08658865,0.05857750,-0.00085489,
 -0.00003218,0.00060250,0.01527212,-0.00594288,0.01156483,0.00297799,-0
 .00046353,-0.00317576,-0.11026323,0.04236513,-0.12314844,0.00084760,0.
 00066974,0.00052102,-0.00031024,-0.00024485,0.00141085,-0.02786019,0.0
 1159323,-0.01187135,0.11913289,-0.04791601,0.12876737,-0.00141477,0.00
 025315,0.00003740,-0.01521858,-0.00622805,-0.01059844,0.00561560,0.006
 25442,0.04078594,0.00789370,0.00071640,-0.02138052,0.00187838,0.003391
 55,-0.00390519,-0.13392112,-0.03753462,0.02622062,-0.16123243,0.045263
 81,-0.04099199,0.00199370,0.00310802,0.00224230,0.40304482,-0.00012527
 ,-0.00005917,-0.00027314,-0.00441691,-0.00578199,-0.00231087,0.0038092
 0,-0.00167214,-0.00229924,0.00756178,0.00181656,0.00222119,0.00087276,
 0.00360169,-0.00332532,-0.03436451,-0.07218173,0.02109495,0.03336042,-
 0.08980876,0.01984593,0.00295308,0.01071913,-0.00016019,-0.00780499,0.
 51515348,0.00061661,-0.00085297,0.00067694,0.00242745,0.00100630,0.006
 74131,0.03715888,0.00384697,-0.04284868,-0.03774644,0.01758452,-0.0196
 3142,-0.00186927,-0.00099579,-0.00301471,0.01174256,0.01478714,-0.0996
 7262,-0.03704204,0.01577964,-0.12169654,0.00155391,0.00111550,-0.00532
 095,0.05487935,0.05114186,0.58898399,0.00013128,-0.00008323,-0.0002299
 1,0.00364016,0.00389686,-0.00002573,-0.00012142,-0.00078300,-0.0037929
 2,0.00523050,0.00073083,-0.00188976,0.00007942,-0.00076487,0.00020719,
 -0.00488137,0.00236010,0.00109736,-0.22547547,0.06861734,0.12535194,-0
 .00013999,-0.00273851,0.00017853,-0.01144047,0.00502393,0.01327926,0.2
 3345590,-0.00012406,0.00065044,0.00023527,0.00378446,0.00940673,0.0012
 8513,-0.00052169,-0.00093097,-0.00161690,-0.00177185,0.00632209,0.0028
 9430,0.00022174,-0.00173547,0.00003129,-0.00062330,0.00173074,0.001464
 01,0.07312206,-0.05731100,-0.04884107,-0.00245533,-0.00616937,-0.00033
 872,0.00500363,0.00096033,-0.00586825,-0.07611205,0.04822832,0.0013728
 1,-0.00018156,-0.00054673,-0.00185105,0.00079277,-0.00447979,-0.000745
 76,-0.00019286,-0.00216700,0.02669632,-0.00920176,-0.01356645,0.000108
 58,-0.00003899,0.00027864,-0.00458341,0.00078945,0.00165509,0.12274860
 ,-0.04507710,-0.14724320,-0.00012664,0.00000703,0.00122495,-0.01028477
 ,0.00370358,0.00980977,-0.13377213,0.04892722,0.15469335,0.00016264,-0
 .00012186,-0.00002504,0.00011411,-0.00023165,0.00083796,-0.00555631,0.
 00003842,-0.00046245,-0.00518103,0.00165571,-0.00152664,-0.00011771,0.
 00030931,0.00142670,-0.00283442,0.00735754,0.03758821,-0.00090826,-0.0
 1145128,-0.02548609,0.00046272,0.00121926,-0.00115178,-0.05382782,-0.0
 1749831,-0.04226043,0.00084926,0.00007654,0.00042295,0.06465231,0.0000
 1516,-0.00005192,-0.00000581,-0.00058797,0.00022314,0.00033237,-0.0019
 4172,0.00060405,0.00221264,0.00238471,-0.00025329,-0.00021446,-0.00003
 731,0.00035298,0.00054915,-0.00035598,0.00482913,0.01309070,0.00277706
 ,0.00623095,0.01400937,-0.00012221,-0.00050524,0.00047392,-0.01465749,
 -0.09827484,-0.10694639,-0.00068110,0.00043228,-0.00064283,0.01758323,
 0.10098989,-0.00005751,-0.00000306,-0.00002316,-0.00004328,-0.00035175
 ,0.00017183,0.00356337,-0.00083107,0.00166663,-0.00279977,0.00012935,0
 .00106900,0.00001850,-0.00034104,-0.00088239,0.00560033,-0.00146714,-0
 .02151850,-0.00353600,-0.00473026,-0.01213867,0.00032448,0.00057636,-0
 .00046421,-0.03333478,-0.09843609,-0.26033750,0.00006145,0.00061807,0.
 00089594,0.03081359,0.10539277,0.28753431,0.00020141,-0.00002673,-0.00
 006166,0.00393640,0.00248986,0.00217991,-0.00193993,-0.00286459,-0.011
 04000,-0.00389599,0.00098952,0.00265074,0.00014667,-0.00058269,0.00023
 872,-0.01510157,-0.03194824,0.02107339,0.00002153,0.02701861,-0.008635
 39,-0.00047143,-0.00192897,-0.00021111,-0.04337102,0.01062882,-0.00273
 984,-0.00132781,-0.00060015,0.00001450,0.00218449,-0.00437639,-0.00061
 041,0.05961725,-0.00008123,-0.00011238,0.00003801,-0.00387036,0.000408
 52,0.00215859,0.00161271,-0.00115216,0.00052353,0.00285385,0.00096913,
 -0.00479797,-0.00012346,-0.00014105,0.00026646,-0.01597624,-0.00502212
 ,0.00808315,0.01044381,-0.00871795,0.00568501,0.00010903,0.00013623,-0
 .00000367,0.00223416,-0.26447257,0.00940147,0.00053371,-0.00158414,0.0
 0111505,0.00106308,-0.01457715,-0.00055613,0.00120095,0.29426564,-0.00
 007128,-0.00022109,-0.00005085,-0.00118752,-0.00182746,-0.00034306,0.0
 0121221,0.00170285,0.00567309,-0.00114812,0.00069295,0.00101621,-0.000
 05605,0.00040565,-0.00012019,0.01389381,0.02335565,-0.00803580,-0.0052
 6878,0.01678456,-0.00004645,-0.00020323,-0.00073514,-0.00011081,-0.003
 66992,0.00879733,-0.05368958,-0.00046527,0.00120965,-0.00055458,-0.000
 17700,-0.02825144,0.00402670,-0.00285885,-0.02191351,0.05223532\\0.000
 06404,0.00098435,-0.00000578,-0.00005136,-0.00257338,0.00005421,-0.000
 00792,0.00155866,-0.00015261,-0.00005059,-0.00005699,-0.00004101,-0.00
 000553,0.00001092,0.00001172,-0.00005031,0.00001551,0.00017183,0.00002
 029,0.00002016,0.00001674,0.00001025,0.00002706,0.00000668,0.00008418,
 0.00004729,-0.00006935,-0.00000351,0.00000282,-0.00000037,-0.00000719,
 -0.00001088,0.00000924,-0.00000237,-0.00002550,-0.00000131\\\@


 IT IS A QUALITY OF REVOLUTIONS NOT TO GO BY OLD LINES OR OLD LAWS,
 BUT TO BREAK UP BOTH, AND MAKE NEW ONES.
                                              -- A. LINCOLN (1848)
 Job cpu time:       0 days  0 hours 32 minutes 21.5 seconds.
 Elapsed time:       0 days  0 hours  2 minutes 43.0 seconds.
 File lengths (MBytes):  RWF=     54 Int=      0 D2E=      0 Chk=     32 Scr=      1
 Normal termination of Gaussian 16 at Fri Jun 10 23:42:15 2022.
