 Entering Gaussian System, Link 0=g16
 Input=int_zmat_field_N75.gjf
 Output=int_zmat_field_N75.out
 Initial command:
 /software/gaussian/g16-a03/l1.exe "/local_scratch/11174528/Gau-14197.inp" -scrdir="/local_scratch/11174528/"
 Entering Link 1 = /software/gaussian/g16-a03/l1.exe PID=     14198.
  
 Copyright (c) 1988,1990,1992,1993,1995,1998,2003,2009,2016,
            Gaussian, Inc.  All Rights Reserved.
  
 This is part of the Gaussian(R) 16 program.  It is based on
 the Gaussian(R) 09 system (copyright 2009, Gaussian, Inc.),
 the Gaussian(R) 03 system (copyright 2003, Gaussian, Inc.),
 the Gaussian(R) 98 system (copyright 1998, Gaussian, Inc.),
 the Gaussian(R) 94 system (copyright 1995, Gaussian, Inc.),
 the Gaussian 92(TM) system (copyright 1992, Gaussian, Inc.),
 the Gaussian 90(TM) system (copyright 1990, Gaussian, Inc.),
 the Gaussian 88(TM) system (copyright 1988, Gaussian, Inc.),
 the Gaussian 86(TM) system (copyright 1986, Carnegie Mellon
 University), and the Gaussian 82(TM) system (copyright 1983,
 Carnegie Mellon University). Gaussian is a federally registered
 trademark of Gaussian, Inc.
  
 This software contains proprietary and confidential information,
 including trade secrets, belonging to Gaussian, Inc.
  
 This software is provided under written license and may be
 used, copied, transmitted, or stored only in accord with that
 written license.
  
 The following legend is applicable only to US Government
 contracts under FAR:
  
                    RESTRICTED RIGHTS LEGEND
  
 Use, reproduction and disclosure by the US Government is
 subject to restrictions as set forth in subparagraphs (a)
 and (c) of the Commercial Computer Software - Restricted
 Rights clause in FAR 52.227-19.
  
 Gaussian, Inc.
 340 Quinnipiac St., Bldg. 40, Wallingford CT 06492
  
  
 ---------------------------------------------------------------
 Warning -- This program may not be used in any manner that
 competes with the business of Gaussian, Inc. or will provide
 assistance to any competitor of Gaussian, Inc.  The licensee
 of this program is prohibited from giving any competitor of
 Gaussian, Inc. access to this program.  By using this program,
 the user acknowledges that Gaussian, Inc. is engaged in the
 business of creating and licensing software in the field of
 computational chemistry and represents and warrants to the
 licensee that it is not a competitor of Gaussian, Inc. and that
 it will not use this program in any manner prohibited above.
 ---------------------------------------------------------------
  

 Cite this work as:
 Gaussian 16, Revision A.03,
 M. J. Frisch, G. W. Trucks, H. B. Schlegel, G. E. Scuseria, 
 M. A. Robb, J. R. Cheeseman, G. Scalmani, V. Barone, 
 G. A. Petersson, H. Nakatsuji, X. Li, M. Caricato, A. V. Marenich, 
 J. Bloino, B. G. Janesko, R. Gomperts, B. Mennucci, H. P. Hratchian, 
 J. V. Ortiz, A. F. Izmaylov, J. L. Sonnenberg, D. Williams-Young, 
 F. Ding, F. Lipparini, F. Egidi, J. Goings, B. Peng, A. Petrone, 
 T. Henderson, D. Ranasinghe, V. G. Zakrzewski, J. Gao, N. Rega, 
 G. Zheng, W. Liang, M. Hada, M. Ehara, K. Toyota, R. Fukuda, 
 J. Hasegawa, M. Ishida, T. Nakajima, Y. Honda, O. Kitao, H. Nakai, 
 T. Vreven, K. Throssell, J. A. Montgomery, Jr., J. E. Peralta, 
 F. Ogliaro, M. J. Bearpark, J. J. Heyd, E. N. Brothers, K. N. Kudin, 
 V. N. Staroverov, T. A. Keith, R. Kobayashi, J. Normand, 
 K. Raghavachari, A. P. Rendell, J. C. Burant, S. S. Iyengar, 
 J. Tomasi, M. Cossi, J. M. Millam, M. Klene, C. Adamo, R. Cammi, 
 J. W. Ochterski, R. L. Martin, K. Morokuma, O. Farkas, 
 J. B. Foresman, and D. J. Fox, Gaussian, Inc., Wallingford CT, 2016.
 
 ******************************************
 Gaussian 16:  ES64L-G16RevA.03 25-Dec-2016
                10-Jun-2022 
 ******************************************
 %nprocshared=12
 Will use up to   12 processors via shared memory.
 %chk=checkpoint.chk
 %mem=12GB
 ----------------------------------------------------------------------
 # Opt=(Z-matrix, MaxStep=10) B3LYP/Def2TZVP geom=allcheckpoint guess=r
 ead Field=read NoSymm freq=noraman pop=none
 ----------------------------------------------------------------------
 1/8=10,10=7,18=40,26=3,29=7,38=1/1,3;
 2/12=2,15=1,29=3,40=1/2;
 3/5=44,7=101,11=2,14=-6,25=1,30=1,71=1,74=-5,116=-2/1,2,3;
 4/5=1/1;
 5/5=2,38=6/2;
 7/29=1,30=1/1,2,3,16;
 1/8=10,10=7,18=40,26=3/3(2);
 2/15=1,29=3/2;
 99//99;
 2/15=1,29=3/2;
 3/5=44,7=101,11=2,14=-2,25=1,30=1,71=1,74=-5/1,2,3;
 4/5=5,16=3,69=1/1;
 5/5=2,38=5/2;
 7/30=1/1,2,3,16;
 1/8=10,18=40,26=3/3(-5);
 2/15=1,29=3/2;
 99/9=1/99;
 Structure from the checkpoint file:  "checkpoint.chk"
 ------------------
 int_zmat_initalOpt
 ------------------
 Charge =  0 Multiplicity = 1
 Z-Matrix found in chk file.
 H
 C,1,R2
 C,2,R3,1,A3
 C,2,R4,1,A4,3,D4,0
 H,3,R5,2,A5,1,D5,0
 O,3,R6,2,A6,5,D6,0
 C,4,R7,2,A7,1,D7,0
 H,4,R8,2,A8,7,D8,0
 C,6,R9,3,A9,2,D9,0
 H,7,R10,4,A10,2,D10,0
 H,9,R11,6,A11,3,D11,0
 H,9,R12,6,A12,11,D12,0
      Variables:
 R2=1.07996014
 R3=1.34100407
 R4=1.4544948
 R5=1.082493
 R6=1.35393902
 R7=1.33588529
 R8=1.08257564
 R9=1.44493929
 R10=1.08186649
 R11=1.08883327
 R12=1.10321922
 A3=119.71861
 A4=121.43843606
 A5=124.33912263
 A6=123.43525695
 A7=119.20232655
 A8=119.28176246
 A9=115.42931465
 A10=122.64493074
 A11=105.37529346
 A12=107.38940314
 D4=169.75023793
 D5=2.62874069
 D6=174.33869973
 D7=174.92722737
 D8=174.90960688
 D9=22.27211458
 D10=174.29641145
 D11=-163.47889426
 D12=-115.1336598
 Recover connectivity data from disk.

 GradGradGradGradGradGradGradGradGradGradGradGradGradGradGradGradGradGrad
 Berny optimization.
 Initialization pass.
                       ----------------------------
                       !    Initial Parameters    !
                       ! (Angstroms and Degrees)  !
 ----------------------                            ----------------------
 !      Name          Value   Derivative information (Atomic Units)     !
 ------------------------------------------------------------------------
 !       R2          1.08     estimate D2E/DX2                          !
 !       R3          1.341    estimate D2E/DX2                          !
 !       R4          1.4545   estimate D2E/DX2                          !
 !       R5          1.0825   estimate D2E/DX2                          !
 !       R6          1.3539   estimate D2E/DX2                          !
 !       R7          1.3359   estimate D2E/DX2                          !
 !       R8          1.0826   estimate D2E/DX2                          !
 !       R9          1.4449   estimate D2E/DX2                          !
 !       R10         1.0819   estimate D2E/DX2                          !
 !       R11         1.0888   estimate D2E/DX2                          !
 !       R12         1.1032   estimate D2E/DX2                          !
 !       A3        119.7186   estimate D2E/DX2                          !
 !       A4        121.4384   estimate D2E/DX2                          !
 !       A5        124.3391   estimate D2E/DX2                          !
 !       A6        123.4353   estimate D2E/DX2                          !
 !       A7        119.2023   estimate D2E/DX2                          !
 !       A8        119.2818   estimate D2E/DX2                          !
 !       A9        115.4293   estimate D2E/DX2                          !
 !       A10       122.6449   estimate D2E/DX2                          !
 !       A11       105.3753   estimate D2E/DX2                          !
 !       A12       107.3894   estimate D2E/DX2                          !
 !       D4        169.7502   estimate D2E/DX2                          !
 !       D5          2.6287   estimate D2E/DX2                          !
 !       D6        174.3387   estimate D2E/DX2                          !
 !       D7        174.9272   estimate D2E/DX2                          !
 !       D8        174.9096   estimate D2E/DX2                          !
 !       D9         22.2721   estimate D2E/DX2                          !
 !       D10       174.2964   estimate D2E/DX2                          !
 !       D11      -163.4789   estimate D2E/DX2                          !
 !       D12      -115.1337   estimate D2E/DX2                          !
 ------------------------------------------------------------------------
 Trust Radius=1.00D-01 FncErr=1.00D-07 GrdErr=1.00D-06 EigMax=2.50D+02 EigMin=1.00D-04
 Number of steps in this run=     40 maximum allowed number of steps=    100.
 GradGradGradGradGradGradGradGradGradGradGradGradGradGradGradGradGradGrad

 ---------------------------------------------------------------------------------------------------
                            Z-MATRIX (ANGSTROMS AND DEGREES)
   CD    Cent   Atom    N1       Length/X        N2       Alpha/Y        N3        Beta/Z          J
 ---------------------------------------------------------------------------------------------------
      1      1  H 
      2      2  C        1   1.079960(     1)
      3      3  C        2   1.341004(     2)      1  119.719(    12)
      4      4  C        2   1.454495(     3)      1  121.438(    13)      3  169.750(    22)      0
      5      5  H        3   1.082493(     4)      2  124.339(    14)      1    2.629(    23)      0
      6      6  O        3   1.353939(     5)      2  123.435(    15)      5  174.339(    24)      0
      7      7  C        4   1.335885(     6)      2  119.202(    16)      1  174.927(    25)      0
      8      8  H        4   1.082576(     7)      2  119.282(    17)      7  174.910(    26)      0
      9      9  C        6   1.444939(     8)      3  115.429(    18)      2   22.272(    27)      0
     10     10  H        7   1.081866(     9)      4  122.645(    19)      2  174.296(    28)      0
     11     11  H        9   1.088833(    10)      6  105.375(    20)      3 -163.479(    29)      0
     12     12  H        9   1.103219(    11)      6  107.389(    21)     11 -115.134(    30)      0
 ---------------------------------------------------------------------------------------------------
                         Z-Matrix orientation:                         
 ---------------------------------------------------------------------
 Center     Atomic      Atomic             Coordinates (Angstroms)
 Number     Number       Type             X           Y           Z
 ---------------------------------------------------------------------
      1          1           0        0.000000    0.000000    0.000000
      2          6           0        0.000000    0.000000    1.079960
      3          6           0        1.164623    0.000000    1.744751
      4          6           0       -1.221172    0.220819    1.838599
      5          1           0        2.137572    0.040995    1.272014
      6          8           0        1.253172    0.059774    3.094468
      7          6           0       -1.190572    0.110506    3.169570
      8          1           0       -2.113119    0.551422    1.321779
      9          6           0        0.076191   -0.371523    3.813179
     10          1           0       -2.040511    0.349802    3.794691
     11          1           0        0.198114    0.013540    4.824327
     12          1           0        0.103418   -1.473438    3.859384
 ---------------------------------------------------------------------
                    Distance matrix (angstroms):
                    1          2          3          4          5
     1  H    0.000000
     2  C    1.079960   0.000000
     3  C    2.097737   1.341004   0.000000
     4  C    2.218213   1.454495   2.397829   0.000000
     5  H    2.487753   2.146574   1.082493   3.410941   0.000000
     6  O    3.339123   2.373237   1.353939   2.779483   2.025797
     7  C    3.387602   2.407518   2.754862   1.335885   3.831722
     8  H    2.552731   2.197229   3.350606   1.082576   4.281517
     9  C    3.831993   2.759406   2.366667   2.435773   3.298027
    10  H    4.322699   3.414061   3.820667   2.124676   4.890362
    11  H    4.828412   3.749629   3.227710   3.312388   4.047366
    12  H    4.132380   3.147525   2.787266   2.951037   3.622951
                    6          7          8          9         10
     6  O    0.000000
     7  C    2.445425   0.000000
     8  H    3.836152   2.111831   0.000000
     9  C    1.444939   1.500424   3.442671   0.000000
    10  H    3.379760   1.081866   2.482180   2.236309   0.000000
    11  H    2.026745   2.162423   4.230716   1.088833   2.486899
    12  H    2.063437   2.158503   3.930971   1.103219   2.815106
                   11         12
    11  H    0.000000
    12  H    1.775158   0.000000
 Symmetry turned off by external request.
 Stoichiometry    C5H6O
 Framework group  C1[X(C5H6O)]
 Deg. of freedom    30
 Full point group                 C1      NOp   1
 Rotational constants (GHZ):           5.5842512           5.3705736           2.8555674
 Standard basis: def2TZVP (5D, 7F)
 The following finite field(s) will be applied:
 An electric field of              0.0040 -0.0064 -0.0002
   222 basis functions,   354 primitive gaussians,   252 cartesian basis functions
    22 alpha electrons       22 beta electrons
       nuclear repulsion energy       223.5828649619 Hartrees.
 NAtoms=   12 NActive=   12 NUniq=   12 SFac= 1.00D+00 NAtFMM=   60 NAOKFM=F Big=F
 Integral buffers will be    131072 words long.
 Raffenetti 2 integral format.
 Two-electron integral symmetry is turned off.
 One-electron integrals computed using PRISM.
   1 Symmetry operations used in ECPInt.
 ECPInt:  NShTT=    4095 NPrTT=   12396 LenC2=    4075 LenP2D=   10419.
 LDataN:  DoStor=T MaxTD1= 6 Len=  172
 NBasis=   222 RedAO= T EigKep=  9.71D-05  NBF=   222
 NBsUse=   222 1.00D-06 EigRej= -1.00D+00 NBFU=   222
 The nuclear repulsion energy is now       223.5446126402 hartrees.
 Initial guess from the checkpoint file:  "checkpoint.chk"
 B after Tr=    -0.000000    0.000000    0.000000
         Rot=    1.000000   -0.000000   -0.000000    0.000000 Ang=   0.00 deg.
 Keep R1 ints in memory in canonical form, NReq=319363885.
 Requested convergence on RMS density matrix=1.00D-08 within 128 cycles.
 Requested convergence on MAX density matrix=1.00D-06.
 Requested convergence on             energy=1.00D-06.
 No special actions if energy rises.
 SCF Done:  E(RB3LYP) =  -269.424433280     A.U. after   10 cycles
            NFock= 10  Conv=0.93D-08     -V/T= 2.0050
   1 Symmetry operations used in ECPInt.
 ECPInt:  NShTT=    4095 NPrTT=   12396 LenC2=    4075 LenP2D=   10419.
 LDataN:  DoStor=T MaxTD1= 7 Len=  274
 Calling FoFJK, ICntrl=      2127 FMM=F ISym2X=0 I1Cent= 0 IOpClX= 0 NMat=1 NMatS=1 NMatT=0.
 -------------------------------------------------------------------
 Center     Atomic                   Forces (Hartrees/Bohr)
 Number     Number              X              Y              Z
 -------------------------------------------------------------------
      1        1          -0.000084694   -0.000136294   -0.000051525
      2        6           0.000399482    0.000765271    0.000203582
      3        6          -0.000360343   -0.001052345   -0.000413968
      4        6          -0.000413323    0.000005485    0.000049348
      5        1           0.000080697    0.000280917   -0.000092159
      6        8           0.000428611   -0.000429620    0.000544309
      7        6          -0.000034140   -0.000432815   -0.000060594
      8        1           0.000103425    0.000167558    0.000098283
      9        6          -0.000178484    0.001121612   -0.000129232
     10        1           0.000084188    0.000196780   -0.000061306
     11        1          -0.000070286    0.000115257   -0.000042322
     12        1           0.000044865   -0.000601806   -0.000044415
 -------------------------------------------------------------------
 Cartesian Forces:  Max     0.001121612 RMS     0.000377801
 -----------------------------------------------------------------------------------------------
                       Internal Coordinate Forces (Hartree/Bohr or radian)
  Cent   Atom   N1       Length/X         N2         Alpha/Y        N3         Beta/Z          J
 -----------------------------------------------------------------------------------------------
      1  H 
      2  C        1   0.000052(     1)
      3  C        2  -0.000136(     2)      1  -0.000062(    12)
      4  C        2   0.000222(     3)      1   0.000009(    13)      3  -0.000451(    22)     0
      5  H        3   0.000123(     4)      2  -0.000112(    14)      1  -0.001355(    23)     0
      6  O        3   0.000351(     5)      2  -0.000325(    15)      5  -0.001820(    24)     0
      7  C        4  -0.000101(     6)      2  -0.000183(    16)      1  -0.000828(    25)     0
      8  H        4  -0.000081(     7)      2   0.000069(    17)      7  -0.000360(    26)     0
      9  C        6  -0.000131(     8)      3  -0.000512(    18)      2  -0.001525(    27)     0
     10  H        7  -0.000058(     9)      4  -0.000107(    19)      2  -0.000359(    28)     0
     11  H        9  -0.000006(    10)      6   0.000007(    20)      3   0.000191(    29)     0
     12  H        9   0.000600(    11)      6  -0.000128(    21)     11  -0.000089(    30)     0
 -----------------------------------------------------------------------------------------------
 Internal  Forces:  Max     0.001819801 RMS     0.000569213

 GradGradGradGradGradGradGradGradGradGradGradGradGradGradGradGradGradGrad
 Berny optimization.
 Search for a local minimum.
 Step number   1 out of a maximum of   40
 All quantities printed in internal units (Hartrees-Bohrs-Radians)
 Second derivative matrix not updated -- first step.
 ITU=  0
     Eigenvalues ---    0.03318   0.04755   0.05136   0.07270   0.11540
     Eigenvalues ---    0.15300   0.17060   0.17322   0.18223   0.22004
     Eigenvalues ---    0.24611   0.27952   0.31440   0.33329   0.34948
     Eigenvalues ---    0.35685   0.35695   0.35770   0.35999   0.36824
     Eigenvalues ---    0.38354   0.41499   0.46396   0.54179   0.57430
     Eigenvalues ---    0.57739   0.60065   2.31453   3.91172  24.89737
 RFO step:  Lambda=-2.41808073D-05 EMin= 3.31821571D-02
 Linear search not attempted -- first point.
 Variable       Old X    -DE/DX   Delta X   Delta X   Delta X     New X
                                 (Linear)    (Quad)   (Total)
    R2        2.04083   0.00005   0.00000   0.00014   0.00014   2.04097
    R3        2.53413  -0.00014   0.00000  -0.00020  -0.00020   2.53393
    R4        2.74860   0.00022   0.00000   0.00040   0.00040   2.74900
    R5        2.04562   0.00012   0.00000   0.00035   0.00035   2.04596
    R6        2.55857   0.00035   0.00000   0.00087   0.00087   2.55944
    R7        2.52446  -0.00010   0.00000  -0.00044  -0.00044   2.52401
    R8        2.04577  -0.00008   0.00000  -0.00023  -0.00023   2.04554
    R9        2.73054  -0.00013   0.00000   0.00021   0.00021   2.73075
   R10        2.04443  -0.00006   0.00000  -0.00015  -0.00015   2.04429
   R11        2.05760  -0.00001   0.00000   0.00001   0.00001   2.05761
   R12        2.08478   0.00060   0.00000   0.00181   0.00181   2.08659
    A3        2.08948  -0.00006   0.00000  -0.00064  -0.00064   2.08885
    A4        2.11950   0.00001   0.00000  -0.00138  -0.00138   2.11812
    A5        2.17013  -0.00011   0.00000  -0.00088  -0.00088   2.16925
    A6        2.15435  -0.00032   0.00000   0.00092   0.00092   2.15527
    A7        2.08047  -0.00018   0.00000  -0.00037  -0.00037   2.08011
    A8        2.08186   0.00007   0.00000   0.00042   0.00042   2.08228
    A9        2.01462  -0.00051   0.00000   0.00023   0.00023   2.01486
   A10        2.14056  -0.00011   0.00000  -0.00055  -0.00055   2.14000
   A11        1.83915   0.00001   0.00000  -0.00012  -0.00012   1.83903
   A12        1.87430  -0.00013   0.00000  -0.00072  -0.00072   1.87358
    D4        2.96270  -0.00045   0.00000  -0.01009  -0.01009   2.95261
    D5        0.04588  -0.00136   0.00000  -0.00290  -0.00290   0.04298
    D6        3.04278  -0.00182   0.00000  -0.00340  -0.00340   3.03938
    D7        3.05306  -0.00083   0.00000   0.01019   0.01019   3.06325
    D8        3.05275  -0.00036   0.00000  -0.00456  -0.00456   3.04818
    D9        0.38872  -0.00152   0.00000  -0.00782  -0.00782   0.38090
   D10        3.04205  -0.00036   0.00000  -0.00384  -0.00384   3.03821
   D11       -2.85324   0.00019   0.00000   0.00754   0.00754  -2.84570
   D12       -2.00946  -0.00009   0.00000  -0.00001  -0.00001  -2.00947
         Item               Value     Threshold  Converged?
 Maximum Force            0.001820     0.000450     NO 
 RMS     Force            0.000569     0.000300     NO 
 Maximum Displacement     0.010195     0.001800     NO 
 RMS     Displacement     0.003602     0.001200     NO 
 Predicted change in Energy=-1.209040D-05
 GradGradGradGradGradGradGradGradGradGradGradGradGradGradGradGradGradGrad

 ---------------------------------------------------------------------------------------------------
                            Z-MATRIX (ANGSTROMS AND DEGREES)
   CD    Cent   Atom    N1       Length/X        N2       Alpha/Y        N3        Beta/Z          J
 ---------------------------------------------------------------------------------------------------
      1      1  H 
      2      2  C        1   1.080036(     1)
      3      3  C        2   1.340897(     2)      1  119.682(    12)
      4      4  C        2   1.454706(     3)      1  121.359(    13)      3  169.172(    22)      0
      5      5  H        3   1.082676(     4)      2  124.289(    14)      1    2.462(    23)      0
      6      6  O        3   1.354398(     5)      2  123.488(    15)      5  174.144(    24)      0
      7      7  C        4   1.335650(     6)      2  119.181(    16)      1  175.511(    25)      0
      8      8  H        4   1.082455(     7)      2  119.306(    17)      7  174.648(    26)      0
      9      9  C        6   1.445051(     8)      3  115.443(    18)      2   21.824(    27)      0
     10     10  H        7   1.081789(     9)      4  122.613(    19)      2  174.076(    28)      0
     11     11  H        9   1.088838(    10)      6  105.369(    20)      3 -163.047(    29)      0
     12     12  H        9   1.104175(    11)      6  107.348(    21)     11 -115.134(    30)      0
 ---------------------------------------------------------------------------------------------------
                         Z-Matrix orientation:                         
 ---------------------------------------------------------------------
 Center     Atomic      Atomic             Coordinates (Angstroms)
 Number     Number       Type             X           Y           Z
 ---------------------------------------------------------------------
      1          1           0        0.000000    0.000000    0.000000
      2          6           0        0.000000    0.000000    1.080036
      3          6           0        1.164953    0.000000    1.744031
      4          6           0       -1.220085    0.233365    1.837070
      5          1           0        2.137405    0.038432    1.269639
      6          8           0        1.255837    0.066867    3.093721
      7          6           0       -1.189201    0.134540    3.168701
      8          1           0       -2.109532    0.567736    1.318620
      9          6           0        0.075147   -0.347174    3.816710
     10          1           0       -2.036730    0.386748    3.791881
     11          1           0        0.199198    0.049367    4.823156
     12          1           0        0.095091   -1.449574    3.876021
 ---------------------------------------------------------------------
                    Distance matrix (angstroms):
                    1          2          3          4          5
     1  H    0.000000
     2  C    1.080036   0.000000
     3  C    2.097322   1.340897   0.000000
     4  C    2.217633   1.454706   2.398233   0.000000
     5  H    2.486355   2.146142   1.082676   3.410677   0.000000
     6  O    3.339566   2.374136   1.354398   2.781561   2.026140
     7  C    3.387177   2.407244   2.754964   1.335650   3.831707
     8  H    2.551707   2.197583   3.350455   1.082455   4.280074
     9  C    3.833204   2.759631   2.367321   2.435904   3.299875
    10  H    4.321597   3.413495   3.820214   2.124081   4.889420
    11  H    4.827521   3.748742   3.227404   3.311334   4.047747
    12  H    4.139305   3.150847   2.791281   2.952845   3.630211
                    6          7          8          9         10
     6  O    0.000000
     7  C    2.447122   0.000000
     8  H    3.837650   2.111272   0.000000
     9  C    1.445051   1.500179   3.442432   0.000000
    10  H    3.380939   1.081789   2.480943   2.235907   0.000000
    11  H    2.026756   2.161510   4.228559   1.088838   2.485302
    12  H    2.063715   2.158500   3.933218   1.104175   2.814928
                   11         12
    11  H    0.000000
    12  H    1.776156   0.000000
 Symmetry turned off by external request.
 Stoichiometry    C5H6O
 Framework group  C1[X(C5H6O)]
 Deg. of freedom    30
 Full point group                 C1      NOp   1
 Rotational constants (GHZ):           5.5844708           5.3675449           2.8538071
 Standard basis: def2TZVP (5D, 7F)
 The following finite field(s) will be applied:
 An electric field of              0.0040 -0.0064 -0.0002
   222 basis functions,   354 primitive gaussians,   252 cartesian basis functions
    22 alpha electrons       22 beta electrons
       nuclear repulsion energy       223.5519297594 Hartrees.
 NAtoms=   12 NActive=   12 NUniq=   12 SFac= 1.00D+00 NAtFMM=   60 NAOKFM=F Big=F
 Integral buffers will be    131072 words long.
 Raffenetti 2 integral format.
 Two-electron integral symmetry is turned off.
 One-electron integrals computed using PRISM.
   1 Symmetry operations used in ECPInt.
 ECPInt:  NShTT=    4095 NPrTT=   12396 LenC2=    4075 LenP2D=   10419.
 LDataN:  DoStor=T MaxTD1= 6 Len=  172
 NBasis=   222 RedAO= T EigKep=  9.75D-05  NBF=   222
 NBsUse=   222 1.00D-06 EigRej= -1.00D+00 NBFU=   222
 The nuclear repulsion energy is now       223.5075000030 hartrees.
 Initial guess from the checkpoint file:  "checkpoint.chk"
 B after Tr=    -0.000682   -0.015426    0.000257
         Rot=    0.999987    0.004099   -0.000213    0.002898 Ang=   0.58 deg.
 Keep R1 ints in memory in canonical form, NReq=319363885.
 Requested convergence on RMS density matrix=1.00D-08 within 128 cycles.
 Requested convergence on MAX density matrix=1.00D-06.
 Requested convergence on             energy=1.00D-06.
 No special actions if energy rises.
 SCF Done:  E(RB3LYP) =  -269.424450804     A.U. after    9 cycles
            NFock=  9  Conv=0.24D-08     -V/T= 2.0050
   1 Symmetry operations used in ECPInt.
 ECPInt:  NShTT=    4095 NPrTT=   12396 LenC2=    4075 LenP2D=   10419.
 LDataN:  DoStor=T MaxTD1= 7 Len=  274
 Calling FoFJK, ICntrl=      2127 FMM=F ISym2X=0 I1Cent= 0 IOpClX= 0 NMat=1 NMatS=1 NMatT=0.
 -------------------------------------------------------------------
 Center     Atomic                   Forces (Hartrees/Bohr)
 Number     Number              X              Y              Z
 -------------------------------------------------------------------
      1        1          -0.000042738   -0.000383806   -0.000024396
      2        6           0.000202267    0.001224422    0.000033288
      3        6          -0.000095052   -0.000899645   -0.000054844
      4        6          -0.000179520    0.000059198    0.000049049
      5        1          -0.000005327    0.000093906    0.000032278
      6        8           0.000167067   -0.000282004   -0.000136466
      7        6           0.000032959   -0.000164957   -0.000043092
      8        1           0.000029981    0.000024267   -0.000020043
      9        6          -0.000178963    0.000202286    0.000145629
     10        1           0.000054148    0.000134466    0.000013439
     11        1          -0.000049598    0.000016069   -0.000007337
     12        1           0.000064778   -0.000024203    0.000012495
 -------------------------------------------------------------------
 Cartesian Forces:  Max     0.001224422 RMS     0.000280948
 -----------------------------------------------------------------------------------------------
                       Internal Coordinate Forces (Hartree/Bohr or radian)
  Cent   Atom   N1       Length/X         N2         Alpha/Y        N3         Beta/Z          J
 -----------------------------------------------------------------------------------------------
      1  H 
      2  C        1   0.000024(     1)
      3  C        2  -0.000088(     2)      1   0.000125(    12)
      4  C        2   0.000061(     3)      1   0.000124(    13)      3  -0.000381(    22)     0
      5  H        3  -0.000016(     4)      2   0.000050(    14)      1  -0.000226(    23)     0
      6  O        3   0.000010(     5)      2   0.000047(    15)      5  -0.000387(    24)     0
      7  C        4  -0.000025(     6)      2  -0.000267(    16)      1  -0.000061(    25)     0
      8  H        4  -0.000008(     7)      2  -0.000066(    17)      7  -0.000051(    26)     0
      9  C        6   0.000154(     8)      3   0.000186(    18)      2  -0.000413(    27)     0
     10  H        7  -0.000003(     9)      4   0.000016(    19)      2  -0.000250(    28)     0
     11  H        9  -0.000007(    10)      6   0.000073(    20)      3   0.000161(    29)     0
     12  H        9   0.000026(    11)      6  -0.000104(    21)     11   0.000084(    30)     0
 -----------------------------------------------------------------------------------------------
 Internal  Forces:  Max     0.000413404 RMS     0.000165213

 GradGradGradGradGradGradGradGradGradGradGradGradGradGradGradGradGradGrad
 Berny optimization.
 Search for a local minimum.
 Step number   2 out of a maximum of   40
 All quantities printed in internal units (Hartrees-Bohrs-Radians)
 Update second derivatives using D2CorN and points    1    2
 DE= -1.75D-05 DEPred=-1.21D-05 R= 1.45D+00
 TightC=F SS=  1.41D+00  RLast= 1.97D-02 DXNew= 1.6818D-01 5.9188D-02
 Trust test= 1.45D+00 RLast= 1.97D-02 DXMaxT set to 1.00D-01
 ITU=  1  0
     Eigenvalues ---    0.01704   0.04421   0.04999   0.06947   0.11411
     Eigenvalues ---    0.15283   0.17051   0.17308   0.18224   0.22009
     Eigenvalues ---    0.24607   0.27949   0.31422   0.33318   0.34948
     Eigenvalues ---    0.35685   0.35696   0.35770   0.35998   0.36815
     Eigenvalues ---    0.38317   0.41398   0.46380   0.54193   0.57425
     Eigenvalues ---    0.57741   0.60065   2.31476   3.91114  24.89734
 RFO step:  Lambda=-5.21760856D-06 EMin= 1.70375983D-02
 Quartic linear search produced a step of  0.82770.
 Variable       Old X    -DE/DX   Delta X   Delta X   Delta X     New X
                                 (Linear)    (Quad)   (Total)
    R2        2.04097   0.00002   0.00012   0.00002   0.00014   2.04111
    R3        2.53393  -0.00009  -0.00017  -0.00012  -0.00029   2.53364
    R4        2.74900   0.00006   0.00033   0.00018   0.00051   2.74950
    R5        2.04596  -0.00002   0.00029  -0.00037  -0.00008   2.04588
    R6        2.55944   0.00001   0.00072  -0.00073  -0.00001   2.55943
    R7        2.52401  -0.00003  -0.00037   0.00031  -0.00005   2.52396
    R8        2.04554  -0.00001  -0.00019   0.00014  -0.00005   2.04549
    R9        2.73075   0.00015   0.00017   0.00064   0.00082   2.73157
   R10        2.04429  -0.00000  -0.00012   0.00012  -0.00000   2.04428
   R11        2.05761  -0.00001   0.00001  -0.00002  -0.00001   2.05760
   R12        2.08659   0.00003   0.00149  -0.00129   0.00020   2.08679
    A3        2.08885   0.00013  -0.00053  -0.00025  -0.00078   2.08807
    A4        2.11812   0.00012  -0.00114   0.00009  -0.00105   2.11707
    A5        2.16925   0.00005  -0.00073   0.00049  -0.00024   2.16901
    A6        2.15527   0.00005   0.00076   0.00041   0.00118   2.15645
    A7        2.08011  -0.00027  -0.00030   0.00021  -0.00009   2.08001
    A8        2.08228  -0.00007   0.00035  -0.00071  -0.00037   2.08191
    A9        2.01486   0.00019   0.00019   0.00181   0.00200   2.01686
   A10        2.14000   0.00002  -0.00046   0.00011  -0.00034   2.13966
   A11        1.83903   0.00007  -0.00010   0.00061   0.00052   1.83954
   A12        1.87358  -0.00010  -0.00059  -0.00009  -0.00069   1.87290
    D4        2.95261  -0.00038  -0.00836  -0.00409  -0.01244   2.94017
    D5        0.04298  -0.00023  -0.00240  -0.00314  -0.00554   0.03744
    D6        3.03938  -0.00039  -0.00281   0.00222  -0.00059   3.03879
    D7        3.06325  -0.00006   0.00844   0.00533   0.01377   3.07702
    D8        3.04818  -0.00005  -0.00378  -0.00096  -0.00473   3.04345
    D9        0.38090  -0.00041  -0.00647  -0.00496  -0.01143   0.36947
   D10        3.03821  -0.00025  -0.00318  -0.00326  -0.00644   3.03177
   D11       -2.84570   0.00016   0.00624   0.00378   0.01002  -2.83568
   D12       -2.00947   0.00008  -0.00001   0.00043   0.00042  -2.00905
         Item               Value     Threshold  Converged?
 Maximum Force            0.000413     0.000450     YES
 RMS     Force            0.000165     0.000300     YES
 Maximum Displacement     0.013770     0.001800     NO 
 RMS     Displacement     0.004760     0.001200     NO 
 Predicted change in Energy=-6.982896D-06
 GradGradGradGradGradGradGradGradGradGradGradGradGradGradGradGradGradGrad

 ---------------------------------------------------------------------------------------------------
                            Z-MATRIX (ANGSTROMS AND DEGREES)
   CD    Cent   Atom    N1       Length/X        N2       Alpha/Y        N3        Beta/Z          J
 ---------------------------------------------------------------------------------------------------
      1      1  H 
      2      2  C        1   1.080111(     1)
      3      3  C        2   1.340744(     2)      1  119.637(    12)
      4      4  C        2   1.454974(     3)      1  121.299(    13)      3  168.459(    22)      0
      5      5  H        3   1.082631(     4)      2  124.275(    14)      1    2.145(    23)      0
      6      6  O        3   1.354393(     5)      2  123.555(    15)      5  174.110(    24)      0
      7      7  C        4   1.335622(     6)      2  119.176(    16)      1  176.300(    25)      0
      8      8  H        4   1.082429(     7)      2  119.285(    17)      7  174.377(    26)      0
      9      9  C        6   1.445483(     8)      3  115.557(    18)      2   21.169(    27)      0
     10     10  H        7   1.081789(     9)      4  122.593(    19)      2  173.708(    28)      0
     11     11  H        9   1.088834(    10)      6  105.398(    20)      3 -162.472(    29)      0
     12     12  H        9   1.104282(    11)      6  107.309(    21)     11 -115.110(    30)      0
 ---------------------------------------------------------------------------------------------------
                         Z-Matrix orientation:                         
 ---------------------------------------------------------------------
 Center     Atomic      Atomic             Coordinates (Angstroms)
 Number     Number       Type             X           Y           Z
 ---------------------------------------------------------------------
      1          1           0        0.000000    0.000000    0.000000
      2          6           0        0.000000    0.000000    1.080111
      3          6           0        1.165337    0.000000    1.743122
      4          6           0       -1.218090    0.248729    1.835982
      5          1           0        2.137362    0.033486    1.267583
      6          8           0        1.259074    0.073720    3.092255
      7          6           0       -1.185899    0.165354    3.168611
      8          1           0       -2.104960    0.585921    1.315007
      9          6           0        0.074529   -0.318352    3.822017
     10          1           0       -2.029466    0.434925    3.789893
     11          1           0        0.202366    0.091769    4.822525
     12          1           0        0.084915   -1.419982    3.897796
 ---------------------------------------------------------------------
                    Distance matrix (angstroms):
                    1          2          3          4          5
     1  H    0.000000
     2  C    1.080111   0.000000
     3  C    2.096779   1.340744   0.000000
     4  C    2.217304   1.454974   2.398168   0.000000
     5  H    2.485197   2.145829   1.082631   3.410053   0.000000
     6  O    3.339572   2.374747   1.354393   2.783018   2.025446
     7  C    3.387299   2.407391   2.754573   1.335622   3.830843
     8  H    2.550177   2.197575   3.349840   1.082429   4.278402
     9  C    3.835976   2.761331   2.369180   2.436550   3.302150
    10  H    4.321017   3.413329   3.819058   2.123857   4.887295
    11  H    4.827641   3.749004   3.227763   3.310856   4.047865
    12  H    4.149262   3.156407   2.797549   2.955249   3.639110
                    6          7          8          9         10
     6  O    0.000000
     7  C    2.447881   0.000000
     8  H    3.838969   2.111255   0.000000
     9  C    1.445483   1.499863   3.442815   0.000000
    10  H    3.381075   1.081789   2.480637   2.235006   0.000000
    11  H    2.027509   2.160585   4.227366   1.088834   2.482974
    12  H    2.063660   2.158696   3.935734   1.104282   2.814770
                   11         12
    11  H    0.000000
    12  H    1.776037   0.000000
 Symmetry turned off by external request.
 Stoichiometry    C5H6O
 Framework group  C1[X(C5H6O)]
 Deg. of freedom    30
 Full point group                 C1      NOp   1
 Rotational constants (GHZ):           5.5816779           5.3673669           2.8517946
 Standard basis: def2TZVP (5D, 7F)
 The following finite field(s) will be applied:
 An electric field of              0.0040 -0.0064 -0.0002
   222 basis functions,   354 primitive gaussians,   252 cartesian basis functions
    22 alpha electrons       22 beta electrons
       nuclear repulsion energy       223.5216876116 Hartrees.
 NAtoms=   12 NActive=   12 NUniq=   12 SFac= 1.00D+00 NAtFMM=   60 NAOKFM=F Big=F
 Integral buffers will be    131072 words long.
 Raffenetti 2 integral format.
 Two-electron integral symmetry is turned off.
 One-electron integrals computed using PRISM.
   1 Symmetry operations used in ECPInt.
 ECPInt:  NShTT=    4095 NPrTT=   12396 LenC2=    4075 LenP2D=   10418.
 LDataN:  DoStor=T MaxTD1= 6 Len=  172
 NBasis=   222 RedAO= T EigKep=  9.80D-05  NBF=   222
 NBsUse=   222 1.00D-06 EigRej= -1.00D+00 NBFU=   222
 The nuclear repulsion energy is now       223.4700208789 hartrees.
 Initial guess from the checkpoint file:  "checkpoint.chk"
 B after Tr=    -0.001898   -0.019138    0.001318
         Rot=    0.999980    0.004988   -0.000452    0.003902 Ang=   0.73 deg.
 Keep R1 ints in memory in canonical form, NReq=319363885.
 Requested convergence on RMS density matrix=1.00D-08 within 128 cycles.
 Requested convergence on MAX density matrix=1.00D-06.
 Requested convergence on             energy=1.00D-06.
 No special actions if energy rises.
 SCF Done:  E(RB3LYP) =  -269.424458349     A.U. after    9 cycles
            NFock=  9  Conv=0.29D-08     -V/T= 2.0050
   1 Symmetry operations used in ECPInt.
 ECPInt:  NShTT=    4095 NPrTT=   12396 LenC2=    4075 LenP2D=   10418.
 LDataN:  DoStor=T MaxTD1= 7 Len=  274
 Calling FoFJK, ICntrl=      2127 FMM=F ISym2X=0 I1Cent= 0 IOpClX= 0 NMat=1 NMatS=1 NMatT=0.
 -------------------------------------------------------------------
 Center     Atomic                   Forces (Hartrees/Bohr)
 Number     Number              X              Y              Z
 -------------------------------------------------------------------
      1        1          -0.000047257   -0.000665689    0.000009199
      2        6          -0.000023575    0.001732437   -0.000099555
      3        6           0.000049977   -0.001026841    0.000300859
      4        6           0.000056604    0.000114425    0.000104473
      5        1           0.000021815   -0.000015056    0.000019020
      6        8           0.000101414   -0.000078846   -0.000343591
      7        6          -0.000120530   -0.000031780   -0.000076261
      8        1          -0.000007352   -0.000039417   -0.000016824
      9        6          -0.000095339   -0.000101811    0.000109122
     10        1          -0.000005961    0.000009523   -0.000005701
     11        1           0.000030896    0.000002987    0.000007161
     12        1           0.000039308    0.000100067   -0.000007901
 -------------------------------------------------------------------
 Cartesian Forces:  Max     0.001732437 RMS     0.000366474
 -----------------------------------------------------------------------------------------------
                       Internal Coordinate Forces (Hartree/Bohr or radian)
  Cent   Atom   N1       Length/X         N2         Alpha/Y        N3         Beta/Z          J
 -----------------------------------------------------------------------------------------------
      1  H 
      2  C        1  -0.000009(     1)
      3  C        2   0.000171(     2)      1  -0.000451(    12)
      4  C        2   0.000077(     3)      1  -0.000452(    13)      3  -0.000048(    22)     0
      5  H        3   0.000011(     4)      2   0.000055(    14)      1   0.000056(    23)     0
      6  O        3  -0.000233(     5)      2   0.000507(    15)      5   0.000081(    24)     0
      7  C        4  -0.000083(     6)      2   0.000309(    16)      1  -0.000045(    25)     0
      8  H        4   0.000002(     7)      2  -0.000024(    17)      7   0.000075(    26)     0
      9  C        6   0.000075(     8)      3   0.000280(    18)      2   0.000048(    27)     0
     10  H        7   0.000004(     9)      4  -0.000020(    19)      2  -0.000011(    28)     0
     11  H        9   0.000011(    10)      6  -0.000054(    20)      3   0.000012(    29)     0
     12  H        9  -0.000100(    11)      6  -0.000073(    21)     11   0.000039(    30)     0
 -----------------------------------------------------------------------------------------------
 Internal  Forces:  Max     0.000507382 RMS     0.000181488

 GradGradGradGradGradGradGradGradGradGradGradGradGradGradGradGradGradGrad
 Berny optimization.
 Search for a local minimum.
 Step number   3 out of a maximum of   40
 All quantities printed in internal units (Hartrees-Bohrs-Radians)
 Update second derivatives using D2CorN and points    1    2    3
 DE= -7.55D-06 DEPred=-6.98D-06 R= 1.08D+00
 TightC=F SS=  1.41D+00  RLast= 2.61D-02 DXNew= 1.6818D-01 7.8214D-02
 Trust test= 1.08D+00 RLast= 2.61D-02 DXMaxT set to 1.00D-01
 ITU=  1  1  0
     Eigenvalues ---    0.01683   0.04436   0.05022   0.06890   0.11371
     Eigenvalues ---    0.15266   0.17053   0.17305   0.18220   0.22014
     Eigenvalues ---    0.24608   0.27947   0.31415   0.33331   0.34948
     Eigenvalues ---    0.35685   0.35696   0.35770   0.35998   0.36813
     Eigenvalues ---    0.38295   0.41372   0.46383   0.54211   0.57428
     Eigenvalues ---    0.57741   0.60066   2.31478   3.91095  24.89739
 RFO step:  Lambda=-5.66392935D-07 EMin= 1.68265906D-02
 Quartic linear search produced a step of  0.07067.
 Variable       Old X    -DE/DX   Delta X   Delta X   Delta X     New X
                                 (Linear)    (Quad)   (Total)
    R2        2.04111  -0.00001   0.00001  -0.00003  -0.00002   2.04109
    R3        2.53364   0.00017  -0.00002   0.00015   0.00013   2.53377
    R4        2.74950   0.00008   0.00004   0.00004   0.00007   2.74958
    R5        2.04588   0.00001  -0.00001   0.00004   0.00003   2.04591
    R6        2.55943  -0.00023  -0.00000  -0.00054  -0.00054   2.55889
    R7        2.52396  -0.00008  -0.00000  -0.00008  -0.00009   2.52387
    R8        2.04549   0.00000  -0.00000   0.00001   0.00000   2.04550
    R9        2.73157   0.00007   0.00006   0.00033   0.00039   2.73196
   R10        2.04428   0.00000  -0.00000   0.00001   0.00001   2.04430
   R11        2.05760   0.00001  -0.00000   0.00004   0.00004   2.05763
   R12        2.08679  -0.00010   0.00001  -0.00033  -0.00031   2.08648
    A3        2.08807  -0.00045  -0.00006   0.00002  -0.00004   2.08803
    A4        2.11707  -0.00045  -0.00007   0.00005  -0.00003   2.11705
    A5        2.16901   0.00006  -0.00002   0.00014   0.00012   2.16913
    A6        2.15645   0.00051   0.00008   0.00014   0.00022   2.15667
    A7        2.08001   0.00031  -0.00001   0.00021   0.00020   2.08022
    A8        2.08191  -0.00002  -0.00003  -0.00014  -0.00017   2.08174
    A9        2.01686   0.00028   0.00014   0.00027   0.00041   2.01727
   A10        2.13966  -0.00002  -0.00002  -0.00002  -0.00004   2.13961
   A11        1.83954  -0.00005   0.00004  -0.00018  -0.00015   1.83940
   A12        1.87290  -0.00007  -0.00005  -0.00042  -0.00047   1.87243
    D4        2.94017  -0.00005  -0.00088  -0.00023  -0.00111   2.93906
    D5        0.03744   0.00006  -0.00039  -0.00048  -0.00088   0.03656
    D6        3.03879   0.00008  -0.00004   0.00081   0.00077   3.03956
    D7        3.07702  -0.00005   0.00097  -0.00017   0.00080   3.07782
    D8        3.04345   0.00007  -0.00033   0.00090   0.00057   3.04402
    D9        0.36947   0.00005  -0.00081  -0.00087  -0.00168   0.36779
   D10        3.03177  -0.00001  -0.00045   0.00033  -0.00012   3.03165
   D11       -2.83568   0.00001   0.00071   0.00068   0.00139  -2.83429
   D12       -2.00905   0.00004   0.00003   0.00031   0.00034  -2.00870
         Item               Value     Threshold  Converged?
 Maximum Force            0.000507     0.000450     NO 
 RMS     Force            0.000181     0.000300     YES
 Maximum Displacement     0.001682     0.001800     YES
 RMS     Displacement     0.000565     0.001200     YES
 Predicted change in Energy=-3.019359D-07
 GradGradGradGradGradGradGradGradGradGradGradGradGradGradGradGradGradGrad

 ---------------------------------------------------------------------------------------------------
                            Z-MATRIX (ANGSTROMS AND DEGREES)
   CD    Cent   Atom    N1       Length/X        N2       Alpha/Y        N3        Beta/Z          J
 ---------------------------------------------------------------------------------------------------
      1      1  H 
      2      2  C        1   1.080100(     1)
      3      3  C        2   1.340813(     2)      1  119.635(    12)
      4      4  C        2   1.455013(     3)      1  121.298(    13)      3  168.395(    22)      0
      5      5  H        3   1.082647(     4)      2  124.282(    14)      1    2.095(    23)      0
      6      6  O        3   1.354105(     5)      2  123.568(    15)      5  174.154(    24)      0
      7      7  C        4   1.335576(     6)      2  119.188(    16)      1  176.346(    25)      0
      8      8  H        4   1.082430(     7)      2  119.275(    17)      7  174.409(    26)      0
      9      9  C        6   1.445689(     8)      3  115.581(    18)      2   21.073(    27)      0
     10     10  H        7   1.081795(     9)      4  122.591(    19)      2  173.701(    28)      0
     11     11  H        9   1.088853(    10)      6  105.390(    20)      3 -162.393(    29)      0
     12     12  H        9   1.104117(    11)      6  107.282(    21)     11 -115.090(    30)      0
 ---------------------------------------------------------------------------------------------------
                         Z-Matrix orientation:                         
 ---------------------------------------------------------------------
 Center     Atomic      Atomic             Coordinates (Angstroms)
 Number     Number       Type             X           Y           Z
 ---------------------------------------------------------------------
      1          1           0        0.000000    0.000000    0.000000
      2          6           0        0.000000    0.000000    1.080100
      3          6           0        1.165421    0.000000    1.743103
      4          6           0       -1.217864    0.250092    1.835959
      5          1           0        2.137515    0.032701    1.267615
      6          8           0        1.259489    0.073815    3.091918
      7          6           0       -1.185845    0.167660    3.168604
      8          1           0       -2.104618    0.587035    1.314622
      9          6           0        0.074493   -0.315989    3.822569
     10          1           0       -2.029265    0.438394    3.789592
     11          1           0        0.203080    0.095544    4.822422
     12          1           0        0.084364   -1.417342    3.900012
 ---------------------------------------------------------------------
                    Distance matrix (angstroms):
                    1          2          3          4          5
     1  H    0.000000
     2  C    1.080100   0.000000
     3  C    2.096810   1.340813   0.000000
     4  C    2.217315   1.455013   2.398169   0.000000
     5  H    2.485335   2.145973   1.082647   3.410109   0.000000
     6  O    3.339419   2.374695   1.354105   2.783125   2.025019
     7  C    3.387387   2.407528   2.754745   1.335576   3.831017
     8  H    2.549953   2.197505   3.349830   1.082430   4.278456
     9  C    3.836331   2.761619   2.369421   2.436648   3.302338
    10  H    4.321008   3.413423   3.819205   2.123796   4.887434
    11  H    4.827642   3.749046   3.227606   3.310880   4.047548
    12  H    4.150430   3.157195   2.798178   2.955748   3.639721
                    6          7          8          9         10
     6  O    0.000000
     7  C    2.448336   0.000000
     8  H    3.839192   2.111225   0.000000
     9  C    1.445689   1.500012   3.442931   0.000000
    10  H    3.381652   1.081795   2.480574   2.235168   0.000000
    11  H    2.027590   2.160885   4.227493   1.088853   2.483475
    12  H    2.063367   2.158847   3.936167   1.104117   2.814849
                   11         12
    11  H    0.000000
    12  H    1.775882   0.000000
 Symmetry turned off by external request.
 Stoichiometry    C5H6O
 Framework group  C1[X(C5H6O)]
 Deg. of freedom    30
 Full point group                 C1      NOp   1
 Rotational constants (GHZ):           5.5814591           5.3669124           2.8513671
 Standard basis: def2TZVP (5D, 7F)
 The following finite field(s) will be applied:
 An electric field of              0.0040 -0.0064 -0.0002
   222 basis functions,   354 primitive gaussians,   252 cartesian basis functions
    22 alpha electrons       22 beta electrons
       nuclear repulsion energy       223.5158519745 Hartrees.
 NAtoms=   12 NActive=   12 NUniq=   12 SFac= 1.00D+00 NAtFMM=   60 NAOKFM=F Big=F
 Integral buffers will be    131072 words long.
 Raffenetti 2 integral format.
 Two-electron integral symmetry is turned off.
 One-electron integrals computed using PRISM.
   1 Symmetry operations used in ECPInt.
 ECPInt:  NShTT=    4095 NPrTT=   12396 LenC2=    4075 LenP2D=   10418.
 LDataN:  DoStor=T MaxTD1= 6 Len=  172
 NBasis=   222 RedAO= T EigKep=  9.80D-05  NBF=   222
 NBsUse=   222 1.00D-06 EigRej= -1.00D+00 NBFU=   222
 The nuclear repulsion energy is now       223.4636626037 hartrees.
 Initial guess from the checkpoint file:  "checkpoint.chk"
 B after Tr=    -0.000187   -0.001682    0.000111
         Rot=    1.000000    0.000398   -0.000045    0.000340 Ang=   0.06 deg.
 Keep R1 ints in memory in canonical form, NReq=319363885.
 Requested convergence on RMS density matrix=1.00D-08 within 128 cycles.
 Requested convergence on MAX density matrix=1.00D-06.
 Requested convergence on             energy=1.00D-06.
 No special actions if energy rises.
 SCF Done:  E(RB3LYP) =  -269.424458764     A.U. after    7 cycles
            NFock=  7  Conv=0.55D-08     -V/T= 2.0050
   1 Symmetry operations used in ECPInt.
 ECPInt:  NShTT=    4095 NPrTT=   12396 LenC2=    4075 LenP2D=   10418.
 LDataN:  DoStor=T MaxTD1= 7 Len=  274
 Calling FoFJK, ICntrl=      2127 FMM=F ISym2X=0 I1Cent= 0 IOpClX= 0 NMat=1 NMatS=1 NMatT=0.
 -------------------------------------------------------------------
 Center     Atomic                   Forces (Hartrees/Bohr)
 Number     Number              X              Y              Z
 -------------------------------------------------------------------
      1        1          -0.000050916   -0.000679651    0.000005232
      2        6           0.000034680    0.001808214   -0.000050162
      3        6           0.000010077   -0.001102870    0.000144368
      4        6           0.000046109    0.000048833    0.000033727
      5        1           0.000005092   -0.000009614   -0.000011420
      6        8           0.000042152   -0.000011935   -0.000157938
      7        6          -0.000019526   -0.000015986   -0.000014572
      8        1          -0.000008999   -0.000022854   -0.000005586
      9        6          -0.000072568   -0.000040275    0.000059528
     10        1           0.000004616   -0.000002255    0.000001342
     11        1           0.000005674    0.000008549   -0.000006209
     12        1           0.000003610    0.000019845    0.000001690
 -------------------------------------------------------------------
 Cartesian Forces:  Max     0.001808214 RMS     0.000373438
 -----------------------------------------------------------------------------------------------
                       Internal Coordinate Forces (Hartree/Bohr or radian)
  Cent   Atom   N1       Length/X         N2         Alpha/Y        N3         Beta/Z          J
 -----------------------------------------------------------------------------------------------
      1  H 
      2  C        1  -0.000005(     1)
      3  C        2   0.000010(     2)      1   0.000044(    12)
      4  C        2  -0.000010(     3)      1   0.000040(    13)      3   0.000014(    22)     0
      5  H        3   0.000009(     4)      2  -0.000016(    14)      1  -0.000029(    23)     0
      6  O        3  -0.000105(     5)      2   0.000014(    15)      5  -0.000012(    24)     0
      7  C        4  -0.000012(     6)      2   0.000016(    16)      1  -0.000005(    25)     0
      8  H        4   0.000003(     7)      2  -0.000002(    17)      7   0.000045(    26)     0
      9  C        6   0.000083(     8)      3   0.000063(    18)      2  -0.000015(    27)     0
     10  H        7  -0.000003(     9)      4   0.000008(    19)      2   0.000001(    28)     0
     11  H        9  -0.000002(    10)      6  -0.000021(    20)      3   0.000022(    29)     0
     12  H        9  -0.000020(    11)      6  -0.000004(    21)     11   0.000009(    30)     0
 -----------------------------------------------------------------------------------------------
 Internal  Forces:  Max     0.000105293 RMS     0.000032439

 GradGradGradGradGradGradGradGradGradGradGradGradGradGradGradGradGradGrad
 Berny optimization.
 Search for a local minimum.
 Step number   4 out of a maximum of   40
 All quantities printed in internal units (Hartrees-Bohrs-Radians)
 Update second derivatives using D2CorN and points    1    2    3    4
 DE= -4.15D-07 DEPred=-3.02D-07 R= 1.37D+00
 Trust test= 1.37D+00 RLast= 3.09D-03 DXMaxT set to 1.00D-01
 ITU=  0  1  1  0
     Eigenvalues ---    0.01196   0.04354   0.04886   0.06693   0.11435
     Eigenvalues ---    0.15193   0.17036   0.17275   0.18079   0.21990
     Eigenvalues ---    0.24596   0.27953   0.31413   0.33274   0.34949
     Eigenvalues ---    0.35684   0.35694   0.35771   0.35997   0.36813
     Eigenvalues ---    0.38160   0.41367   0.46282   0.53743   0.57373
     Eigenvalues ---    0.57738   0.60041   2.31483   3.91082  24.89748
 RFO step:  Lambda=-7.56067533D-08 EMin= 1.19554938D-02
 Quartic linear search produced a step of  0.52188.
 Variable       Old X    -DE/DX   Delta X   Delta X   Delta X     New X
                                 (Linear)    (Quad)   (Total)
    R2        2.04109  -0.00001  -0.00001  -0.00001  -0.00002   2.04107
    R3        2.53377   0.00001   0.00007  -0.00004   0.00003   2.53380
    R4        2.74958  -0.00001   0.00004  -0.00004   0.00000   2.74958
    R5        2.04591   0.00001   0.00002   0.00003   0.00004   2.04595
    R6        2.55889  -0.00011  -0.00028  -0.00007  -0.00036   2.55853
    R7        2.52387  -0.00001  -0.00005   0.00002  -0.00003   2.52384
    R8        2.04550   0.00000   0.00000   0.00001   0.00001   2.04551
    R9        2.73196   0.00008   0.00020   0.00017   0.00037   2.73233
   R10        2.04430  -0.00000   0.00001  -0.00002  -0.00001   2.04428
   R11        2.05763  -0.00000   0.00002  -0.00002  -0.00000   2.05763
   R12        2.08648  -0.00002  -0.00016   0.00006  -0.00011   2.08637
    A3        2.08803   0.00004  -0.00002   0.00008   0.00006   2.08809
    A4        2.11705   0.00004  -0.00001   0.00001  -0.00001   2.11704
    A5        2.16913  -0.00002   0.00006  -0.00019  -0.00012   2.16901
    A6        2.15667   0.00001   0.00012   0.00004   0.00016   2.15683
    A7        2.08022   0.00002   0.00011   0.00010   0.00021   2.08042
    A8        2.08174  -0.00000  -0.00009  -0.00002  -0.00011   2.08163
    A9        2.01727   0.00006   0.00021   0.00015   0.00036   2.01763
   A10        2.13961   0.00001  -0.00002   0.00003   0.00001   2.13963
   A11        1.83940  -0.00002  -0.00008  -0.00003  -0.00011   1.83929
   A12        1.87243  -0.00000  -0.00024   0.00019  -0.00006   1.87237
    D4        2.93906   0.00001  -0.00058  -0.00008  -0.00066   2.93840
    D5        0.03656  -0.00003  -0.00046  -0.00027  -0.00073   0.03583
    D6        3.03956  -0.00001   0.00040   0.00015   0.00055   3.04011
    D7        3.07782  -0.00000   0.00042   0.00016   0.00058   3.07840
    D8        3.04402   0.00004   0.00030   0.00025   0.00055   3.04457
    D9        0.36779  -0.00002  -0.00088  -0.00015  -0.00103   0.36676
   D10        3.03165   0.00000  -0.00006   0.00003  -0.00004   3.03161
   D11       -2.83429   0.00002   0.00073   0.00056   0.00129  -2.83300
   D12       -2.00870   0.00001   0.00018  -0.00015   0.00003  -2.00867
         Item               Value     Threshold  Converged?
 Maximum Force            0.000105     0.000450     YES
 RMS     Force            0.000032     0.000300     YES
 Maximum Displacement     0.001289     0.001800     YES
 RMS     Displacement     0.000415     0.001200     YES
 Predicted change in Energy=-8.601612D-08
 Optimization completed.
    -- Stationary point found.
                       ----------------------------
                       !   Optimized Parameters   !
                       ! (Angstroms and Degrees)  !
 ----------------------                            ----------------------
 !      Name          Value   Derivative information (Atomic Units)     !
 ------------------------------------------------------------------------
 !       R2          1.0801   -DE/DX =    0.0                           !
 !       R3          1.3408   -DE/DX =    0.0                           !
 !       R4          1.455    -DE/DX =    0.0                           !
 !       R5          1.0826   -DE/DX =    0.0                           !
 !       R6          1.3541   -DE/DX =   -0.0001                        !
 !       R7          1.3356   -DE/DX =    0.0                           !
 !       R8          1.0824   -DE/DX =    0.0                           !
 !       R9          1.4457   -DE/DX =    0.0001                        !
 !       R10         1.0818   -DE/DX =    0.0                           !
 !       R11         1.0889   -DE/DX =    0.0                           !
 !       R12         1.1041   -DE/DX =    0.0                           !
 !       A3        119.6353   -DE/DX =    0.0                           !
 !       A4        121.2978   -DE/DX =    0.0                           !
 !       A5        124.2818   -DE/DX =    0.0                           !
 !       A6        123.5681   -DE/DX =    0.0                           !
 !       A7        119.1876   -DE/DX =    0.0                           !
 !       A8        119.275    -DE/DX =    0.0                           !
 !       A9        115.5809   -DE/DX =    0.0001                        !
 !       A10       122.5909   -DE/DX =    0.0                           !
 !       A11       105.3898   -DE/DX =    0.0                           !
 !       A12       107.2821   -DE/DX =    0.0                           !
 !       D4        168.3955   -DE/DX =    0.0                           !
 !       D5          2.0949   -DE/DX =    0.0                           !
 !       D6        174.154    -DE/DX =    0.0                           !
 !       D7        176.3462   -DE/DX =    0.0                           !
 !       D8        174.4094   -DE/DX =    0.0                           !
 !       D9         21.0729   -DE/DX =    0.0                           !
 !       D10       173.7006   -DE/DX =    0.0                           !
 !       D11      -162.3928   -DE/DX =    0.0                           !
 !       D12      -115.0902   -DE/DX =    0.0                           !
 ------------------------------------------------------------------------
 GradGradGradGradGradGradGradGradGradGradGradGradGradGradGradGradGradGrad

 ---------------------------------------------------------------------------------------------------
                            Z-MATRIX (ANGSTROMS AND DEGREES)
   CD    Cent   Atom    N1       Length/X        N2       Alpha/Y        N3        Beta/Z          J
 ---------------------------------------------------------------------------------------------------
      1      1  H 
      2      2  C        1   1.080100(     1)
      3      3  C        2   1.340813(     2)      1  119.635(    12)
      4      4  C        2   1.455013(     3)      1  121.298(    13)      3  168.395(    22)      0
      5      5  H        3   1.082647(     4)      2  124.282(    14)      1    2.095(    23)      0
      6      6  O        3   1.354105(     5)      2  123.568(    15)      5  174.154(    24)      0
      7      7  C        4   1.335576(     6)      2  119.188(    16)      1  176.346(    25)      0
      8      8  H        4   1.082430(     7)      2  119.275(    17)      7  174.409(    26)      0
      9      9  C        6   1.445689(     8)      3  115.581(    18)      2   21.073(    27)      0
     10     10  H        7   1.081795(     9)      4  122.591(    19)      2  173.701(    28)      0
     11     11  H        9   1.088853(    10)      6  105.390(    20)      3 -162.393(    29)      0
     12     12  H        9   1.104117(    11)      6  107.282(    21)     11 -115.090(    30)      0
 ---------------------------------------------------------------------------------------------------
                         Z-Matrix orientation:                         
 ---------------------------------------------------------------------
 Center     Atomic      Atomic             Coordinates (Angstroms)
 Number     Number       Type             X           Y           Z
 ---------------------------------------------------------------------
      1          1           0        0.000000    0.000000    0.000000
      2          6           0        0.000000    0.000000    1.080100
      3          6           0        1.165421    0.000000    1.743103
      4          6           0       -1.217864    0.250092    1.835959
      5          1           0        2.137515    0.032701    1.267615
      6          8           0        1.259489    0.073815    3.091918
      7          6           0       -1.185845    0.167660    3.168604
      8          1           0       -2.104618    0.587035    1.314622
      9          6           0        0.074493   -0.315989    3.822569
     10          1           0       -2.029265    0.438394    3.789592
     11          1           0        0.203080    0.095544    4.822422
     12          1           0        0.084364   -1.417342    3.900012
 ---------------------------------------------------------------------
                    Distance matrix (angstroms):
                    1          2          3          4          5
     1  H    0.000000
     2  C    1.080100   0.000000
     3  C    2.096810   1.340813   0.000000
     4  C    2.217315   1.455013   2.398169   0.000000
     5  H    2.485335   2.145973   1.082647   3.410109   0.000000
     6  O    3.339419   2.374695   1.354105   2.783125   2.025019
     7  C    3.387387   2.407528   2.754745   1.335576   3.831017
     8  H    2.549953   2.197505   3.349830   1.082430   4.278456
     9  C    3.836331   2.761619   2.369421   2.436648   3.302338
    10  H    4.321008   3.413423   3.819205   2.123796   4.887434
    11  H    4.827642   3.749046   3.227606   3.310880   4.047548
    12  H    4.150430   3.157195   2.798178   2.955748   3.639721
                    6          7          8          9         10
     6  O    0.000000
     7  C    2.448336   0.000000
     8  H    3.839192   2.111225   0.000000
     9  C    1.445689   1.500012   3.442931   0.000000
    10  H    3.381652   1.081795   2.480574   2.235168   0.000000
    11  H    2.027590   2.160885   4.227493   1.088853   2.483475
    12  H    2.063367   2.158847   3.936167   1.104117   2.814849
                   11         12
    11  H    0.000000
    12  H    1.775882   0.000000
 Symmetry turned off by external request.
 Stoichiometry    C5H6O
 Framework group  C1[X(C5H6O)]
 Deg. of freedom    30
 Full point group                 C1      NOp   1
 Rotational constants (GHZ):           5.5814591           5.3669124           2.8513671
 1\1\GINC-BHC0105\FOpt\RB3LYP\def2TZVP\C5H6O1\DHANAWAY\10-Jun-2022\1\\#
  Opt=(Z-matrix, MaxStep=10) B3LYP/Def2TZVP geom=allcheckpoint guess=re
 ad Field=read NoSymm freq=noraman pop=none\\int_zmat_initalOpt\\0,1\H\
 C,1,R2\C,2,R3,1,A3\C,2,R4,1,A4,3,D4,0\H,3,R5,2,A5,1,D5,0\O,3,R6,2,A6,5
 ,D6,0\C,4,R7,2,A7,1,D7,0\H,4,R8,2,A8,7,D8,0\C,6,R9,3,A9,2,D9,0\H,7,R10
 ,4,A10,2,D10,0\H,9,R11,6,A11,3,D11,0\H,9,R12,6,A12,11,D12,0\\R2=1.0800
 9983\R3=1.340813\R4=1.45501284\R5=1.08264669\R6=1.35410494\R7=1.335575
 93\R8=1.08243042\R9=1.44568865\R10=1.08179481\R11=1.08885274\R12=1.104
 11651\A3=119.63534808\A4=121.29781814\A5=124.28183027\A6=123.56813442\
 A7=119.18764109\A8=119.27504948\A9=115.5809477\A10=122.59090847\A11=10
 5.38975745\A12=107.2821448\D4=168.39545185\D5=2.09492043\D6=174.153971
 55\D7=176.34617214\D8=174.40939848\D9=21.07287358\D10=173.70061327\D11
 =-162.39275047\D12=-115.09019529\\Version=ES64L-G16RevA.03\HF=-269.424
 4588\RMSD=5.491e-09\RMSF=3.734e-04\Dipole=-0.5392894,0.2334727,0.00361
 08\PG=C01 [X(C5H6O1)]\\@


 "THE TIME HAS COME", THE WALRUS SAID,
 "TO TALK OF MANY THINGS,
 OF SHOES AND SHIPS AND SEALING WAX,
 OF CABBAGES AND KINGS,
 AND WHY THE SEA IS BOILING HOT,
 AND WHETHER PIGS HAVE WINGS."
 Job cpu time:       0 days  0 hours 14 minutes 58.0 seconds.
 Elapsed time:       0 days  0 hours  1 minutes 32.8 seconds.
 File lengths (MBytes):  RWF=     24 Int=      0 D2E=      0 Chk=     32 Scr=      1
 Normal termination of Gaussian 16 at Fri Jun 10 23:13:21 2022.
 Link1:  Proceeding to internal job step number  2.
 --------------------------------------------------------------------
 #N Geom=AllCheck Guess=TCheck SCRF=Check GenChk RB3LYP/def2TZVP Freq
 --------------------------------------------------------------------
 1/8=10,10=4,29=7,30=1,38=1,40=1/1,3;
 2/12=2,15=1,40=1/2;
 3/5=44,7=101,11=2,14=-4,25=1,30=1,70=2,71=2,74=-5,116=1,140=1/1,2,3;
 4/5=101/1;
 5/5=2,38=6,98=1/2;
 8/6=4,10=90,11=11/1;
 11/6=1,8=1,9=11,15=111,16=1,31=1/1,2,10;
 10/6=1,31=1/2;
 7/8=1,10=1,25=1,30=1/1,2,3,16;
 1/8=10,10=4,30=1/3;
 99//99;
 Structure from the checkpoint file:  "checkpoint.chk"
 ------------------
 int_zmat_initalOpt
 ------------------
 Charge =  0 Multiplicity = 1
 Z-Matrix found in chk file.
 H
 C,1,R2
 C,2,R3,1,A3
 C,2,R4,1,A4,3,D4,0
 H,3,R5,2,A5,1,D5,0
 O,3,R6,2,A6,5,D6,0
 C,4,R7,2,A7,1,D7,0
 H,4,R8,2,A8,7,D8,0
 C,6,R9,3,A9,2,D9,0
 H,7,R10,4,A10,2,D10,0
 H,9,R11,6,A11,3,D11,0
 H,9,R12,6,A12,11,D12,0
      Variables:
 R2=1.08009983
 R3=1.340813
 R4=1.45501284
 R5=1.08264669
 R6=1.35410494
 R7=1.33557593
 R8=1.08243042
 R9=1.44568865
 R10=1.08179481
 R11=1.08885274
 R12=1.10411651
 A3=119.63534808
 A4=121.29781814
 A5=124.28183027
 A6=123.56813442
 A7=119.18764109
 A8=119.27504948
 A9=115.5809477
 A10=122.59090847
 A11=105.38975745
 A12=107.2821448
 D4=168.39545185
 D5=2.09492043
 D6=174.15397155
 D7=176.34617214
 D8=174.40939848
 D9=21.07287358
 D10=173.70061327
 D11=-162.39275047
 D12=-115.09019529
 Recover connectivity data from disk.

 GradGradGradGradGradGradGradGradGradGradGradGradGradGradGradGradGradGrad
 Berny optimization.
 Initialization pass.
                       ----------------------------
                       !    Initial Parameters    !
                       ! (Angstroms and Degrees)  !
 ----------------------                            ----------------------
 !      Name          Value   Derivative information (Atomic Units)     !
 ------------------------------------------------------------------------
 !       R2          1.0801   calculate D2E/DX2 analytically            !
 !       R3          1.3408   calculate D2E/DX2 analytically            !
 !       R4          1.455    calculate D2E/DX2 analytically            !
 !       R5          1.0826   calculate D2E/DX2 analytically            !
 !       R6          1.3541   calculate D2E/DX2 analytically            !
 !       R7          1.3356   calculate D2E/DX2 analytically            !
 !       R8          1.0824   calculate D2E/DX2 analytically            !
 !       R9          1.4457   calculate D2E/DX2 analytically            !
 !       R10         1.0818   calculate D2E/DX2 analytically            !
 !       R11         1.0889   calculate D2E/DX2 analytically            !
 !       R12         1.1041   calculate D2E/DX2 analytically            !
 !       A3        119.6353   calculate D2E/DX2 analytically            !
 !       A4        121.2978   calculate D2E/DX2 analytically            !
 !       A5        124.2818   calculate D2E/DX2 analytically            !
 !       A6        123.5681   calculate D2E/DX2 analytically            !
 !       A7        119.1876   calculate D2E/DX2 analytically            !
 !       A8        119.275    calculate D2E/DX2 analytically            !
 !       A9        115.5809   calculate D2E/DX2 analytically            !
 !       A10       122.5909   calculate D2E/DX2 analytically            !
 !       A11       105.3898   calculate D2E/DX2 analytically            !
 !       A12       107.2821   calculate D2E/DX2 analytically            !
 !       D4        168.3955   calculate D2E/DX2 analytically            !
 !       D5          2.0949   calculate D2E/DX2 analytically            !
 !       D6        174.154    calculate D2E/DX2 analytically            !
 !       D7        176.3462   calculate D2E/DX2 analytically            !
 !       D8        174.4094   calculate D2E/DX2 analytically            !
 !       D9         21.0729   calculate D2E/DX2 analytically            !
 !       D10       173.7006   calculate D2E/DX2 analytically            !
 !       D11      -162.3928   calculate D2E/DX2 analytically            !
 !       D12      -115.0902   calculate D2E/DX2 analytically            !
 ------------------------------------------------------------------------
 Trust Radius=1.00D-01 FncErr=1.00D-07 GrdErr=1.00D-07 EigMax=2.50D+02 EigMin=1.00D-04
 Number of steps in this run=      2 maximum allowed number of steps=      2.
 GradGradGradGradGradGradGradGradGradGradGradGradGradGradGradGradGradGrad

                          Input orientation:                          
 ---------------------------------------------------------------------
 Center     Atomic      Atomic             Coordinates (Angstroms)
 Number     Number       Type             X           Y           Z
 ---------------------------------------------------------------------
      1          1           0        0.000000    0.000000    0.000000
      2          6           0        0.000000    0.000000    1.080100
      3          6           0        1.165421    0.000000    1.743103
      4          6           0       -1.217864    0.250092    1.835959
      5          1           0        2.137515    0.032701    1.267615
      6          8           0        1.259489    0.073815    3.091918
      7          6           0       -1.185845    0.167660    3.168604
      8          1           0       -2.104618    0.587035    1.314622
      9          6           0        0.074493   -0.315989    3.822569
     10          1           0       -2.029265    0.438394    3.789592
     11          1           0        0.203080    0.095544    4.822422
     12          1           0        0.084364   -1.417342    3.900012
 ---------------------------------------------------------------------
                    Distance matrix (angstroms):
                    1          2          3          4          5
     1  H    0.000000
     2  C    1.080100   0.000000
     3  C    2.096810   1.340813   0.000000
     4  C    2.217315   1.455013   2.398169   0.000000
     5  H    2.485335   2.145973   1.082647   3.410109   0.000000
     6  O    3.339419   2.374695   1.354105   2.783125   2.025019
     7  C    3.387387   2.407528   2.754745   1.335576   3.831017
     8  H    2.549953   2.197505   3.349830   1.082430   4.278456
     9  C    3.836331   2.761619   2.369421   2.436648   3.302338
    10  H    4.321008   3.413423   3.819205   2.123796   4.887434
    11  H    4.827642   3.749046   3.227606   3.310880   4.047548
    12  H    4.150430   3.157195   2.798178   2.955748   3.639721
                    6          7          8          9         10
     6  O    0.000000
     7  C    2.448336   0.000000
     8  H    3.839192   2.111225   0.000000
     9  C    1.445689   1.500012   3.442931   0.000000
    10  H    3.381652   1.081795   2.480574   2.235168   0.000000
    11  H    2.027590   2.160885   4.227493   1.088853   2.483475
    12  H    2.063367   2.158847   3.936167   1.104117   2.814849
                   11         12
    11  H    0.000000
    12  H    1.775882   0.000000
 Symmetry turned off by external request.
 Stoichiometry    C5H6O
 Framework group  C1[X(C5H6O)]
 Deg. of freedom    30
 Full point group                 C1      NOp   1
 Rotational constants (GHZ):           5.5814591           5.3669124           2.8513671
 Standard basis: def2TZVP (5D, 7F)
 The following finite field(s) will be applied:
 An electric field of              0.0040 -0.0064 -0.0002
   222 basis functions,   354 primitive gaussians,   252 cartesian basis functions
    22 alpha electrons       22 beta electrons
       nuclear repulsion energy       223.5158519745 Hartrees.
 NAtoms=   12 NActive=   12 NUniq=   12 SFac= 1.00D+00 NAtFMM=   60 NAOKFM=F Big=F
 Integral buffers will be    131072 words long.
 Raffenetti 2 integral format.
 Two-electron integral symmetry is turned off.
 One-electron integrals computed using PRISM.
   1 Symmetry operations used in ECPInt.
 ECPInt:  NShTT=    4095 NPrTT=   12396 LenC2=    4075 LenP2D=   10418.
 LDataN:  DoStor=T MaxTD1= 6 Len=  172
 NBasis=   222 RedAO= T EigKep=  9.80D-05  NBF=   222
 NBsUse=   222 1.00D-06 EigRej= -1.00D+00 NBFU=   222
 The nuclear repulsion energy is now       223.4636626037 hartrees.
 Initial guess from the checkpoint file:  "checkpoint.chk"
 B after Tr=     0.000000    0.000000    0.000000
         Rot=    1.000000    0.000000    0.000000    0.000000 Ang=   0.00 deg.
 Keep R1 ints in memory in canonical form, NReq=319363885.
 Requested convergence on RMS density matrix=1.00D-08 within 128 cycles.
 Requested convergence on MAX density matrix=1.00D-06.
 Requested convergence on             energy=1.00D-06.
 No special actions if energy rises.
 SCF Done:  E(RB3LYP) =  -269.424458764     A.U. after    1 cycles
            NFock=  1  Conv=0.29D-08     -V/T= 2.0050
 DoSCS=F DFT=T ScalE2(SS,OS)=  1.000000  1.000000
 Range of M.O.s used for correlation:     1   222
 NBasis=   222 NAE=    22 NBE=    22 NFC=     0 NFV=     0
 NROrb=    222 NOA=    22 NOB=    22 NVA=   200 NVB=   200

 **** Warning!!: The largest alpha MO coefficient is  0.20603458D+02

   1 Symmetry operations used in ECPInt.
 ECPInt:  NShTT=    4095 NPrTT=   12396 LenC2=    4075 LenP2D=   10418.
 LDataN:  DoStor=T MaxTD1= 7 Len=  274
 Symmetrizing basis deriv contribution to polar:
 IMax=3 JMax=2 DiffMx= 0.00D+00
 G2DrvN: will do    13 centers at a time, making    1 passes.
 Calling FoFCou, ICntrl=  3107 FMM=F I1Cent=   0 AccDes= 0.00D+00.
 End of G2Drv F.D. properties file   721 does not exist.
 End of G2Drv F.D. properties file   722 does not exist.
 End of G2Drv F.D. properties file   788 does not exist.
          IDoAtm=111111111111
          Differentiating once with respect to electric field.
                with respect to dipole field.
          Differentiating once with respect to nuclear coordinates.
 Keep R1 ints in memory in canonical form, NReq=319334014.
          There are    39 degrees of freedom in the 1st order CPHF.  IDoFFX=6 NUNeed=     3.
     36 vectors produced by pass  0 Test12= 1.13D-14 2.56D-09 XBig12= 7.59D+01 5.96D+00.
 AX will form    36 AO Fock derivatives at one time.
     36 vectors produced by pass  1 Test12= 1.13D-14 2.56D-09 XBig12= 1.64D+01 7.55D-01.
     36 vectors produced by pass  2 Test12= 1.13D-14 2.56D-09 XBig12= 2.11D-01 7.89D-02.
     36 vectors produced by pass  3 Test12= 1.13D-14 2.56D-09 XBig12= 5.74D-04 3.98D-03.
     36 vectors produced by pass  4 Test12= 1.13D-14 2.56D-09 XBig12= 1.40D-06 2.04D-04.
     30 vectors produced by pass  5 Test12= 1.13D-14 2.56D-09 XBig12= 3.02D-09 6.74D-06.
      6 vectors produced by pass  6 Test12= 1.13D-14 2.56D-09 XBig12= 3.74D-12 2.60D-07.
      3 vectors produced by pass  7 Test12= 1.13D-14 2.56D-09 XBig12= 3.77D-15 7.13D-09.
 InvSVY:  IOpt=1 It=  1 EMax= 3.76D-15
 Solved reduced A of dimension   219 with    39 vectors.
 Isotropic polarizability for W=    0.000000       59.64 Bohr**3.
 End of Minotr F.D. properties file   721 does not exist.
 End of Minotr F.D. properties file   722 does not exist.
 End of Minotr F.D. properties file   788 does not exist.
   1 Symmetry operations used in ECPInt.
 ECPInt:  NShTT=    4095 NPrTT=   12396 LenC2=    4075 LenP2D=   10418.
 LDataN:  DoStor=T MaxTD1= 8 Len=  415
 Calling FoFJK, ICntrl=    100127 FMM=F ISym2X=0 I1Cent= 0 IOpClX= 0 NMat=1 NMatS=1 NMatT=0.
 Full mass-weighted force constant matrix:
 Low frequencies ---  -11.5431   -2.2256    0.0004    0.0008    0.0009    9.8788
 Low frequencies ---  167.5448  334.8987  500.6712
 Diagonal vibrational polarizability:
        3.9337552       8.2973700       4.1171401
 Harmonic frequencies (cm**-1), IR intensities (KM/Mole), Raman scattering
 activities (A**4/AMU), depolarization ratios for plane and unpolarized
 incident light, reduced masses (AMU), force constants (mDyne/A),
 and normal coordinates:
                      1                      2                      3
                      A                      A                      A
 Frequencies --    167.5305               334.8857               500.6646
 Red. masses --      2.2160                 2.7309                 3.2672
 Frc consts  --      0.0366                 0.1804                 0.4825
 IR Inten    --      2.0586                11.2778                16.0341
  Atom  AN      X      Y      Z        X      Y      Z        X      Y      Z
     1   1    -0.02  -0.30   0.04     0.03   0.16   0.00     0.05   0.01   0.14
     2   6    -0.01  -0.15   0.04    -0.01  -0.08   0.00    -0.03   0.13   0.14
     3   6     0.00  -0.00   0.03     0.00   0.21   0.01     0.02  -0.09   0.07
     4   6     0.02   0.05   0.02    -0.04  -0.17  -0.01    -0.20  -0.07  -0.05
     5   1    -0.00   0.02   0.02    -0.02   0.68  -0.00    -0.04  -0.39  -0.09
     6   8    -0.03   0.16   0.02     0.04  -0.16   0.00     0.20  -0.00   0.07
[...]
     Eigenvalues ---    0.30190   0.31942   0.34228   0.35309   0.35641
     Eigenvalues ---    0.35885   0.36190   0.37085   0.46472   0.51092
     Eigenvalues ---    0.58136   0.58982   2.28233   3.78945  21.82275
 Angle between quadratic step and forces=  62.02 degrees.
 Linear search not attempted -- first point.
 Variable       Old X    -DE/DX   Delta X   Delta X   Delta X     New X
                                 (Linear)    (Quad)   (Total)
    R2        2.04109  -0.00001   0.00000  -0.00003  -0.00003   2.04106
    R3        2.53377   0.00001   0.00000   0.00002   0.00002   2.53378
    R4        2.74958  -0.00001   0.00000  -0.00001  -0.00001   2.74957
    R5        2.04591   0.00001   0.00000   0.00005   0.00005   2.04595
    R6        2.55889  -0.00011   0.00000  -0.00039  -0.00039   2.55850
    R7        2.52387  -0.00001   0.00000  -0.00005  -0.00005   2.52382
    R8        2.04550   0.00000   0.00000   0.00001   0.00001   2.04551
    R9        2.73196   0.00008   0.00000   0.00041   0.00041   2.73237
   R10        2.04430  -0.00000   0.00000  -0.00000  -0.00000   2.04430
   R11        2.05763  -0.00000   0.00000   0.00001   0.00001   2.05764
   R12        2.08648  -0.00002   0.00000  -0.00010  -0.00010   2.08638
    A3        2.08803   0.00004   0.00000   0.00013   0.00013   2.08816
    A4        2.11705   0.00004   0.00000  -0.00001  -0.00001   2.11704
    A5        2.16913  -0.00002   0.00000  -0.00018  -0.00018   2.16894
    A6        2.15667   0.00001   0.00000   0.00023   0.00023   2.15690
    A7        2.08022   0.00002   0.00000   0.00023   0.00023   2.08044
    A8        2.08174  -0.00000   0.00000  -0.00002  -0.00002   2.08172
    A9        2.01727   0.00006   0.00000   0.00056   0.00056   2.01783
   A10        2.13961   0.00001   0.00000  -0.00004  -0.00004   2.13957
   A11        1.83940  -0.00002   0.00000  -0.00017  -0.00017   1.83923
   A12        1.87243  -0.00000   0.00000  -0.00007  -0.00007   1.87235
    D4        2.93906   0.00001   0.00000   0.00000   0.00000   2.93906
    D5        0.03656  -0.00003   0.00000  -0.00062  -0.00062   0.03595
    D6        3.03956  -0.00001   0.00000   0.00054   0.00054   3.04010
    D7        3.07782  -0.00000   0.00000   0.00041   0.00041   3.07823
    D8        3.04402   0.00004   0.00000   0.00090   0.00090   3.04492
    D9        0.36779  -0.00002   0.00000  -0.00119  -0.00119   0.36660
   D10        3.03165   0.00000   0.00000   0.00046   0.00046   3.03211
   D11       -2.83429   0.00002   0.00000   0.00220   0.00220  -2.83209
   D12       -2.00870   0.00001   0.00000   0.00013   0.00013  -2.00857
         Item               Value     Threshold  Converged?
 Maximum Force            0.000105     0.000450     YES
 RMS     Force            0.000032     0.000300     YES
 Maximum Displacement     0.002199     0.001800     NO 
 RMS     Displacement     0.000547     0.001200     YES
 Predicted change in Energy=-1.248194D-07
                       ----------------------------
                       ! Non-Optimized Parameters !
                       ! (Angstroms and Degrees)  !
 ----------------------                            ----------------------
 !      Name          Value   Derivative information (Atomic Units)     !
 ------------------------------------------------------------------------
 !       R2          1.0801   -DE/DX =    0.0                           !
 !       R3          1.3408   -DE/DX =    0.0                           !
 !       R4          1.455    -DE/DX =    0.0                           !
 !       R5          1.0827   -DE/DX =    0.0                           !
 !       R6          1.3539   -DE/DX =   -0.0001                        !
 !       R7          1.3355   -DE/DX =    0.0                           !
 !       R8          1.0824   -DE/DX =    0.0                           !
 !       R9          1.4459   -DE/DX =    0.0001                        !
 !       R10         1.0818   -DE/DX =    0.0                           !
 !       R11         1.0889   -DE/DX =    0.0                           !
 !       R12         1.1041   -DE/DX =    0.0                           !
 !       A3        119.6425   -DE/DX =    0.0                           !
 !       A4        121.2974   -DE/DX =    0.0                           !
 !       A5        124.2713   -DE/DX =    0.0                           !
 !       A6        123.5814   -DE/DX =    0.0                           !
 !       A7        119.2006   -DE/DX =    0.0                           !
 !       A8        119.2738   -DE/DX =    0.0                           !
 !       A9        115.6129   -DE/DX =    0.0001                        !
 !       A10       122.5884   -DE/DX =    0.0                           !
 !       A11       105.3802   -DE/DX =    0.0                           !
 !       A12       107.278    -DE/DX =    0.0                           !
 !       D4        168.3956   -DE/DX =    0.0                           !
 !       D5          2.0595   -DE/DX =    0.0                           !
 !       D6        174.185    -DE/DX =    0.0                           !
 !       D7        176.3698   -DE/DX =    0.0                           !
 !       D8        174.4609   -DE/DX =    0.0                           !
 !       D9         21.0048   -DE/DX =    0.0                           !
 !       D10       173.727    -DE/DX =    0.0                           !
 !       D11      -162.2668   -DE/DX =    0.0                           !
 !       D12      -115.0826   -DE/DX =    0.0                           !
 ------------------------------------------------------------------------
 GradGradGradGradGradGradGradGradGradGradGradGradGradGradGradGradGradGrad


 ----------------------------------------------------------------------

 Electric dipole moment (input orientation):
 (Debye = 10**-18 statcoulomb cm , SI units = C m)
                  (au)            (Debye)         (10**-30 SI)
   Tot        0.587671D+00      0.149371D+01      0.498248D+01
   x         -0.539291D+00     -0.137074D+01     -0.457230D+01
   y          0.233472D+00      0.593425D+00      0.197945D+01
   z          0.361107D-02      0.917841D-02      0.306159D-01

 Dipole polarizability, Alpha (input orientation).
 (esu units = cm**3 , SI units = C**2 m**2 J**-1)
 Alpha(0;0):
               (au)            (10**-24 esu)      (10**-40 SI)
   iso        0.596419D+02      0.883801D+01      0.983361D+01
   aniso      0.276858D+02      0.410261D+01      0.456477D+01
   xx         0.661947D+02      0.980905D+01      0.109140D+02
   yx        -0.342852D+01     -0.508055D+00     -0.565287D+00
   yy         0.422120D+02      0.625517D+01      0.695982D+01
   zx        -0.219933D+01     -0.325906D+00     -0.362620D+00
   zy        -0.252662D+01     -0.374406D+00     -0.416583D+00
   zz         0.705189D+02      0.104498D+02      0.116270D+02

 ----------------------------------------------------------------------

 Dipole orientation:
     1          0.00000000          0.00000000          0.00000000
     6          1.87306113         -0.81089136          0.01254192
     6          3.38182240         -0.51063074         -2.00078123
     6          2.97992187         -1.81381272          2.32104252
     1          2.87910106          0.56408049         -3.66751374
     8          5.80040007         -1.34124138         -2.09283091
     6          5.24435420         -2.92371739          2.21910436
     1          2.03339450         -1.49276787          4.10572016
     6          6.43550631         -3.32226887         -0.32202555
     1          6.24680828         -3.53609717          3.89219211
     1          8.49081304         -3.32917620         -0.22444463
     1          5.81870125         -5.12841934         -1.16509237

 Electric dipole moment (dipole orientation):
 (Debye = 10**-18 statcoulomb cm , SI units = C m)
                  (au)            (Debye)         (10**-30 SI)
   Tot        0.587671D+00      0.149371D+01      0.498248D+01
   x          0.000000D+00      0.000000D+00      0.000000D+00
   y          0.000000D+00      0.000000D+00      0.000000D+00
   z          0.587671D+00      0.149371D+01      0.498248D+01

 Dipole polarizability, Alpha (dipole orientation).
 (esu units = cm**3 , SI units = C**2 m**2 J**-1)
 Alpha(0;0):
               (au)            (10**-24 esu)      (10**-40 SI)
   iso        0.596419D+02      0.883801D+01      0.983361D+01
   aniso      0.276858D+02      0.410261D+01      0.456477D+01
   xx         0.639440D+02      0.947552D+01      0.105429D+02
   yx        -0.120049D+02     -0.177894D+01     -0.197933D+01
   yy         0.500596D+02      0.741807D+01      0.825371D+01
   zx        -0.158692D+01     -0.235157D+00     -0.261647D+00
   zy        -0.630571D+01     -0.934410D+00     -0.103967D+01
   zz         0.649220D+02      0.962045D+01      0.107042D+02

 ----------------------------------------------------------------------
 1\1\GINC-BHC0105\Freq\RB3LYP\def2TZVP\C5H6O1\DHANAWAY\10-Jun-2022\1\\#
 N Geom=AllCheck Guess=TCheck SCRF=Check GenChk RB3LYP/def2TZVP Freq\\i
 nt_zmat_initalOpt\\0,1\H\C,1,R2\C,2,R3,1,A3\C,2,R4,1,A4,3,D4,0\H,3,R5,
 2,A5,1,D5,0\O,3,R6,2,A6,5,D6,0\C,4,R7,2,A7,1,D7,0\H,4,R8,2,A8,7,D8,0\C
 ,6,R9,3,A9,2,D9,0\H,7,R10,4,A10,2,D10,0\H,9,R11,6,A11,3,D11,0\H,9,R12,
 6,A12,11,D12,0\\R2=1.08009983\R3=1.340813\R4=1.45501284\R5=1.08264669\
 R6=1.35410494\R7=1.33557593\R8=1.08243042\R9=1.44568865\R10=1.08179481
 \R11=1.08885274\R12=1.10411651\A3=119.63534808\A4=121.29781814\A5=124.
 28183027\A6=123.56813442\A7=119.18764109\A8=119.27504948\A9=115.580947
 7\A10=122.59090847\A11=105.38975745\A12=107.2821448\D4=168.39545185\D5
 =2.09492043\D6=174.15397155\D7=176.34617214\D8=174.40939848\D9=21.0728
 7358\D10=173.70061327\D11=-162.39275047\D12=-115.09019529\\Version=ES6
 4L-G16RevA.03\HF=-269.4244588\RMSD=2.939e-09\RMSF=3.734e-04\ZeroPoint=
 0.0982341\Thermal=0.1031953\Dipole=-0.5392911,0.2334715,0.0036111\Dipo
 leDeriv=0.0657106,0.0153316,0.0304945,0.0373051,0.1531213,0.0230412,0.
 026394,-0.0103216,-0.0776263,-0.3882319,-0.067009,-0.0392739,-0.113239
 1,-0.2324893,-0.0501426,-0.1400677,0.0301764,-0.030452,0.378158,0.0591
 625,0.1843038,0.1519236,-0.0907239,0.0618339,0.4943224,0.0278712,0.785
 1129,0.2407147,-0.0599528,-0.1682916,-0.1015067,-0.078491,-0.0199482,-
 0.0903205,-0.051696,0.0960007,-0.0666051,-0.0022956,0.0790821,0.019035
 3,0.1481278,-0.0240156,0.0673122,-0.0001663,0.0023122,-0.4864386,-0.11
 36097,0.1265777,-0.1348129,-0.2789643,0.0454359,-0.3976713,0.1141686,-
 1.0659326,-0.0966905,-0.0673626,0.0082776,-0.0629536,-0.2271993,0.0200
 502,0.0920673,0.0455511,-0.1948038,-0.0078424,0.0431488,-0.038245,0.06
 20735,0.1278403,0.0233389,-0.0367632,0.0192718,0.0435325,0.2784065,0.1
 234926,-0.1524557,0.0611833,0.5882746,-0.1795598,-0.0470914,-0.1344727
 ,0.5252104,0.0128688,0.0387446,0.0390424,0.0685387,0.1356085,-0.024831
 2,0.0423515,-0.0035881,0.0206545,0.0447504,-0.0057944,-0.0197431,-0.01
 81111,0.0397335,-0.0579261,-0.0095545,-0.021199,-0.1118611,0.0251994,0
 .036144,-0.0497688,0.0305638,-0.2848381,0.1827235,-0.0009787,-0.015595
 3,0.0078525\Polar=66.1947278,-3.4285221,42.2119797,-2.1993254,-2.52661
 7,70.5188548\PG=C01 [X(C5H6O1)]\NImag=0\\0.05438733,-0.00400920,0.0225
 1589,0.00142046,0.00140185,0.36301333,-0.05583242,0.00391947,-0.002103
 55,0.67870900,0.00487714,-0.02741750,-0.00123230,-0.04268358,0.1152382
 8,0.00129132,0.00338580,-0.34330551,0.09347417,0.01813321,0.74132502,0
 .00509844,-0.00031637,0.00348298,-0.39433036,0.00367221,-0.15539216,0.
 85244504,-0.00049082,-0.00250071,-0.00016030,-0.01022178,-0.05392141,0
 .00142486,0.01805903,0.13100488,-0.02947202,-0.00026565,-0.01335511,-0
 .13456832,0.00894946,-0.19081061,0.03892205,0.00542106,0.60371194,0.00
 551789,-0.00053461,-0.00260098,-0.19673004,0.03067880,0.07015814,-0.05
 463103,0.00949171,-0.00599324,0.59438037,-0.00171293,-0.00034869,0.000
 71011,0.03850046,-0.06627551,-0.01592965,0.00345404,0.00863810,0.00138
 609,-0.13996520,0.17842563,0.02680201,-0.00396789,-0.00962136,0.041735
 99,-0.00262155,-0.14406570,0.01110784,-0.00784263,0.02915329,0.0630677
 5,-0.06757014,0.79216764,0.00066401,0.00042532,-0.00042167,-0.01765326
 ,0.00034964,0.01440998,-0.28963313,-0.01043634,0.10586080,-0.00200103,
 -0.00107141,-0.00479797,0.30065497,-0.00043195,-0.00493934,-0.00015733
 ,0.00489782,0.00721900,0.00255907,-0.01526424,-0.03731080,-0.00114178,
 -0.00132122,0.00944294,-0.00009175,0.00962306,0.02236658,0.00047187,-0
 .00005203,0.00060998,-0.01405702,0.00095826,0.01194713,0.10195050,0.00
 013692,-0.09813115,-0.00244192,-0.00014771,-0.00177942,-0.11635518,-0.
 00340710,0.12004367,-0.00469092,0.00010124,-0.00228694,0.00769142,-0.0
 0267559,-0.03746314,-0.11124034,-0.01472483,-0.00794287,0.00379478,0.0
 0100993,0.00271459,0.00620238,0.00173731,0.03295008,0.29029696,0.00065
 254,0.01134072,0.00037159,0.00633701,0.01002227,-0.00730595,-0.0132426
 7,-0.04515190,-0.00848454,-0.00542333,-0.00575638,0.00855678,-0.000024
 99,0.00144122,0.00483276,0.07310788,0.09800741,-0.00336488,0.00082117,
 0.00165415,-0.03625096,-0.01351236,-0.05966391,-0.03327232,-0.00790172
 ,-0.27734621,0.02135625,-0.00360938,-0.01174136,0.00204505,0.00479325,
 -0.02911117,-0.03098800,-0.02800047,0.48432671,-0.00503861,0.00106308,
 0.00258570,0.00285067,-0.00149844,0.03348877,-0.00358384,0.00503257,0.
 00331717,-0.10947234,0.01807445,-0.00713688,0.00059269,-0.00104458,-0.
 00002248,-0.03715026,0.00271315,-0.00348616,0.53922694,0.00185647,0.00
 123481,-0.00088707,0.00300267,0.00963627,-0.00811402,-0.00055504,0.001
 12428,-0.00384666,0.01586076,-0.06500291,0.03104700,-0.00008246,-0.000
 60433,0.00001944,-0.00415410,0.00615402,0.00005356,-0.14087064,0.18711
 392,0.00184686,-0.00007446,0.00035151,0.03744123,-0.00443255,-0.029042
 23,-0.01100829,0.00315791,-0.01240228,-0.01993929,0.03367119,-0.501488
 12,0.00021573,-0.00235266,-0.00029285,0.01782273,-0.00863626,0.0159834
 7,-0.08016364,-0.01804003,0.81892185,0.00084919,-0.00060209,0.00019514
 ,-0.01715277,0.00724913,-0.01238412,-0.00172691,0.00122276,0.00423505,
 -0.24457607,0.07721629,-0.11145598,-0.00076728,-0.00053227,-0.00069657
 ,0.00086287,-0.00007636,-0.00043469,0.00427093,0.00045335,0.00074974,0
 .25638748,-0.00034311,-0.00041404,-0.00000961,0.00156095,0.00124079,0.
 00447925,0.00166646,0.00102744,-0.00191426,0.07991989,-0.06767898,0.04
 206063,0.00023327,0.00023125,0.00025194,0.00012095,-0.00056182,0.00072
 790,0.00256189,0.00480299,0.00042982,-0.08530375,0.05722396,-0.0008766
 9,-0.00004760,0.00059770,0.01516249,-0.00576355,0.01154637,0.00301589,
 -0.00037241,-0.00314291,-0.10922773,0.04142020,-0.12162852,0.00081798,
 0.00066087,0.00053182,-0.00029010,-0.00029511,0.00138475,-0.02813365,0
 .01151806,-0.01165800,0.11836849,-0.04726371,0.12700485,-0.00142132,0.
 00016511,0.00002777,-0.01538995,-0.00580522,-0.01065598,0.00515240,0.0
 0553043,0.04101493,0.00796775,0.00107052,-0.02148398,0.00183336,0.0034
 1606,-0.00362705,-0.13340718,-0.03990588,0.02575331,-0.16211345,0.0455
 6021,-0.04043960,0.00190217,0.00287287,0.00238361,0.40393401,-0.000164
 60,-0.00003211,-0.00030749,-0.00494509,-0.00572694,-0.00267070,0.00359
 512,-0.00132771,-0.00073324,0.00873219,0.00135136,0.00205650,0.0008985
 7,0.00369751,-0.00343536,-0.03742376,-0.07498100,0.02260193,0.03385461
 ,-0.08956350,0.02048630,0.00270252,0.01079164,0.00018075,-0.01062702,0
 .51519498,0.00062938,-0.00084570,0.00066738,0.00236345,0.00058934,0.00
 661444,0.03723367,0.00542015,-0.04296227,-0.03762863,0.01756629,-0.019
 23791,-0.00184277,-0.00087545,-0.00314213,0.01140893,0.01544366,-0.098
 86985,-0.03667886,0.01596400,-0.12065328,0.00154229,0.00159015,-0.0052
 8097,0.05270061,0.04986061,0.59278384,0.00009686,-0.00009031,-0.000219
 01,0.00361358,0.00370295,0.00010084,-0.00010152,-0.00068792,-0.0037981
 5,0.00498496,0.00082855,-0.00187830,0.00006871,-0.00073770,0.00020329,
 -0.00500775,0.00225221,0.00109114,-0.22824730,0.06243361,0.12738508,-0
 .00002282,-0.00262354,0.00017508,-0.01145930,0.00436332,0.01368569,0.2
 3654822,-0.00019473,0.00068989,0.00024840,0.00378264,0.00946572,0.0015
 3844,-0.00041274,-0.00095238,-0.00158272,-0.00238392,0.00626163,0.0032
 1973,0.00021539,-0.00174461,0.00000155,-0.00049247,0.00176109,0.001349
 94,0.06674082,-0.05199638,-0.04341970,-0.00233452,-0.00625806,-0.00050
 204,0.00487514,0.00110948,-0.00594306,-0.06929069,0.04287879,0.0013834
 4,-0.00012050,-0.00053714,-0.00181145,0.00110970,-0.00444688,-0.000772
 55,-0.00019256,-0.00222092,0.02700761,-0.00827742,-0.01362511,0.000116
 14,-0.00010379,0.00027821,-0.00453412,0.00073716,0.00172827,0.12477465
 ,-0.03996101,-0.14851685,-0.00023092,-0.00018672,0.00122313,-0.0101221
 6,0.00327677,0.00966914,-0.13625234,0.04332305,0.15603634,0.00016726,-
 0.00010445,-0.00002139,0.00019063,-0.00029355,0.00080340,-0.00559354,-
 0.00013400,-0.00047883,-0.00527931,0.00163153,-0.00141017,-0.00010080,
 0.00028059,0.00142767,-0.00296543,0.00628706,0.03766210,-0.00072531,-0
 .01082467,-0.02606766,0.00041804,0.00126315,-0.00114724,-0.05318228,-0
 .01554923,-0.04094070,0.00086446,0.00008059,0.00047113,0.06398779,0.00
 002074,-0.00004667,-0.00000560,-0.00055634,0.00021184,0.00032987,-0.00
 216890,0.00053187,0.00214276,0.00234524,-0.00018988,-0.00026767,-0.000
 02718,0.00035705,0.00059123,-0.00056814,0.00454292,0.01440406,0.002750
 52,0.00570595,0.01411205,-0.00010389,-0.00050862,0.00046558,-0.0129405
 0,-0.09291207,-0.10247464,-0.00070053,0.00042774,-0.00065960,0.0160690
 4,0.09535582,-0.00005974,-0.00001016,-0.00002601,-0.00010975,-0.000332
 01,0.00018983,0.00357187,-0.00069203,0.00178294,-0.00268556,0.00008997
 ,0.00099912,0.00000476,-0.00030487,-0.00087754,0.00559827,-0.00073863,
 -0.02134073,-0.00325971,-0.00426494,-0.01177169,0.00029598,0.00056930,
 -0.00044936,-0.03200444,-0.09403761,-0.26609048,-0.00000314,0.00059770
 ,0.00088939,0.02938809,0.10024351,0.29365734,0.00020229,-0.00001718,-0
 .00005851,0.00403349,0.00242650,0.00216879,-0.00185521,-0.00264082,-0.
 01109657,-0.00395593,0.00096377,0.00273511,0.00013939,-0.00062287,0.00
 019681,-0.01438652,-0.03267660,0.01988917,-0.00061011,0.02731985,-0.00
 784289,-0.00044482,-0.00192901,-0.00024813,-0.04381621,0.01456337,-0.0
 0247304,-0.00133810,-0.00058551,-0.00002942,0.00221850,-0.00412007,-0.
 00073663,0.05981323,-0.00005954,-0.00008224,0.00002774,-0.00359424,0.0
 0030718,0.00216982,0.00151310,-0.00116166,0.00006949,0.00259970,0.0011
 3268,-0.00457900,-0.00010286,-0.00015647,0.00025011,-0.01603843,-0.006
 81856,0.00827213,0.01062260,-0.00860512,0.00509839,0.00010883,0.000103
 44,-0.00000102,0.00578829,-0.26760165,0.00370464,0.00055005,-0.0016429
 3,0.00105493,0.00129393,-0.01347596,-0.00112023,-0.00268144,0.29800129
 ,-0.00007201,-0.00022483,-0.00004892,-0.00127627,-0.00184565,-0.000287
 96,0.00116053,0.00160076,0.00572330,-0.00107238,0.00069046,0.00086745,
 -0.00005284,0.00042154,-0.00007656,0.01301057,0.02351900,-0.00700412,-
 0.00528491,0.01651166,0.00056847,-0.00018442,-0.00073468,-0.00012885,-
 0.00354700,0.00272154,-0.05349791,-0.00049020,0.00116872,-0.00047756,0
 .00031361,-0.02888154,0.00303720,-0.00250467,-0.01494699,0.05132546\\0
 .00005091,0.00067965,-0.00000521,-0.00003466,-0.00180821,0.00005013,-0
 .00001008,0.00110287,-0.00014428,-0.00004611,-0.00004883,-0.00003381,-
 0.00000512,0.00000961,0.00001143,-0.00004221,0.00001192,0.00015790,0.0
 0001958,0.00001595,0.00001463,0.00000899,0.00002286,0.00000559,0.00007
 266,0.00004031,-0.00005956,-0.00000466,0.00000227,-0.00000132,-0.00000
 569,-0.00000856,0.00000619,-0.00000363,-0.00001985,-0.00000169\\\@


 TO SEE A WORLD IN A GRAIN OF SAND
 AND A HEAVEN IN A WILD FLOWER
 HOLD INFINITY IN THE PALM OF YOUR HAND
 AND ETERNITY IN AN HOUR

                       -- WILLIAM BLAKE
 Job cpu time:       0 days  0 hours 31 minutes  6.5 seconds.
 Elapsed time:       0 days  0 hours  2 minutes 36.8 seconds.
 File lengths (MBytes):  RWF=     54 Int=      0 D2E=      0 Chk=     32 Scr=      1
 Normal termination of Gaussian 16 at Fri Jun 10 23:15:58 2022.
