 Entering Gaussian System, Link 0=g16
 Input=ts_zmat_field_N50.gjf
 Output=ts_zmat_field_N50.out
 Initial command:
 /software/gaussian/g16-a03/l1.exe "/local_scratch/9886787/Gau-31156.inp" -scrdir="/local_scratch/9886787/"
 Entering Link 1 = /software/gaussian/g16-a03/l1.exe PID=     31157.
  
 Copyright (c) 1988,1990,1992,1993,1995,1998,2003,2009,2016,
            Gaussian, Inc.  All Rights Reserved.
  
 This is part of the Gaussian(R) 16 program.  It is based on
 the Gaussian(R) 09 system (copyright 2009, Gaussian, Inc.),
 the Gaussian(R) 03 system (copyright 2003, Gaussian, Inc.),
 the Gaussian(R) 98 system (copyright 1998, Gaussian, Inc.),
 the Gaussian(R) 94 system (copyright 1995, Gaussian, Inc.),
 the Gaussian 92(TM) system (copyright 1992, Gaussian, Inc.),
 the Gaussian 90(TM) system (copyright 1990, Gaussian, Inc.),
 the Gaussian 88(TM) system (copyright 1988, Gaussian, Inc.),
 the Gaussian 86(TM) system (copyright 1986, Carnegie Mellon
 University), and the Gaussian 82(TM) system (copyright 1983,
 Carnegie Mellon University). Gaussian is a federally registered
 trademark of Gaussian, Inc.
  
 This software contains proprietary and confidential information,
 including trade secrets, belonging to Gaussian, Inc.
  
 This software is provided under written license and may be
 used, copied, transmitted, or stored only in accord with that
 written license.
  
 The following legend is applicable only to US Government
 contracts under FAR:
  
                    RESTRICTED RIGHTS LEGEND
  
 Use, reproduction and disclosure by the US Government is
 subject to restrictions as set forth in subparagraphs (a)
 and (c) of the Commercial Computer Software - Restricted
 Rights clause in FAR 52.227-19.
  
 Gaussian, Inc.
 340 Quinnipiac St., Bldg. 40, Wallingford CT 06492
  
  
 ---------------------------------------------------------------
 Warning -- This program may not be used in any manner that
 competes with the business of Gaussian, Inc. or will provide
 assistance to any competitor of Gaussian, Inc.  The licensee
 of this program is prohibited from giving any competitor of
 Gaussian, Inc. access to this program.  By using this program,
 the user acknowledges that Gaussian, Inc. is engaged in the
 business of creating and licensing software in the field of
 computational chemistry and represents and warrants to the
 licensee that it is not a competitor of Gaussian, Inc. and that
 it will not use this program in any manner prohibited above.
 ---------------------------------------------------------------
  

 Cite this work as:
 Gaussian 16, Revision A.03,
 M. J. Frisch, G. W. Trucks, H. B. Schlegel, G. E. Scuseria, 
 M. A. Robb, J. R. Cheeseman, G. Scalmani, V. Barone, 
 G. A. Petersson, H. Nakatsuji, X. Li, M. Caricato, A. V. Marenich, 
 J. Bloino, B. G. Janesko, R. Gomperts, B. Mennucci, H. P. Hratchian, 
 J. V. Ortiz, A. F. Izmaylov, J. L. Sonnenberg, D. Williams-Young, 
 F. Ding, F. Lipparini, F. Egidi, J. Goings, B. Peng, A. Petrone, 
 T. Henderson, D. Ranasinghe, V. G. Zakrzewski, J. Gao, N. Rega, 
 G. Zheng, W. Liang, M. Hada, M. Ehara, K. Toyota, R. Fukuda, 
 J. Hasegawa, M. Ishida, T. Nakajima, Y. Honda, O. Kitao, H. Nakai, 
 T. Vreven, K. Throssell, J. A. Montgomery, Jr., J. E. Peralta, 
 F. Ogliaro, M. J. Bearpark, J. J. Heyd, E. N. Brothers, K. N. Kudin, 
 V. N. Staroverov, T. A. Keith, R. Kobayashi, J. Normand, 
 K. Raghavachari, A. P. Rendell, J. C. Burant, S. S. Iyengar, 
 J. Tomasi, M. Cossi, J. M. Millam, M. Klene, C. Adamo, R. Cammi, 
 J. W. Ochterski, R. L. Martin, K. Morokuma, O. Farkas, 
 J. B. Foresman, and D. J. Fox, Gaussian, Inc., Wallingford CT, 2016.
 
 ******************************************
 Gaussian 16:  ES64L-G16RevA.03 25-Dec-2016
                18-Mar-2022 
 ******************************************
 %nprocshared=12
 Will use up to   12 processors via shared memory.
 %chk=checkpoint.chk
 %mem=12GB
 ----------------------------------------------------------------------
 # Opt=(TS, CalcFC, noeigentest, Z-matrix, MaxStep=10) geom=allcheckpoi
 nt guess=read Field=read NoSymm B3LYP/Def2TZVP
 ----------------------------------------------------------------------
 1/5=1,8=10,10=4,11=1,18=40,26=3,29=7,38=1/1,3;
 2/12=2,15=1,29=3,40=1/2;
 3/5=44,7=101,11=2,14=-6,25=1,30=1,71=2,74=-5,116=-2,140=1/1,2,3;
 4/5=1/1;
 5/5=2,38=6/2;
 8/6=4,10=90,11=11/1;
 11/6=1,8=1,9=11,15=111,16=1,31=1/1,2,10;
 10/6=1,13=1,31=1/2;
 6/7=2,8=2,9=2,10=2,28=1/1;
 7/10=1,18=20,25=1,30=1/1,2,3,16;
 1/5=1,8=10,10=4,11=1,18=40,26=3/3(2);
 2/15=1,29=3/2;
 99//99;
 2/15=1,29=3/2;
 3/5=44,7=101,11=2,14=-2,25=1,30=1,71=1,74=-5/1,2,3;
 4/5=5,16=3,69=1/1;
 5/5=2,38=5/2;
 7/30=1/1,2,3,16;
 1/5=1,8=10,11=1,18=40,26=3/3(-5);
 2/15=1,29=3/2;
 6/7=2,8=2,9=2,10=2,19=2,28=1/1;
 99/9=1/99;
 Structure from the checkpoint file:  "checkpoint.chk"
 -----------------
 ts_zmat_initalOpt
 -----------------
 Charge =  0 Multiplicity = 1
 Z-Matrix found in chk file.
 H
 C,1,R2
 C,2,R3,1,A3
 C,2,R4,1,A4,3,D4,0
 H,3,R5,2,A5,1,D5,0
 C,3,R6,2,A6,5,D6,0
 H,4,R7,2,A7,1,D7,0
 H,4,R8,2,A8,7,D8,0
 H,6,R9,3,A9,2,D9,0
 C,6,R10,3,A10,9,D10,0
 H,10,R11,6,A11,3,D11,0
 O,10,R12,6,A12,11,D12,0
      Variables:
 R2=1.08277389
 R3=1.38705576
 R4=1.39240504
 R5=1.08566727
 R6=1.40105541
 R7=1.08265223
 R8=1.08126754
 R9=1.08165895
 R10=1.4103424
 R11=1.09695147
 R12=1.25917743
 A3=120.61055185
 A4=121.21851574
 A5=119.94098677
 A6=120.91941316
 A7=120.69362653
 A8=118.43564631
 A9=119.4576257
 A10=118.99105662
 A11=115.65653073
 A12=128.1188316
 D4=169.94530082
 D5=-19.1211037
 D6=168.23479997
 D7=-7.18377344
 D8=152.16247033
 D9=-176.04135223
 D10=153.75777748
 D11=-142.82941362
 D12=171.40158142
 Recover connectivity data from disk.

 GradGradGradGradGradGradGradGradGradGradGradGradGradGradGradGradGradGrad
 Berny optimization.
 Initialization pass.
                       ----------------------------
                       !    Initial Parameters    !
                       ! (Angstroms and Degrees)  !
 ----------------------                            ----------------------
 !      Name          Value   Derivative information (Atomic Units)     !
 ------------------------------------------------------------------------
 !       R2          1.0828   calculate D2E/DX2 analytically            !
 !       R3          1.3871   calculate D2E/DX2 analytically            !
 !       R4          1.3924   calculate D2E/DX2 analytically            !
 !       R5          1.0857   calculate D2E/DX2 analytically            !
 !       R6          1.4011   calculate D2E/DX2 analytically            !
 !       R7          1.0827   calculate D2E/DX2 analytically            !
 !       R8          1.0813   calculate D2E/DX2 analytically            !
 !       R9          1.0817   calculate D2E/DX2 analytically            !
 !       R10         1.4103   calculate D2E/DX2 analytically            !
 !       R11         1.097    calculate D2E/DX2 analytically            !
 !       R12         1.2592   calculate D2E/DX2 analytically            !
 !       A3        120.6106   calculate D2E/DX2 analytically            !
 !       A4        121.2185   calculate D2E/DX2 analytically            !
 !       A5        119.941    calculate D2E/DX2 analytically            !
 !       A6        120.9194   calculate D2E/DX2 analytically            !
 !       A7        120.6936   calculate D2E/DX2 analytically            !
 !       A8        118.4356   calculate D2E/DX2 analytically            !
 !       A9        119.4576   calculate D2E/DX2 analytically            !
 !       A10       118.9911   calculate D2E/DX2 analytically            !
 !       A11       115.6565   calculate D2E/DX2 analytically            !
 !       A12       128.1188   calculate D2E/DX2 analytically            !
 !       D4        169.9453   calculate D2E/DX2 analytically            !
 !       D5        -19.1211   calculate D2E/DX2 analytically            !
 !       D6        168.2348   calculate D2E/DX2 analytically            !
 !       D7         -7.1838   calculate D2E/DX2 analytically            !
 !       D8        152.1625   calculate D2E/DX2 analytically            !
 !       D9       -176.0414   calculate D2E/DX2 analytically            !
 !       D10       153.7578   calculate D2E/DX2 analytically            !
 !       D11      -142.8294   calculate D2E/DX2 analytically            !
 !       D12       171.4016   calculate D2E/DX2 analytically            !
 ------------------------------------------------------------------------
 Trust Radius=1.00D-01 FncErr=1.00D-07 GrdErr=1.00D-06 EigMax=2.50D+02 EigMin=1.00D-04
 Number of steps in this run=     40 maximum allowed number of steps=    100.
 Search for a saddle point of order  1.
 GradGradGradGradGradGradGradGradGradGradGradGradGradGradGradGradGradGrad

 ---------------------------------------------------------------------------------------------------
                            Z-MATRIX (ANGSTROMS AND DEGREES)
   CD    Cent   Atom    N1       Length/X        N2       Alpha/Y        N3        Beta/Z          J
 ---------------------------------------------------------------------------------------------------
      1      1  H 
      2      2  C        1   1.082774(     1)
      3      3  C        2   1.387056(     2)      1  120.611(    12)
      4      4  C        2   1.392405(     3)      1  121.219(    13)      3  169.945(    22)      0
      5      5  H        3   1.085667(     4)      2  119.941(    14)      1  -19.121(    23)      0
      6      6  C        3   1.401055(     5)      2  120.919(    15)      5  168.235(    24)      0
      7      7  H        4   1.082652(     6)      2  120.694(    16)      1   -7.184(    25)      0
      8      8  H        4   1.081268(     7)      2  118.436(    17)      7  152.162(    26)      0
      9      9  H        6   1.081659(     8)      3  119.458(    18)      2 -176.041(    27)      0
     10     10  C        6   1.410342(     9)      3  118.991(    19)      9  153.758(    28)      0
     11     11  H       10   1.096951(    10)      6  115.657(    20)      3 -142.829(    29)      0
     12     12  O       10   1.259177(    11)      6  128.119(    21)     11  171.402(    30)      0
 ---------------------------------------------------------------------------------------------------
                         Z-Matrix orientation:                         
 ---------------------------------------------------------------------
 Center     Atomic      Atomic             Coordinates (Angstroms)
 Number     Number       Type             X           Y           Z
 ---------------------------------------------------------------------
      1          1           0        0.000000    0.000000    0.000000
      2          6           0        0.000000    0.000000    1.082774
      3          6           0        1.193767    0.000000    1.789063
      4          6           0       -1.172492    0.207896    1.804462
      5          1           0        2.112735   -0.308166    1.299976
      6          6           0        1.288114    0.617006    3.043399
      7          1           0       -2.088911    0.488625    1.300972
      8          1           0       -1.303925   -0.322965    2.737227
      9          1           0        2.245629    0.659233    3.544765
     10          6           0        0.357296    1.620564    3.383273
     11          1           0        0.755260    2.459216    3.967730
     12          8           0       -0.828426    1.749818    2.979684
 ---------------------------------------------------------------------
                    Distance matrix (angstroms):
                    1          2          3          4          5
     1  H    0.000000
     2  C    1.082774   0.000000
     3  C    2.150773   1.387056   0.000000
     4  C    2.161953   1.392405   2.375424   0.000000
     5  H    2.499710   2.146111   1.085667   3.363561   0.000000
     6  C    3.361876   2.425692   1.401055   2.785124   2.139034
     7  H    2.508951   2.156366   3.354544   1.082652   4.276530
     8  H    3.049088   2.131136   2.691057   1.081268   3.706680
     9  H    4.247681   3.396886   2.150231   3.862112   2.447979
    10  C    3.768345   2.836580   2.422276   2.613145   3.337917
    11  H    4.728746   3.865376   3.314608   3.669386   4.076524
    12  O    3.553403   2.710428   2.927236   1.969023   3.963224
                    6          7          8          9         10
     6  C    0.000000
     7  H    3.802214   0.000000
     8  H    2.774157   1.826941   0.000000
     9  H    1.081659   4.883846   3.770432   0.000000
    10  C    1.410342   3.406052   2.637108   2.125097   0.000000
    11  H    2.128864   4.368539   3.673542   2.374876   1.096951
    12  O    2.401471   2.448980   2.140401   3.310363   1.259177
                   11         12
    11  H    0.000000
    12  O    1.996883   0.000000
 Symmetry turned off by external request.
 Stoichiometry    C5H6O
 Framework group  C1[X(C5H6O)]
 Deg. of freedom    30
 Full point group                 C1      NOp   1
 Rotational constants (GHZ):           5.5356535           4.6756269           2.7043370
 Standard basis: def2TZVP (5D, 7F)
 The following finite field(s) will be applied:
 An electric field of             -0.0024  0.0003  0.0044
   222 basis functions,   354 primitive gaussians,   252 cartesian basis functions
    22 alpha electrons       22 beta electrons
       nuclear repulsion energy       217.8540749778 Hartrees.
 NAtoms=   12 NActive=   12 NUniq=   12 SFac= 1.00D+00 NAtFMM=   60 NAOKFM=F Big=F
 Integral buffers will be    131072 words long.
 Raffenetti 2 integral format.
 Two-electron integral symmetry is turned off.
 One-electron integrals computed using PRISM.
   1 Symmetry operations used in ECPInt.
 ECPInt:  NShTT=    4095 NPrTT=   12396 LenC2=    4075 LenP2D=   10363.
 LDataN:  DoStor=T MaxTD1= 6 Len=  172
 NBasis=   222 RedAO= T EigKep=  1.17D-04  NBF=   222
 NBsUse=   222 1.00D-06 EigRej= -1.00D+00 NBFU=   222
 The nuclear repulsion energy is now       218.7068325017 hartrees.
 Initial guess from the checkpoint file:  "checkpoint.chk"
 B after Tr=    -0.000000    0.000000    0.000000
         Rot=    1.000000   -0.000000   -0.000000    0.000000 Ang=   0.00 deg.
 Keep R1 ints in memory in canonical form, NReq=319363861.
 Requested convergence on RMS density matrix=1.00D-08 within 128 cycles.
 Requested convergence on MAX density matrix=1.00D-06.
 Requested convergence on             energy=1.00D-06.
 No special actions if energy rises.
 SCF Done:  E(RB3LYP) =  -269.394204135     A.U. after   11 cycles
            NFock= 11  Conv=0.53D-08     -V/T= 2.0050
 DoSCS=F DFT=T ScalE2(SS,OS)=  1.000000  1.000000
 Range of M.O.s used for correlation:     1   222
 NBasis=   222 NAE=    22 NBE=    22 NFC=     0 NFV=     0
 NROrb=    222 NOA=    22 NOB=    22 NVA=   200 NVB=   200

 **** Warning!!: The largest alpha MO coefficient is  0.19664852D+02

   1 Symmetry operations used in ECPInt.
 ECPInt:  NShTT=    4095 NPrTT=   12396 LenC2=    4075 LenP2D=   10363.
 LDataN:  DoStor=T MaxTD1= 7 Len=  274
 Symmetrizing basis deriv contribution to polar:
 IMax=3 JMax=2 DiffMx= 0.00D+00
 G2DrvN: will do    13 centers at a time, making    1 passes.
 Calling FoFCou, ICntrl=  3107 FMM=F I1Cent=   0 AccDes= 0.00D+00.
 End of G2Drv F.D. properties file   721 does not exist.
 End of G2Drv F.D. properties file   722 does not exist.
 End of G2Drv F.D. properties file   788 does not exist.
          IDoAtm=111111111111
          Differentiating once with respect to nuclear coordinates.
 Keep R1 ints in memory in canonical form, NReq=319333990.
          There are    39 degrees of freedom in the 1st order CPHF.  IDoFFX=6 NUNeed=     0.
     33 vectors produced by pass  0 Test12= 1.13D-14 2.56D-09 XBig12= 1.85D-01 2.54D-01.
 AX will form    33 AO Fock derivatives at one time.
     33 vectors produced by pass  1 Test12= 1.13D-14 2.56D-09 XBig12= 2.74D-02 4.06D-02.
     33 vectors produced by pass  2 Test12= 1.13D-14 2.56D-09 XBig12= 3.83D-04 2.62D-03.
     33 vectors produced by pass  3 Test12= 1.13D-14 2.56D-09 XBig12= 1.81D-06 2.03D-04.
     33 vectors produced by pass  4 Test12= 1.13D-14 2.56D-09 XBig12= 3.79D-09 7.99D-06.
     33 vectors produced by pass  5 Test12= 1.13D-14 2.56D-09 XBig12= 5.88D-12 3.87D-07.
      7 vectors produced by pass  6 Test12= 1.13D-14 2.56D-09 XBig12= 8.87D-15 1.83D-08.
 InvSVY:  IOpt=1 It=  1 EMax= 3.11D-15
 Solved reduced A of dimension   205 with    33 vectors.
 End of Minotr F.D. properties file   721 does not exist.
 End of Minotr F.D. properties file   722 does not exist.
 End of Minotr F.D. properties file   788 does not exist.

 **********************************************************************

            Population analysis using the SCF density.

 **********************************************************************

 Alpha  occ. eigenvalues --  -19.16230 -10.27231 -10.24034 -10.21286 -10.19036
 Alpha  occ. eigenvalues --  -10.18410  -1.06682  -0.84596  -0.77578  -0.68564
 Alpha  occ. eigenvalues --   -0.62633  -0.54544  -0.52753  -0.48951  -0.47835
 Alpha  occ. eigenvalues --   -0.46176  -0.41471  -0.40093  -0.39337  -0.34494
 Alpha  occ. eigenvalues --   -0.30826  -0.23388
 Alpha virt. eigenvalues --   -0.08757  -0.01941   0.03053   0.03584   0.05360
 Alpha virt. eigenvalues --    0.06143   0.07799   0.09828   0.10979   0.13677
 Alpha virt. eigenvalues --    0.16077   0.17887   0.18508   0.19237   0.20798
 Alpha virt. eigenvalues --    0.21062   0.23049   0.25921   0.26117   0.27331
 Alpha virt. eigenvalues --    0.28706   0.31764   0.32097   0.34335   0.36057
 Alpha virt. eigenvalues --    0.38134   0.38752   0.40294   0.40778   0.41970
 Alpha virt. eigenvalues --    0.42598   0.43476   0.44000   0.46329   0.47927
 Alpha virt. eigenvalues --    0.50907   0.52047   0.52832   0.55224   0.56557
 Alpha virt. eigenvalues --    0.60167   0.63929   0.66890   0.67683   0.73442
 Alpha virt. eigenvalues --    0.78172   0.80516   0.85165   0.85284   0.87849
 Alpha virt. eigenvalues --    0.91202   0.92055   0.94501   0.95118   0.96057
 Alpha virt. eigenvalues --    0.99302   1.02005   1.05336   1.08889   1.10320
 Alpha virt. eigenvalues --    1.13089   1.15451   1.17759   1.21754   1.21832
 Alpha virt. eigenvalues --    1.27153   1.29426   1.32763   1.37325   1.38010
 Alpha virt. eigenvalues --    1.41195   1.42165   1.44522   1.46114   1.49688
 Alpha virt. eigenvalues --    1.51477   1.55842   1.58296   1.61472   1.63039
 Alpha virt. eigenvalues --    1.65193   1.66893   1.71904   1.76019   1.76798
 Alpha virt. eigenvalues --    1.79457   1.80972   1.83717   1.86698   1.89870
 Alpha virt. eigenvalues --    1.92706   1.95312   2.03288   2.05221   2.08800
 Alpha virt. eigenvalues --    2.13241   2.13840   2.17675   2.19045   2.24253
 Alpha virt. eigenvalues --    2.26258   2.30436   2.35894   2.39101   2.42498
 Alpha virt. eigenvalues --    2.47882   2.50074   2.51148   2.52691   2.54302
 Alpha virt. eigenvalues --    2.57211   2.59773   2.61300   2.63826   2.66426
 Alpha virt. eigenvalues --    2.68519   2.69106   2.75312   2.76444   2.77919
 Alpha virt. eigenvalues --    2.80132   2.82036   2.82824   2.84702   2.87684
 Alpha virt. eigenvalues --    2.89922   2.93095   2.94701   2.96261   3.00107
 Alpha virt. eigenvalues --    3.01051   3.02797   3.04855   3.10195   3.11760
 Alpha virt. eigenvalues --    3.13201   3.15465   3.17848   3.21223   3.21924
 Alpha virt. eigenvalues --    3.22981   3.25949   3.27130   3.33480   3.34096
 Alpha virt. eigenvalues --    3.37514   3.39945   3.41800   3.44132   3.46541
 Alpha virt. eigenvalues --    3.47779   3.50676   3.56497   3.61491   3.61871
 Alpha virt. eigenvalues --    3.66758   3.83451   3.88424   3.90194   3.92258
 Alpha virt. eigenvalues --    3.95792   4.00513   4.01746   4.06488   4.09732
 Alpha virt. eigenvalues --    4.14478   4.16100   4.24041   4.29064   4.30819
 Alpha virt. eigenvalues --    4.37148   4.42299   4.45896   4.52569   4.62949
 Alpha virt. eigenvalues --    4.65169   4.70620   4.79426   4.84031   4.84940
 Alpha virt. eigenvalues --    5.03743   5.13115   5.22981   5.26846   5.49786
 Alpha virt. eigenvalues --    5.59561   5.97150   6.19431   6.31848   6.48462
 Alpha virt. eigenvalues --    6.70589   6.76378   6.95347   7.06208  22.04126
 Alpha virt. eigenvalues --   22.32172  22.48857  22.68335  22.85630  43.78762
          Condensed to atoms (all electrons):
               1          2          3          4          5          6
     1  H    0.527800   0.414759  -0.043945  -0.035612  -0.004113   0.006830
     2  C    0.414759   4.970370   0.496622   0.518077  -0.032816  -0.031153
     3  C   -0.043945   0.496622   4.884527  -0.088844   0.413231   0.457609
     4  C   -0.035612   0.518077  -0.088844   4.827538   0.009368  -0.009711
     5  H   -0.004113  -0.032816   0.413231   0.009368   0.527168  -0.045743
     6  C    0.006830  -0.031153   0.457609  -0.009711  -0.045743   5.285250
     7  H   -0.006160  -0.034687   0.009666   0.396329  -0.000237  -0.000620
     8  H    0.006851  -0.027931  -0.038211   0.418760   0.000146   0.038067
     9  H   -0.000184   0.008291  -0.045858  -0.000005  -0.006826   0.401173
    10  C   -0.002290  -0.047088  -0.026422  -0.045336   0.001823   0.414889
    11  H   -0.000010  -0.006864   0.005906   0.004760  -0.000729  -0.115078
    12  O    0.000463  -0.032511  -0.001473   0.083152  -0.000870  -0.135268
               7          8          9         10         11         12
     1  H   -0.006160   0.006851  -0.000184  -0.002290  -0.000010   0.000463
     2  C   -0.034687  -0.027931   0.008291  -0.047088  -0.006864  -0.032511
     3  C    0.009666  -0.038211  -0.045858  -0.026422   0.005906  -0.001473
     4  C    0.396329   0.418760  -0.000005  -0.045336   0.004760   0.083152
     5  H   -0.000237   0.000146  -0.006826   0.001823  -0.000729  -0.000870
     6  C   -0.000620   0.038067   0.401173   0.414889  -0.115078  -0.135268
     7  H    0.537353  -0.036638   0.000018   0.001250   0.000015  -0.000287
     8  H   -0.036638   0.600499  -0.000019  -0.012409  -0.002043  -0.057973
     9  H    0.000018  -0.000019   0.570488  -0.034844  -0.000582   0.005893
    10  C    0.001250  -0.012409  -0.034844   4.668439   0.421289   0.507757
    11  H    0.000015  -0.002043  -0.000582   0.421289   0.629688  -0.036149
    12  O   -0.000287  -0.057973   0.005893   0.507757  -0.036149   7.979969
 Mulliken charges:
               1
     1  H    0.135612
     2  C   -0.195069
     3  C   -0.022807
     4  C   -0.078476
     5  H    0.139598
     6  C   -0.266246
     7  H    0.133998
     8  H    0.110900
     9  H    0.102456
    10  C    0.152942
    11  H    0.099796
    12  O   -0.312705
 Sum of Mulliken charges =  -0.00000
 Mulliken charges with hydrogens summed into heavy atoms:
               1
     2  C   -0.059457
     3  C    0.116791
     4  C    0.166422
     6  C   -0.163790
    10  C    0.252738
    12  O   -0.312705
 APT charges:
               1
     1  H    0.095128
     2  C   -0.432446
     3  C   -0.328188
     4  C   -0.597096
     5  H    0.327707
     6  C   -0.585021
     7  H    0.330350
     8  H    0.536916
     9  H    0.673047
    10  C   -0.406684
    11  H    0.746664
    12  O   -0.360377
 Sum of APT charges =  -0.00000
 APT charges with hydrogens summed into heavy atoms:
               1
     2  C   -0.337318
     3  C   -0.000481
     4  C    0.270171
     6  C    0.088026
    10  C    0.339980
    12  O   -0.360377
 Electronic spatial extent (au):  <R**2>=           1437.0365
 Charge=             -0.0000 electrons
 Dipole moment (field-independent basis, Debye):
    X=              1.1927    Y=             -0.7484    Z=             -1.1822  Tot=              1.8385
 Quadrupole moment (field-independent basis, Debye-Ang):
   XX=            -33.0411   YY=            -39.4404   ZZ=            -39.4537
   XY=              2.7374   XZ=              4.3724   YZ=             -1.3347
 Traceless Quadrupole moment (field-independent basis, Debye-Ang):
   XX=              4.2706   YY=             -2.1287   ZZ=             -2.1420
   XY=              2.7374   XZ=              4.3724   YZ=             -1.3347
 Octapole moment (field-independent basis, Debye-Ang**2):
  XXX=            -13.4911  YYY=            -76.3572  ZZZ=           -262.2141  XYY=              1.0366
  XXY=            -27.0801  XXZ=            -80.5968  XZZ=              9.9662  YZZ=            -24.0990
  YYZ=            -88.7984  XYZ=             12.1459
 Hexadecapole moment (field-independent basis, Debye-Ang**3):
 XXXX=           -251.9733 YYYY=           -272.5129 ZZZZ=          -1428.3515 XXXY=             -1.5674
 XXXZ=            -44.9052 YYYX=             16.4526 YYYZ=           -233.4219 ZZZX=             -4.4615
 ZZZY=           -212.8895 XXYY=            -97.7544 XXZZ=           -273.3146 YYZZ=           -277.7801
 XXYZ=            -84.2265 YYXZ=              3.7125 ZZXY=             44.9749
 N-N= 2.187068325017D+02 E-N=-1.064467278336D+03  KE= 2.680613726617D+02
  Exact polarizability:   0.000   0.000   0.000   0.000   0.000   0.000
 Approx polarizability: 125.301 -11.547  96.405  10.851  33.750 110.663
   1 Symmetry operations used in ECPInt.
 ECPInt:  NShTT=    4095 NPrTT=   12396 LenC2=    4075 LenP2D=   10363.
 LDataN:  DoStor=T MaxTD1= 8 Len=  415
 Calling FoFJK, ICntrl=    100147 FMM=F ISym2X=0 I1Cent= 0 IOpClX= 0 NMat=1 NMatS=1 NMatT=0.
 -------------------------------------------------------------------
 Center     Atomic                   Forces (Hartrees/Bohr)
 Number     Number              X              Y              Z
 -------------------------------------------------------------------
      1        1          -0.000176700    0.000209765    0.000091100
      2        6           0.000110338   -0.000147316    0.000227096
      3        6          -0.000042368   -0.000618017   -0.000788689
      4        6           0.000370209   -0.000437020   -0.000912162
      5        1          -0.000151213    0.000157424   -0.000061684
      6        6          -0.000735914    0.000652302    0.001107019
      7        1           0.000050917   -0.000014334   -0.000206531
      8        1           0.000112266   -0.000036287    0.000169125
      9        1           0.000170807    0.000165250   -0.000240087
     10        6           0.001461089   -0.000876358   -0.000010290
     11        1           0.000288955    0.000184559   -0.000047948
     12        8          -0.001458385    0.000760031    0.000673053
 -------------------------------------------------------------------
 Cartesian Forces:  Max     0.001461089 RMS     0.000551795
 -----------------------------------------------------------------------------------------------
                       Internal Coordinate Forces (Hartree/Bohr or radian)
  Cent   Atom   N1       Length/X         N2         Alpha/Y        N3         Beta/Z          J
 -----------------------------------------------------------------------------------------------
      1  H 
      2  C        1  -0.000091(     1)
      3  C        2  -0.000080(     2)      1  -0.002127(    12)
      4  C        2  -0.001014(     3)      1  -0.001508(    13)      3   0.000990(    22)     0
      5  H        3  -0.000145(     4)      2  -0.000211(    14)      1   0.000341(    23)     0
      6  C        3   0.001698(     5)      2   0.004339(    15)      5   0.000091(    24)     0
      7  H        4   0.000049(     6)      2  -0.000422(    16)      1   0.000230(    25)     0
      8  H        4   0.000150(     7)      2  -0.000195(    17)      7   0.000188(    26)     0
      9  H        6   0.000046(     8)      3  -0.000360(    18)      2   0.000388(    27)     0
     10  C        6   0.000004(     9)      3   0.004814(    19)      9  -0.000118(    28)     0
     11  H       10   0.000220(    10)      6  -0.000383(    20)      3   0.001409(    29)     0
     12  O       10   0.001236(    11)      6   0.002731(    21)     11   0.001049(    30)     0
 -----------------------------------------------------------------------------------------------
 Internal  Forces:  Max     0.004814191 RMS     0.001492150

 GradGradGradGradGradGradGradGradGradGradGradGradGradGradGradGradGradGrad
 Berny optimization.
 Search for a saddle point.
 Step number   1 out of a maximum of   40
 All quantities printed in internal units (Hartrees-Bohrs-Radians)
 Swapping is turned off.
 Second derivative matrix not updated -- analytic derivatives used.
 ITU=  0
     Eigenvalues ---   -0.82629   0.01720   0.02758   0.04029   0.04350
     Eigenvalues ---    0.06267   0.08948   0.11039   0.12814   0.15350
     Eigenvalues ---    0.18914   0.20170   0.23805   0.28079   0.29470
     Eigenvalues ---    0.32142   0.34510   0.35111   0.35261   0.35542
     Eigenvalues ---    0.36370   0.39206   0.41996   0.45114   0.46961
     Eigenvalues ---    0.55308   0.58341   0.70555   1.06772   2.98496
 Eigenvectors required to have negative eigenvalues:
                          A10       A6        D8        R4        R12
   1                    0.46611   0.40593   0.28094  -0.28056  -0.25482
                          D4        A12       R10       D7        A3
   1                    0.24234   0.23673   0.23017   0.19544  -0.19271
 RFO step:  Lambda0=4.057215074D-05 Lambda=-8.65723934D-05.
 Linear search not attempted -- option 19 set.
 Variable       Old X    -DE/DX   Delta X   Delta X   Delta X     New X
                                 (Linear)    (Quad)   (Total)
    R2        2.04615  -0.00009   0.00000  -0.00029  -0.00029   2.04586
    R3        2.62116  -0.00008   0.00000  -0.00361  -0.00361   2.61754
    R4        2.63126  -0.00101   0.00000   0.00178   0.00178   2.63304
    R5        2.05161  -0.00014   0.00000  -0.00059  -0.00059   2.05102
    R6        2.64761   0.00170   0.00000   0.00426   0.00426   2.65187
    R7        2.04592   0.00005   0.00000   0.00025   0.00025   2.04617
    R8        2.04330   0.00015   0.00000   0.00033   0.00033   2.04362
    R9        2.04404   0.00005   0.00000   0.00018   0.00018   2.04422
   R10        2.66516   0.00000   0.00000  -0.00531  -0.00531   2.65985
   R11        2.07294   0.00022   0.00000   0.00020   0.00020   2.07314
   R12        2.37950   0.00124   0.00000   0.00484   0.00484   2.38434
    A3        2.10505  -0.00213   0.00000  -0.00182  -0.00182   2.10323
    A4        2.11566  -0.00151   0.00000   0.00178   0.00178   2.11744
    A5        2.09337  -0.00021   0.00000  -0.00106  -0.00106   2.09230
    A6        2.11044   0.00434   0.00000   0.00031   0.00031   2.11075
    A7        2.10650  -0.00042   0.00000  -0.00274  -0.00274   2.10376
    A8        2.06709  -0.00019   0.00000  -0.00107  -0.00107   2.06603
    A9        2.08493  -0.00036   0.00000  -0.00359  -0.00359   2.08134
   A10        2.07679   0.00481   0.00000   0.00079   0.00079   2.07758
   A11        2.01859  -0.00038   0.00000   0.00037   0.00037   2.01896
   A12        2.23610   0.00273   0.00000   0.00086   0.00086   2.23696
    D4        2.96611   0.00099   0.00000   0.01474   0.01474   2.98085
    D5       -0.33373   0.00034   0.00000   0.02128   0.02128  -0.31245
    D6        2.93625   0.00009   0.00000  -0.00792  -0.00792   2.92833
    D7       -0.12538   0.00023   0.00000  -0.01557  -0.01557  -0.14095
    D8        2.65574   0.00019   0.00000  -0.00798  -0.00798   2.64775
    D9       -3.07250   0.00039   0.00000   0.01317   0.01317  -3.05933
   D10        2.68358  -0.00012   0.00000  -0.00588  -0.00588   2.67770
   D11       -2.49284   0.00141   0.00000   0.00105   0.00105  -2.49179
   D12        2.99152   0.00105   0.00000  -0.00068  -0.00068   2.99084
         Item               Value     Threshold  Converged?
 Maximum Force            0.004814     0.000450     NO 
 RMS     Force            0.001492     0.000300     NO 
 Maximum Displacement     0.021280     0.001800     NO 
 RMS     Displacement     0.006748     0.001200     NO 
 Predicted change in Energy=-2.305621D-05
 GradGradGradGradGradGradGradGradGradGradGradGradGradGradGradGradGradGrad

 ---------------------------------------------------------------------------------------------------
                            Z-MATRIX (ANGSTROMS AND DEGREES)
   CD    Cent   Atom    N1       Length/X        N2       Alpha/Y        N3        Beta/Z          J
 ---------------------------------------------------------------------------------------------------
      1      1  H 
      2      2  C        1   1.082622(     1)
      3      3  C        2   1.385144(     2)      1  120.506(    12)
      4      4  C        2   1.393346(     3)      1  121.320(    13)      3  170.790(    22)      0
      5      5  H        3   1.085355(     4)      2  119.880(    14)      1  -17.902(    23)      0
      6      6  C        3   1.403310(     5)      2  120.937(    15)      5  167.781(    24)      0
      7      7  H        4   1.082785(     6)      2  120.537(    16)      1   -8.076(    25)      0
      8      8  H        4   1.081440(     7)      2  118.375(    17)      7  151.705(    26)      0
      9      9  H        6   1.081753(     8)      3  119.252(    18)      2 -175.287(    27)      0
     10     10  C        6   1.407533(     9)      3  119.036(    19)      9  153.421(    28)      0
     11     11  H       10   1.097056(    10)      6  115.678(    20)      3 -142.769(    29)      0
     12     12  O       10   1.261739(    11)      6  128.168(    21)     11  171.363(    30)      0
 ---------------------------------------------------------------------------------------------------
                         Z-Matrix orientation:                         
 ---------------------------------------------------------------------
 Center     Atomic      Atomic             Coordinates (Angstroms)
 Number     Number       Type             X           Y           Z
 ---------------------------------------------------------------------
      1          1           0        0.000000    0.000000    0.000000
      2          6           0        0.000000    0.000000    1.082622
      3          6           0        1.193405    0.000000    1.785765
      4          6           0       -1.174955    0.190510    1.806915
      5          1           0        2.113858   -0.289276    1.288692
      6          6           0        1.286470    0.604026    3.049002
      7          1           0       -2.091704    0.471877    1.304096
      8          1           0       -1.305516   -0.359944    2.728580
      9          1           0        2.248725    0.655964    3.540487
     10          6           0        0.346720    1.589166    3.406102
     11          1           0        0.737186    2.426285    3.997963
     12          8           0       -0.845578    1.709028    3.011078
 ---------------------------------------------------------------------
                    Distance matrix (angstroms):
                    1          2          3          4          5
     1  H    0.000000
     2  C    1.082622   0.000000
     3  C    2.147829   1.385144   0.000000
     4  C    2.163736   1.393346   2.376104   0.000000
     5  H    2.492550   2.143488   1.085355   3.363784   0.000000
     6  C    3.363966   2.426212   1.403310   2.787901   2.140386
     7  H    2.509693   2.155677   3.353597   1.082785   4.273915
     8  H    3.046158   2.131457   2.695008   1.081440   3.710848
     9  H    4.245245   3.395313   2.150125   3.865683   2.445864
    10  C    3.774546   2.836234   2.422358   2.613261   3.336877
    11  H    4.734344   3.863873   3.314938   3.668197   4.075494
    12  O    3.564038   2.711959   2.929099   1.965807   3.964605
                    6          7          8          9         10
     6  C    0.000000
     7  H    3.804500   0.000000
     8  H    2.783936   1.827340   0.000000
     9  H    1.081753   4.886170   3.784692   0.000000
    10  C    1.407533   3.407737   2.643473   2.122863   0.000000
    11  H    2.126703   4.367980   3.680630   2.372356   1.097056
    12  O    2.401686   2.448910   2.138222   3.311183   1.261739
                   11         12
    11  H    0.000000
    12  O    1.998385   0.000000
 Symmetry turned off by external request.
 Stoichiometry    C5H6O
 Framework group  C1[X(C5H6O)]
 Deg. of freedom    30
 Full point group                 C1      NOp   1
 Rotational constants (GHZ):           5.5346701           4.6773167           2.7010332
 Standard basis: def2TZVP (5D, 7F)
 The following finite field(s) will be applied:
 An electric field of             -0.0024  0.0003  0.0044
   222 basis functions,   354 primitive gaussians,   252 cartesian basis functions
    22 alpha electrons       22 beta electrons
       nuclear repulsion energy       217.8171562312 Hartrees.
 NAtoms=   12 NActive=   12 NUniq=   12 SFac= 1.00D+00 NAtFMM=   60 NAOKFM=F Big=F
 Integral buffers will be    131072 words long.
 Raffenetti 2 integral format.
 Two-electron integral symmetry is turned off.
 One-electron integrals computed using PRISM.
   1 Symmetry operations used in ECPInt.
 ECPInt:  NShTT=    4095 NPrTT=   12396 LenC2=    4075 LenP2D=   10360.
 LDataN:  DoStor=T MaxTD1= 6 Len=  172
 NBasis=   222 RedAO= T EigKep=  1.16D-04  NBF=   222
 NBsUse=   222 1.00D-06 EigRej= -1.00D+00 NBFU=   222
 The nuclear repulsion energy is now       218.6741018200 hartrees.
 Initial guess from the checkpoint file:  "checkpoint.chk"
 B after Tr=    -0.007215    0.032508   -0.001450
         Rot=    0.999957   -0.007617   -0.001174   -0.005193 Ang=  -1.06 deg.
 ExpMin= 9.52D-02 ExpMax= 2.70D+04 ExpMxC= 9.22D+02 IAcc=2 IRadAn=         4 AccDes= 0.00D+00
 Harris functional with IExCor=  402 and IRadAn=       4 diagonalized for initial guess.
 HarFok:  IExCor=  402 AccDes= 0.00D+00 IRadAn=         4 IDoV= 1 UseB2=F ITyADJ=14
 ICtDFT=  3500011 ScaDFX=  1.000000  1.000000  1.000000  1.000000
 FoFCou: FMM=F IPFlag=           0 FMFlag=      100000 FMFlg1=           0
         NFxFlg=           0 DoJE=T BraDBF=F KetDBF=T FulRan=T
         wScrn=  0.000000 ICntrl=       500 IOpCl=  0 I1Cent=   200000004 NGrid=           0
         NMat0=    1 NMatS0=      1 NMatT0=    0 NMatD0=    1 NMtDS0=    0 NMtDT0=    0
 Symmetry not used in FoFCou.
 Keep R1 ints in memory in canonical form, NReq=319363861.
 Requested convergence on RMS density matrix=1.00D-08 within 128 cycles.
 Requested convergence on MAX density matrix=1.00D-06.
 Requested convergence on             energy=1.00D-06.
 No special actions if energy rises.
 Integral accuracy reduced to 1.0D-05 until final iterations.
 Initial convergence to 1.0D-05 achieved.  Increase integral accuracy.
 SCF Done:  E(RB3LYP) =  -269.394227222     A.U. after   12 cycles
            NFock= 12  Conv=0.33D-08     -V/T= 2.0050
   1 Symmetry operations used in ECPInt.
 ECPInt:  NShTT=    4095 NPrTT=   12396 LenC2=    4075 LenP2D=   10360.
 LDataN:  DoStor=T MaxTD1= 7 Len=  274
 Calling FoFJK, ICntrl=      2127 FMM=F ISym2X=0 I1Cent= 0 IOpClX= 0 NMat=1 NMatS=1 NMatT=0.
 -------------------------------------------------------------------
 Center     Atomic                   Forces (Hartrees/Bohr)
 Number     Number              X              Y              Z
 -------------------------------------------------------------------
      1        1          -0.000444411    0.000698120   -0.000000445
      2        6           0.000437637   -0.000920158   -0.000002860
      3        6           0.000019004    0.000239732   -0.000005168
      4        6          -0.000018617   -0.000016678    0.000007774
      5        1           0.000000676   -0.000004374    0.000000549
      6        6           0.000006981   -0.000011330    0.000004791
      7        1          -0.000000113    0.000004405   -0.000000447
      8        1          -0.000000316   -0.000007465   -0.000004665
      9        1           0.000001191    0.000001102   -0.000000322
     10        6           0.000009921    0.000014449    0.000017431
     11        1           0.000000442    0.000000030    0.000002898
     12        8          -0.000012395    0.000002167   -0.000019535
 -------------------------------------------------------------------
 Cartesian Forces:  Max     0.000920158 RMS     0.000222556
 -----------------------------------------------------------------------------------------------
                       Internal Coordinate Forces (Hartree/Bohr or radian)
  Cent   Atom   N1       Length/X         N2         Alpha/Y        N3         Beta/Z          J
 -----------------------------------------------------------------------------------------------
      1  H 
      2  C        1   0.000000(     1)
      3  C        2   0.000023(     2)      1  -0.000010(    12)
      4  C        2   0.000015(     3)      1  -0.000014(    13)      3   0.000045(    22)     0
      5  H        3   0.000001(     4)      2   0.000000(    14)      1  -0.000040(    23)     0
      6  C        3   0.000008(     5)      2  -0.000009(    15)      5  -0.000032(    24)     0
      7  H        4   0.000001(     6)      2  -0.000001(    16)      1  -0.000022(    25)     0
      8  H        4  -0.000000(     7)      2  -0.000007(    17)      7  -0.000015(    26)     0
      9  H        6   0.000001(     8)      3  -0.000000(    18)      2  -0.000040(    27)     0
     10  C        6   0.000013(     9)      3  -0.000020(    19)      9  -0.000042(    28)     0
     11  H       10   0.000002(    10)      6  -0.000001(    20)      3  -0.000027(    29)     0
     12  O       10   0.000018(    11)      6  -0.000019(    21)     11  -0.000023(    30)     0
 -----------------------------------------------------------------------------------------------
 Internal  Forces:  Max     0.000044620 RMS     0.000020320

 GradGradGradGradGradGradGradGradGradGradGradGradGradGradGradGradGradGrad
 Berny optimization.
 Search for a saddle point.
 Step number   2 out of a maximum of   40
 All quantities printed in internal units (Hartrees-Bohrs-Radians)
 Swapping is turned off.
 Update second derivatives using D2CorN and points    1    2
 ITU=  0  0
     Eigenvalues ---   -0.82636   0.01697   0.02760   0.04035   0.04353
     Eigenvalues ---    0.06262   0.08947   0.11039   0.12815   0.15350
     Eigenvalues ---    0.18914   0.20172   0.23808   0.28079   0.29470
     Eigenvalues ---    0.32142   0.34510   0.35111   0.35261   0.35543
     Eigenvalues ---    0.36370   0.39207   0.42000   0.45116   0.46965
     Eigenvalues ---    0.55310   0.58344   0.70553   1.06775   2.98496
 Eigenvectors required to have negative eigenvalues:
                          A10       A6        D8        R4        R12
   1                    0.46612   0.40594   0.28097  -0.28056  -0.25485
                          D4        A12       R10       D7        A3
   1                    0.24216   0.23675   0.23015   0.19555  -0.19269
 RFO step:  Lambda0=2.302080748D-10 Lambda=-2.44975839D-08.
 Linear search not attempted -- option 19 set.
 Variable       Old X    -DE/DX   Delta X   Delta X   Delta X     New X
                                 (Linear)    (Quad)   (Total)
    R2        2.04586   0.00000   0.00000  -0.00000  -0.00000   2.04586
    R3        2.61754   0.00002   0.00000   0.00003   0.00003   2.61757
    R4        2.63304   0.00001   0.00000   0.00000   0.00000   2.63304
    R5        2.05102   0.00000   0.00000  -0.00000  -0.00000   2.05102
    R6        2.65187   0.00001   0.00000   0.00002   0.00002   2.65189
    R7        2.04617   0.00000   0.00000   0.00000   0.00000   2.04617
    R8        2.04362  -0.00000   0.00000   0.00000   0.00000   2.04363
    R9        2.04422   0.00000   0.00000   0.00000   0.00000   2.04422
   R10        2.65985   0.00001   0.00000   0.00005   0.00005   2.65990
   R11        2.07314   0.00000   0.00000   0.00000   0.00000   2.07314
   R12        2.38434   0.00002   0.00000   0.00002   0.00002   2.38436
    A3        2.10323  -0.00001   0.00000   0.00009   0.00009   2.10331
    A4        2.11744  -0.00001   0.00000  -0.00004  -0.00004   2.11740
    A5        2.09230   0.00000   0.00000   0.00002   0.00002   2.09233
    A6        2.11075  -0.00001   0.00000  -0.00004  -0.00004   2.11071
    A7        2.10376  -0.00000   0.00000  -0.00001  -0.00001   2.10376
    A8        2.06603  -0.00001   0.00000   0.00002   0.00002   2.06605
    A9        2.08134  -0.00000   0.00000   0.00000   0.00000   2.08134
   A10        2.07758  -0.00002   0.00000  -0.00001  -0.00001   2.07757
   A11        2.01896  -0.00000   0.00000   0.00001   0.00001   2.01897
   A12        2.23696  -0.00002   0.00000  -0.00003  -0.00003   2.23693
    D4        2.98085   0.00004   0.00000   0.00060   0.00060   2.98145
    D5       -0.31245  -0.00004   0.00000   0.00029   0.00029  -0.31216
    D6        2.92833  -0.00003   0.00000   0.00011   0.00011   2.92845
    D7       -0.14095  -0.00002   0.00000  -0.00052  -0.00052  -0.14146
    D8        2.64775  -0.00001   0.00000   0.00014   0.00014   2.64789
    D9       -3.05933  -0.00004   0.00000   0.00001   0.00001  -3.05932
   D10        2.67770  -0.00004   0.00000  -0.00002  -0.00002   2.67768
   D11       -2.49179  -0.00003   0.00000  -0.00002  -0.00002  -2.49181
   D12        2.99084  -0.00002   0.00000   0.00000   0.00000   2.99084
         Item               Value     Threshold  Converged?
 Maximum Force            0.000045     0.000450     YES
 RMS     Force            0.000020     0.000300     YES
 Maximum Displacement     0.000601     0.001800     YES
 RMS     Displacement     0.000159     0.001200     YES
 Predicted change in Energy=-1.213369D-08
 Optimization completed.
    -- Stationary point found.
                       ----------------------------
                       !   Optimized Parameters   !
                       ! (Angstroms and Degrees)  !
 ----------------------                            ----------------------
 !      Name          Value   Derivative information (Atomic Units)     !
 ------------------------------------------------------------------------
 !       R2          1.0826   -DE/DX =    0.0                           !
 !       R3          1.3851   -DE/DX =    0.0                           !
 !       R4          1.3933   -DE/DX =    0.0                           !
 !       R5          1.0854   -DE/DX =    0.0                           !
 !       R6          1.4033   -DE/DX =    0.0                           !
 !       R7          1.0828   -DE/DX =    0.0                           !
 !       R8          1.0814   -DE/DX =    0.0                           !
 !       R9          1.0818   -DE/DX =    0.0                           !
 !       R10         1.4075   -DE/DX =    0.0                           !
 !       R11         1.0971   -DE/DX =    0.0                           !
 !       R12         1.2617   -DE/DX =    0.0                           !
 !       A3        120.5062   -DE/DX =    0.0                           !
 !       A4        121.3203   -DE/DX =    0.0                           !
 !       A5        119.8801   -DE/DX =    0.0                           !
 !       A6        120.9373   -DE/DX =    0.0                           !
 !       A7        120.5368   -DE/DX =    0.0                           !
 !       A8        118.3746   -DE/DX =    0.0                           !
 !       A9        119.2518   -DE/DX =    0.0                           !
 !       A10       119.0364   -DE/DX =    0.0                           !
 !       A11       115.6778   -DE/DX =    0.0                           !
 !       A12       128.1681   -DE/DX =    0.0                           !
 !       D4        170.7901   -DE/DX =    0.0                           !
 !       D5        -17.9019   -DE/DX =    0.0                           !
 !       D6        167.7811   -DE/DX =    0.0                           !
 !       D7         -8.0757   -DE/DX =    0.0                           !
 !       D8        151.7051   -DE/DX =    0.0                           !
 !       D9       -175.2866   -DE/DX =    0.0                           !
 !       D10       153.4208   -DE/DX =    0.0                           !
 !       D11      -142.769    -DE/DX =    0.0                           !
 !       D12       171.3626   -DE/DX =    0.0                           !
 ------------------------------------------------------------------------
 GradGradGradGradGradGradGradGradGradGradGradGradGradGradGradGradGradGrad

 ---------------------------------------------------------------------------------------------------
                            Z-MATRIX (ANGSTROMS AND DEGREES)
   CD    Cent   Atom    N1       Length/X        N2       Alpha/Y        N3        Beta/Z          J
 ---------------------------------------------------------------------------------------------------
      1      1  H 
      2      2  C        1   1.082622(     1)
      3      3  C        2   1.385144(     2)      1  120.506(    12)
      4      4  C        2   1.393346(     3)      1  121.320(    13)      3  170.790(    22)      0
      5      5  H        3   1.085355(     4)      2  119.880(    14)      1  -17.902(    23)      0
      6      6  C        3   1.403310(     5)      2  120.937(    15)      5  167.781(    24)      0
      7      7  H        4   1.082785(     6)      2  120.537(    16)      1   -8.076(    25)      0
      8      8  H        4   1.081440(     7)      2  118.375(    17)      7  151.705(    26)      0
      9      9  H        6   1.081753(     8)      3  119.252(    18)      2 -175.287(    27)      0
     10     10  C        6   1.407533(     9)      3  119.036(    19)      9  153.421(    28)      0
     11     11  H       10   1.097056(    10)      6  115.678(    20)      3 -142.769(    29)      0
     12     12  O       10   1.261739(    11)      6  128.168(    21)     11  171.363(    30)      0
 ---------------------------------------------------------------------------------------------------
                         Z-Matrix orientation:                         
 ---------------------------------------------------------------------
 Center     Atomic      Atomic             Coordinates (Angstroms)
 Number     Number       Type             X           Y           Z
 ---------------------------------------------------------------------
      1          1           0        0.000000    0.000000    0.000000
      2          6           0        0.000000    0.000000    1.082622
      3          6           0        1.193405    0.000000    1.785765
      4          6           0       -1.174955    0.190510    1.806915
      5          1           0        2.113858   -0.289276    1.288692
      6          6           0        1.286470    0.604026    3.049002
      7          1           0       -2.091704    0.471877    1.304096
      8          1           0       -1.305516   -0.359944    2.728580
      9          1           0        2.248725    0.655964    3.540487
     10          6           0        0.346720    1.589166    3.406102
     11          1           0        0.737186    2.426285    3.997963
     12          8           0       -0.845578    1.709028    3.011078
 ---------------------------------------------------------------------
                    Distance matrix (angstroms):
                    1          2          3          4          5
     1  H    0.000000
     2  C    1.082622   0.000000
     3  C    2.147829   1.385144   0.000000
     4  C    2.163736   1.393346   2.376104   0.000000
     5  H    2.492550   2.143488   1.085355   3.363784   0.000000
     6  C    3.363966   2.426212   1.403310   2.787901   2.140386
     7  H    2.509693   2.155677   3.353597   1.082785   4.273915
     8  H    3.046158   2.131457   2.695008   1.081440   3.710848
     9  H    4.245245   3.395313   2.150125   3.865683   2.445864
    10  C    3.774546   2.836234   2.422358   2.613261   3.336877
    11  H    4.734344   3.863873   3.314938   3.668197   4.075494
    12  O    3.564038   2.711959   2.929099   1.965807   3.964605
                    6          7          8          9         10
     6  C    0.000000
     7  H    3.804500   0.000000
     8  H    2.783936   1.827340   0.000000
     9  H    1.081753   4.886170   3.784692   0.000000
    10  C    1.407533   3.407737   2.643473   2.122863   0.000000
    11  H    2.126703   4.367980   3.680630   2.372356   1.097056
    12  O    2.401686   2.448910   2.138222   3.311183   1.261739
                   11         12
    11  H    0.000000
    12  O    1.998385   0.000000
 Symmetry turned off by external request.
 Stoichiometry    C5H6O
 Framework group  C1[X(C5H6O)]
 Deg. of freedom    30
 Full point group                 C1      NOp   1
 Rotational constants (GHZ):           5.5346701           4.6773167           2.7010332

 **********************************************************************

            Population analysis using the SCF density.

 **********************************************************************

 Alpha  occ. eigenvalues --  -19.16263 -10.27182 -10.24113 -10.21275 -10.19023
 Alpha  occ. eigenvalues --  -10.18440  -1.06580  -0.84603  -0.77616  -0.68611
 Alpha  occ. eigenvalues --   -0.62644  -0.54545  -0.52724  -0.48975  -0.47830
 Alpha  occ. eigenvalues --   -0.46170  -0.41458  -0.40079  -0.39343  -0.34504
 Alpha  occ. eigenvalues --   -0.30866  -0.23394
 Alpha virt. eigenvalues --   -0.08733  -0.01997   0.03030   0.03580   0.05366
 Alpha virt. eigenvalues --    0.06144   0.07810   0.09814   0.11018   0.13688
 Alpha virt. eigenvalues --    0.16032   0.17885   0.18492   0.19222   0.20850
 Alpha virt. eigenvalues --    0.21056   0.23039   0.25917   0.26118   0.27319
 Alpha virt. eigenvalues --    0.28677   0.31711   0.32092   0.34373   0.36100
 Alpha virt. eigenvalues --    0.38071   0.38716   0.40299   0.40768   0.41962
 Alpha virt. eigenvalues --    0.42593   0.43493   0.43988   0.46283   0.47824
 Alpha virt. eigenvalues --    0.50901   0.52148   0.52726   0.55264   0.56538
 Alpha virt. eigenvalues --    0.60227   0.63936   0.66787   0.67731   0.73355
 Alpha virt. eigenvalues --    0.78171   0.80619   0.85169   0.85421   0.87972
 Alpha virt. eigenvalues --    0.91305   0.91998   0.94449   0.95105   0.95945
 Alpha virt. eigenvalues --    0.99229   1.02025   1.05255   1.08920   1.10332
 Alpha virt. eigenvalues --    1.13096   1.15477   1.17675   1.21726   1.21867
 Alpha virt. eigenvalues --    1.27108   1.29412   1.32894   1.37285   1.37947
 Alpha virt. eigenvalues --    1.41326   1.42181   1.44529   1.46157   1.49617
 Alpha virt. eigenvalues --    1.51497   1.55863   1.58384   1.61552   1.62943
 Alpha virt. eigenvalues --    1.65153   1.66897   1.71802   1.76101   1.76842
 Alpha virt. eigenvalues --    1.79540   1.81130   1.83657   1.86911   1.89781
 Alpha virt. eigenvalues --    1.92537   1.95320   2.03137   2.05224   2.08897
 Alpha virt. eigenvalues --    2.13186   2.13711   2.17568   2.19077   2.24259
 Alpha virt. eigenvalues --    2.26332   2.30438   2.35756   2.39112   2.42523
 Alpha virt. eigenvalues --    2.47857   2.49871   2.51012   2.52851   2.54391
 Alpha virt. eigenvalues --    2.57035   2.59871   2.61248   2.63996   2.66700
 Alpha virt. eigenvalues --    2.68401   2.69087   2.75317   2.76361   2.77794
 Alpha virt. eigenvalues --    2.80267   2.82071   2.83021   2.84721   2.87646
 Alpha virt. eigenvalues --    2.89946   2.93190   2.94293   2.96300   3.00002
 Alpha virt. eigenvalues --    3.01096   3.02827   3.04897   3.10191   3.11895
 Alpha virt. eigenvalues --    3.13174   3.15208   3.17750   3.21412   3.21818
 Alpha virt. eigenvalues --    3.22971   3.25965   3.27208   3.33428   3.33944
 Alpha virt. eigenvalues --    3.37552   3.40042   3.41742   3.44209   3.46323
 Alpha virt. eigenvalues --    3.47843   3.50699   3.56601   3.61683   3.62048
 Alpha virt. eigenvalues --    3.66964   3.83524   3.88659   3.90382   3.92117
 Alpha virt. eigenvalues --    3.95899   4.00348   4.01713   4.06336   4.09711
 Alpha virt. eigenvalues --    4.14474   4.16185   4.24066   4.29117   4.30961
 Alpha virt. eigenvalues --    4.37322   4.42256   4.46168   4.52579   4.62948
 Alpha virt. eigenvalues --    4.65162   4.70324   4.79298   4.84151   4.84864
 Alpha virt. eigenvalues --    5.04021   5.13294   5.23000   5.26837   5.49578
 Alpha virt. eigenvalues --    5.59294   5.96698   6.18930   6.31343   6.48571
 Alpha virt. eigenvalues --    6.70638   6.76351   6.95334   7.06171  22.04030
 Alpha virt. eigenvalues --   22.32383  22.48382  22.68420  22.85801  43.78659
          Condensed to atoms (all electrons):
               1          2          3          4          5          6
     1  H    0.527397   0.414365  -0.043575  -0.035418  -0.004240   0.006692
     2  C    0.414365   4.970205   0.501414   0.514982  -0.032986  -0.033308
     3  C   -0.043575   0.501414   4.881717  -0.088394   0.413347   0.458029
     4  C   -0.035418   0.514982  -0.088394   4.826616   0.009405  -0.009967
     5  H   -0.004240  -0.032986   0.413347   0.009405   0.527138  -0.045621
     6  C    0.006692  -0.033308   0.458029  -0.009967  -0.045621   5.280096
     7  H   -0.006154  -0.034775   0.009661   0.396086  -0.000240  -0.000665
     8  H    0.006810  -0.028448  -0.037635   0.419454   0.000135   0.037269
     9  H   -0.000188   0.008133  -0.045995  -0.000009  -0.006843   0.401010
    10  C   -0.002237  -0.046000  -0.028319  -0.045718   0.001825   0.418875
    11  H   -0.000006  -0.006768   0.005724   0.004750  -0.000726  -0.114113
    12  O    0.000518  -0.031042  -0.002626   0.084803  -0.000864  -0.133611
               7          8          9         10         11         12
     1  H   -0.006154   0.006810  -0.000188  -0.002237  -0.000006   0.000518
     2  C   -0.034775  -0.028448   0.008133  -0.046000  -0.006768  -0.031042
     3  C    0.009661  -0.037635  -0.045995  -0.028319   0.005724  -0.002626
     4  C    0.396086   0.419454  -0.000009  -0.045718   0.004750   0.084803
     5  H   -0.000240   0.000135  -0.006843   0.001825  -0.000726  -0.000864
     6  C   -0.000665   0.037269   0.401010   0.418875  -0.114113  -0.133611
     7  H    0.537611  -0.036742   0.000020   0.001297   0.000022  -0.000296
     8  H   -0.036742   0.600404  -0.000039  -0.012266  -0.002009  -0.058059
     9  H    0.000020  -0.000039   0.570540  -0.034415  -0.000643   0.005934
    10  C    0.001297  -0.012266  -0.034415   4.668743   0.421252   0.504532
    11  H    0.000022  -0.002009  -0.000643   0.421252   0.629048  -0.036248
    12  O   -0.000296  -0.058059   0.005934   0.504532  -0.036248   7.982214
 Mulliken charges:
               1
     1  H    0.136036
     2  C   -0.195771
     3  C   -0.023349
     4  C   -0.076590
     5  H    0.139670
     6  C   -0.264686
     7  H    0.134177
     8  H    0.111125
     9  H    0.102494
    10  C    0.152431
    11  H    0.099717
    12  O   -0.315255
 Sum of Mulliken charges =  -0.00000
 Mulliken charges with hydrogens summed into heavy atoms:
               1
     2  C   -0.059735
     3  C    0.116321
     4  C    0.168712
     6  C   -0.162191
    10  C    0.252148
    12  O   -0.315255
 Electronic spatial extent (au):  <R**2>=           1440.5028
 Charge=             -0.0000 electrons
 Dipole moment (field-independent basis, Debye):
    X=              1.1930    Y=             -0.7422    Z=             -1.2372  Tot=              1.8721
 Quadrupole moment (field-independent basis, Debye-Ang):
   XX=            -33.0739   YY=            -39.3607   ZZ=            -39.7375
   XY=              2.7682   XZ=              4.4187   YZ=             -1.3589
 Traceless Quadrupole moment (field-independent basis, Debye-Ang):
   XX=              4.3168   YY=             -1.9700   ZZ=             -2.3468
   XY=              2.7682   XZ=              4.4187   YZ=             -1.3589
 Octapole moment (field-independent basis, Debye-Ang**2):
  XXX=            -12.7740  YYY=            -74.3370  ZZZ=           -264.3451  XYY=              0.9185
  XXY=            -26.5192  XXZ=            -81.2085  XZZ=             10.4656  YZZ=            -23.6767
  YYZ=            -89.0035  XYZ=             12.2462
 Hexadecapole moment (field-independent basis, Debye-Ang**3):
 XXXX=           -252.3948 YYYY=           -262.7461 ZZZZ=          -1445.2999 XXXY=             -0.8341
 XXXZ=            -42.5317 YYYX=             15.8502 YYYZ=           -229.4940 ZZZX=             -0.9849
 ZZZY=           -209.8629 XXYY=            -96.4578 XXZZ=           -276.8577 YYZZ=           -278.3269
 XXYZ=            -83.2996 YYXZ=              3.6366 ZZXY=             45.5731
 N-N= 2.186741018200D+02 E-N=-1.064395450771D+03  KE= 2.680563628631D+02
 1\1\GINC-BHC0107\FTS\RB3LYP\def2TZVP\C5H6O1\DHANAWAY\18-Mar-2022\1\\# 
 Opt=(TS, CalcFC, noeigentest, Z-matrix, MaxStep=10) geom=allcheckpoint
  guess=read Field=read NoSymm B3LYP/Def2TZVP\\ts_zmat_initalOpt\\0,1\H
 \C,1,R2\C,2,R3,1,A3\C,2,R4,1,A4,3,D4,0\H,3,R5,2,A5,1,D5,0\C,3,R6,2,A6,
 5,D6,0\H,4,R7,2,A7,1,D7,0\H,4,R8,2,A8,7,D8,0\H,6,R9,3,A9,2,D9,0\C,6,R1
 0,3,A10,9,D10,0\H,10,R11,6,A11,3,D11,0\O,10,R12,6,A12,11,D12,0\\R2=1.0
 8262215\R3=1.3851444\R4=1.39334632\R5=1.08535533\R6=1.4033096\R7=1.082
 78459\R8=1.08143972\R9=1.08175322\R10=1.40753319\R11=1.09705598\R12=1.
 26173939\A3=120.50617574\A4=121.32034376\A5=119.88008382\A6=120.937302
 04\A7=120.53676481\A8=118.37456121\A9=119.2518119\A10=119.03636228\A11
 =115.6778277\A12=128.1681375\D4=170.79009675\D5=-17.90186719\D6=167.78
 111662\D7=-8.07567202\D8=151.70506059\D9=-175.28664648\D10=153.4207785
 8\D11=-142.76898576\D12=171.36257006\\Version=ES64L-G16RevA.03\HF=-269
 .3942272\RMSD=3.254e-09\RMSF=2.226e-04\Dipole=0.4693614,-0.2919986,-0.
 4867566\Quadrupole=3.2094541,-1.4646533,-1.7448008,2.0580628,3.2851959
 ,-1.0103441\PG=C01 [X(C5H6O1)]\\@


 LENDING MONEY TO FRIENDS CAUSES THEM TO LOSE THEIR MEMORIES.

    --  PETER'S THEORY OF RECIPROCAL INHIBITION OF FISCAL RECALL
 Job cpu time:       0 days  0 hours 35 minutes 58.0 seconds.
 Elapsed time:       0 days  0 hours  3 minutes 12.5 seconds.
 File lengths (MBytes):  RWF=     53 Int=      0 D2E=      0 Chk=     32 Scr=      1
 Normal termination of Gaussian 16 at Fri Mar 18 11:09:34 2022.
