 Entering Gaussian System, Link 0=g16
 Input=int_zmat_field_N75.gjf
 Output=int_zmat_field_N75.out
 Initial command:
 /software/gaussian/g16-a03/l1.exe "/local_scratch/11171266/Gau-1585.inp" -scrdir="/local_scratch/11171266/"
 Entering Link 1 = /software/gaussian/g16-a03/l1.exe PID=      1586.
  
 Copyright (c) 1988,1990,1992,1993,1995,1998,2003,2009,2016,
            Gaussian, Inc.  All Rights Reserved.
  
 This is part of the Gaussian(R) 16 program.  It is based on
 the Gaussian(R) 09 system (copyright 2009, Gaussian, Inc.),
 the Gaussian(R) 03 system (copyright 2003, Gaussian, Inc.),
 the Gaussian(R) 98 system (copyright 1998, Gaussian, Inc.),
 the Gaussian(R) 94 system (copyright 1995, Gaussian, Inc.),
 the Gaussian 92(TM) system (copyright 1992, Gaussian, Inc.),
 the Gaussian 90(TM) system (copyright 1990, Gaussian, Inc.),
 the Gaussian 88(TM) system (copyright 1988, Gaussian, Inc.),
 the Gaussian 86(TM) system (copyright 1986, Carnegie Mellon
 University), and the Gaussian 82(TM) system (copyright 1983,
 Carnegie Mellon University). Gaussian is a federally registered
 trademark of Gaussian, Inc.
  
 This software contains proprietary and confidential information,
 including trade secrets, belonging to Gaussian, Inc.
  
 This software is provided under written license and may be
 used, copied, transmitted, or stored only in accord with that
 written license.
  
 The following legend is applicable only to US Government
 contracts under FAR:
  
                    RESTRICTED RIGHTS LEGEND
  
 Use, reproduction and disclosure by the US Government is
 subject to restrictions as set forth in subparagraphs (a)
 and (c) of the Commercial Computer Software - Restricted
 Rights clause in FAR 52.227-19.
  
 Gaussian, Inc.
 340 Quinnipiac St., Bldg. 40, Wallingford CT 06492
  
  
 ---------------------------------------------------------------
 Warning -- This program may not be used in any manner that
 competes with the business of Gaussian, Inc. or will provide
 assistance to any competitor of Gaussian, Inc.  The licensee
 of this program is prohibited from giving any competitor of
 Gaussian, Inc. access to this program.  By using this program,
 the user acknowledges that Gaussian, Inc. is engaged in the
 business of creating and licensing software in the field of
 computational chemistry and represents and warrants to the
 licensee that it is not a competitor of Gaussian, Inc. and that
 it will not use this program in any manner prohibited above.
 ---------------------------------------------------------------
  

 Cite this work as:
 Gaussian 16, Revision A.03,
 M. J. Frisch, G. W. Trucks, H. B. Schlegel, G. E. Scuseria, 
 M. A. Robb, J. R. Cheeseman, G. Scalmani, V. Barone, 
 G. A. Petersson, H. Nakatsuji, X. Li, M. Caricato, A. V. Marenich, 
 J. Bloino, B. G. Janesko, R. Gomperts, B. Mennucci, H. P. Hratchian, 
 J. V. Ortiz, A. F. Izmaylov, J. L. Sonnenberg, D. Williams-Young, 
 F. Ding, F. Lipparini, F. Egidi, J. Goings, B. Peng, A. Petrone, 
 T. Henderson, D. Ranasinghe, V. G. Zakrzewski, J. Gao, N. Rega, 
 G. Zheng, W. Liang, M. Hada, M. Ehara, K. Toyota, R. Fukuda, 
 J. Hasegawa, M. Ishida, T. Nakajima, Y. Honda, O. Kitao, H. Nakai, 
 T. Vreven, K. Throssell, J. A. Montgomery, Jr., J. E. Peralta, 
 F. Ogliaro, M. J. Bearpark, J. J. Heyd, E. N. Brothers, K. N. Kudin, 
 V. N. Staroverov, T. A. Keith, R. Kobayashi, J. Normand, 
 K. Raghavachari, A. P. Rendell, J. C. Burant, S. S. Iyengar, 
 J. Tomasi, M. Cossi, J. M. Millam, M. Klene, C. Adamo, R. Cammi, 
 J. W. Ochterski, R. L. Martin, K. Morokuma, O. Farkas, 
 J. B. Foresman, and D. J. Fox, Gaussian, Inc., Wallingford CT, 2016.
 
 ******************************************
 Gaussian 16:  ES64L-G16RevA.03 25-Dec-2016
                10-Jun-2022 
 ******************************************
 %nprocshared=12
 Will use up to   12 processors via shared memory.
 %chk=checkpoint.chk
 %mem=12GB
 ----------------------------------------------------------------------
 # Opt=(Z-matrix, MaxStep=10) B3LYP/Def2TZVP geom=allcheckpoint guess=r
 ead Field=read NoSymm freq=noraman pop=none
 ----------------------------------------------------------------------
 1/8=10,10=7,18=40,26=3,29=7,38=1/1,3;
 2/12=2,15=1,29=3,40=1/2;
 3/5=44,7=101,11=2,14=-6,25=1,30=1,71=1,74=-5,116=-2/1,2,3;
 4/5=1/1;
 5/5=2,38=6/2;
 7/29=1,30=1/1,2,3,16;
 1/8=10,10=7,18=40,26=3/3(2);
 2/15=1,29=3/2;
 99//99;
 2/15=1,29=3/2;
 3/5=44,7=101,11=2,14=-2,25=1,30=1,71=1,74=-5/1,2,3;
 4/5=5,16=3,69=1/1;
 5/5=2,38=5/2;
 7/30=1/1,2,3,16;
 1/8=10,18=40,26=3/3(-5);
 2/15=1,29=3/2;
 99/9=1/99;
 Structure from the checkpoint file:  "checkpoint.chk"
 ------------------
 int_zmat_initalOpt
 ------------------
 Charge =  0 Multiplicity = 1
 Z-Matrix found in chk file.
 C
 C,1,R2
 C,1,R3,2,A3
 H,1,R4,2,A4,3,D4,0
 C,2,R5,1,A5,3,D5,0
 N,3,R6,1,A6,2,D6,0
 H,3,R7,1,A7,6,D7,0
 H,2,R8,1,A8,5,D8,0
 H,5,R9,2,A9,1,D9,0
 H,6,R10,3,A10,1,D10,0
      Variables:
 R2=1.42076208
 R3=1.3731062
 R4=1.07721941
 R5=1.37241507
 R6=1.37322362
 R7=1.07676214
 R8=1.07716725
 R9=1.07663211
 R10=1.00279109
 A3=107.45330774
 A4=126.60182078
 A5=107.48917049
 A6=107.6776313
 A7=130.94966929
 A8=126.64267718
 A9=130.87967833
 A10=125.2303982
 D4=180.06873135
 D5=0.1070188
 D6=-0.01767891
 D7=-179.54747157
 D8=-180.25704772
 D9=-180.43639356
 D10=-178.58912275
 Recover connectivity data from disk.

 GradGradGradGradGradGradGradGradGradGradGradGradGradGradGradGradGradGrad
 Berny optimization.
 Initialization pass.
                       ----------------------------
                       !    Initial Parameters    !
                       ! (Angstroms and Degrees)  !
 ----------------------                            ----------------------
 !      Name          Value   Derivative information (Atomic Units)     !
 ------------------------------------------------------------------------
 !       R2          1.4208   estimate D2E/DX2                          !
 !       R3          1.3731   estimate D2E/DX2                          !
 !       R4          1.0772   estimate D2E/DX2                          !
 !       R5          1.3724   estimate D2E/DX2                          !
 !       R6          1.3732   estimate D2E/DX2                          !
 !       R7          1.0768   estimate D2E/DX2                          !
 !       R8          1.0772   estimate D2E/DX2                          !
 !       R9          1.0766   estimate D2E/DX2                          !
 !       R10         1.0028   estimate D2E/DX2                          !
 !       A3        107.4533   estimate D2E/DX2                          !
 !       A4        126.6018   estimate D2E/DX2                          !
 !       A5        107.4892   estimate D2E/DX2                          !
 !       A6        107.6776   estimate D2E/DX2                          !
 !       A7        130.9497   estimate D2E/DX2                          !
 !       A8        126.6427   estimate D2E/DX2                          !
 !       A9        130.8797   estimate D2E/DX2                          !
 !       A10       125.2304   estimate D2E/DX2                          !
 !       D4        180.0687   estimate D2E/DX2                          !
 !       D5          0.107    estimate D2E/DX2                          !
 !       D6         -0.0177   estimate D2E/DX2                          !
 !       D7       -179.5475   estimate D2E/DX2                          !
 !       D8       -180.257    estimate D2E/DX2                          !
 !       D9       -180.4364   estimate D2E/DX2                          !
 !       D10      -178.5891   estimate D2E/DX2                          !
 ------------------------------------------------------------------------
 Trust Radius=1.00D-01 FncErr=1.00D-07 GrdErr=1.00D-06 EigMax=2.50D+02 EigMin=1.00D-04
 Number of steps in this run=     34 maximum allowed number of steps=    100.
 GradGradGradGradGradGradGradGradGradGradGradGradGradGradGradGradGradGrad

 ---------------------------------------------------------------------------------------------------
                            Z-MATRIX (ANGSTROMS AND DEGREES)
   CD    Cent   Atom    N1       Length/X        N2       Alpha/Y        N3        Beta/Z          J
 ---------------------------------------------------------------------------------------------------
      1      1  C 
      2      2  C        1   1.420762(     1)
      3      3  C        1   1.373106(     2)      2  107.453(    10)
      4      4  H        1   1.077219(     3)      2  126.602(    11)      3  180.069(    18)      0
      5      5  C        2   1.372415(     4)      1  107.489(    12)      3    0.107(    19)      0
      6      6  N        3   1.373224(     5)      1  107.678(    13)      2   -0.018(    20)      0
      7      7  H        3   1.076762(     6)      1  130.950(    14)      6 -179.547(    21)      0
      8      8  H        2   1.077167(     7)      1  126.643(    15)      5 -180.257(    22)      0
      9      9  H        5   1.076632(     8)      2  130.880(    16)      1 -180.436(    23)      0
     10     10  H        6   1.002791(     9)      3  125.230(    17)      1 -178.589(    24)      0
 ---------------------------------------------------------------------------------------------------
                         Z-Matrix orientation:                         
 ---------------------------------------------------------------------
 Center     Atomic      Atomic             Coordinates (Angstroms)
 Number     Number       Type             X           Y           Z
 ---------------------------------------------------------------------
      1          6           0        0.000000    0.000000    0.000000
      2          6           0        0.000000    0.000000    1.420762
      3          6           0        1.309891    0.000000   -0.411834
      4          1           0       -0.864790    0.001037   -0.642292
      5          6           0        1.308971    0.002445    1.833208
      6          7           0        2.100108    0.000404    0.711242
      7          1           0        1.739193    0.006172   -1.399294
      8          1           0       -0.864287    0.002263    2.063640
      9          1           0        1.736384    0.009443    2.821340
     10          1           0        3.102693    0.020665    0.713120
 ---------------------------------------------------------------------
                    Distance matrix (angstroms):
                    1          2          3          4          5
     1  C    0.000000
     2  C    1.420762   0.000000
     3  C    1.373106   2.252603   0.000000
     4  H    1.077219   2.236975   2.186858   0.000000
     5  C    2.252568   1.372415   2.245043   3.294441   0.000000
     6  N    2.217278   2.216726   1.373224   3.259244   1.372847
     7  H    2.232231   3.313238   1.076762   2.711790   3.261008
     8  H    2.237321   1.077167   3.294696   2.705933   2.185441
     9  H    3.312866   2.230861   3.261196   4.331620   1.076632
    10  H    3.183657   3.182434   2.116621   4.192665   2.114797
                    6          7          8          9         10
     6  N    0.000000
     7  H    2.141181   0.000000
     8  H    3.258316   4.332440   0.000000
     9  H    2.141236   4.220637   2.708810   0.000000
    10  H    1.002791   2.514286   4.190605   2.512273   0.000000
 Symmetry turned off by external request.
 Stoichiometry    C4H5N
 Framework group  C1[X(C4H5N)]
 Deg. of freedom    24
 Full point group                 C1      NOp   1
 Rotational constants (GHZ):           9.1854722           9.0602133           4.5612431
 Standard basis: def2TZVP (5D, 7F)
 The following finite field(s) will be applied:
 An electric field of              0.0072 -0.0012 -0.0015
   185 basis functions,   295 primitive gaussians,   210 cartesian basis functions
    18 alpha electrons       18 beta electrons
       nuclear repulsion energy       161.2134283274 Hartrees.
 NAtoms=   10 NActive=   10 NUniq=   10 SFac= 1.00D+00 NAtFMM=   60 NAOKFM=F Big=F
 Integral buffers will be    131072 words long.
 Raffenetti 2 integral format.
 Two-electron integral symmetry is turned off.
 One-electron integrals computed using PRISM.
   1 Symmetry operations used in ECPInt.
 ECPInt:  NShTT=    2850 NPrTT=    8640 LenC2=    2844 LenP2D=    7462.
 LDataN:  DoStor=T MaxTD1= 6 Len=  172
 NBasis=   185 RedAO= T EigKep=  5.52D-05  NBF=   185
 NBsUse=   185 1.00D-06 EigRej= -1.00D+00 NBFU=   185
 The nuclear repulsion energy is now       161.6209956990 hartrees.
 Initial guess from the checkpoint file:  "checkpoint.chk"
 B after Tr=     0.000000    0.000000   -0.000000
         Rot=    1.000000   -0.000000    0.000000    0.000000 Ang=   0.00 deg.
 Keep R1 ints in memory in canonical form, NReq=160464041.
 Requested convergence on RMS density matrix=1.00D-08 within 128 cycles.
 Requested convergence on MAX density matrix=1.00D-06.
 Requested convergence on             energy=1.00D-06.
 No special actions if energy rises.
 SCF Done:  E(RB3LYP) =  -210.249650528     A.U. after   10 cycles
            NFock= 10  Conv=0.23D-08     -V/T= 2.0051
   1 Symmetry operations used in ECPInt.
 ECPInt:  NShTT=    2850 NPrTT=    8640 LenC2=    2844 LenP2D=    7462.
 LDataN:  DoStor=T MaxTD1= 7 Len=  274
 Calling FoFJK, ICntrl=      2127 FMM=F ISym2X=0 I1Cent= 0 IOpClX= 0 NMat=1 NMatS=1 NMatT=0.
 -------------------------------------------------------------------
 Center     Atomic                   Forces (Hartrees/Bohr)
 Number     Number              X              Y              Z
 -------------------------------------------------------------------
      1        6           0.000507024   -0.000422355   -0.000058133
      2        6          -0.000067200    0.000005825    0.000080978
      3        6          -0.000649214    0.000232079   -0.000532424
      4        1          -0.000114614    0.000072617    0.000165353
      5        6          -0.000760029   -0.000020680    0.000425230
      6        7           0.001693068   -0.000170853   -0.000000175
      7        1          -0.000035673    0.000046893   -0.000157935
      8        1          -0.000081554    0.000063242   -0.000108087
      9        1          -0.000120197    0.000050266    0.000109123
     10        1          -0.000371611    0.000142965    0.000076070
 -------------------------------------------------------------------
 Cartesian Forces:  Max     0.001693068 RMS     0.000414448
 -----------------------------------------------------------------------------------------------
                       Internal Coordinate Forces (Hartree/Bohr or radian)
  Cent   Atom   N1       Length/X         N2         Alpha/Y        N3         Beta/Z          J
 -----------------------------------------------------------------------------------------------
      1  C 
      2  C        1   0.000507(     1)
      3  C        1   0.000792(     2)      2   0.003766(    10)
      4  H        1  -0.000007(     3)      2  -0.000409(    11)      3   0.000118(    18)     0
      5  C        2  -0.000679(     4)      1   0.002320(    12)      3   0.000016(    19)     0
      6  N        3   0.000822(     5)      1   0.002546(    13)      2   0.000056(    20)     0
      7  H        3   0.000131(     6)      1  -0.000195(    14)      6   0.000070(    21)     0
      8  H        2   0.000001(     7)      1  -0.000276(    15)      5  -0.000103(    22)     0
      9  H        5   0.000053(     8)      2  -0.000313(    16)      1  -0.000076(    23)     0
     10  H        6  -0.000369(     9)      3   0.000141(    17)      1   0.000235(    24)     0
 -----------------------------------------------------------------------------------------------
 Internal  Forces:  Max     0.003766045 RMS     0.001093874

 GradGradGradGradGradGradGradGradGradGradGradGradGradGradGradGradGradGrad
 Berny optimization.
 Search for a local minimum.
 Step number   1 out of a maximum of   34
 All quantities printed in internal units (Hartrees-Bohrs-Radians)
 Second derivative matrix not updated -- first step.
 ITU=  0
     Eigenvalues ---    0.02654   0.06428   0.07819   0.11014   0.13722
     Eigenvalues ---    0.20290   0.21427   0.23771   0.28346   0.29515
     Eigenvalues ---    0.31867   0.36333   0.36339   0.36388   0.36405
     Eigenvalues ---    0.44096   0.47201   0.50445   0.50576   0.50678
     Eigenvalues ---    0.56600   0.86032   1.88503  15.90123
 RFO step:  Lambda=-7.89263814D-06 EMin= 2.65423263D-02
 Linear search not attempted -- first point.
 Variable       Old X    -DE/DX   Delta X   Delta X   Delta X     New X
                                 (Linear)    (Quad)   (Total)
    R2        2.68485   0.00051   0.00000  -0.00046  -0.00046   2.68440
    R3        2.59479   0.00079   0.00000   0.00003   0.00003   2.59482
    R4        2.03565  -0.00001   0.00000  -0.00002  -0.00002   2.03563
    R5        2.59349  -0.00068   0.00000  -0.00064  -0.00064   2.59285
    R6        2.59502   0.00082   0.00000   0.00209   0.00209   2.59711
    R7        2.03479   0.00013   0.00000   0.00036   0.00036   2.03515
    R8        2.03555   0.00000   0.00000   0.00000   0.00000   2.03556
    R9        2.03454   0.00005   0.00000   0.00015   0.00015   2.03469
   R10        1.89500  -0.00037   0.00000  -0.00078  -0.00078   1.89422
    A3        1.87541   0.00377   0.00000   0.00027   0.00027   1.87568
    A4        2.20962  -0.00041   0.00000  -0.00139  -0.00139   2.20823
    A5        1.87604   0.00232   0.00000   0.00058   0.00058   1.87662
    A6        1.87933   0.00255   0.00000   0.00007   0.00007   1.87940
    A7        2.28550  -0.00020   0.00000  -0.00070  -0.00070   2.28480
    A8        2.21033  -0.00028   0.00000  -0.00111  -0.00111   2.20922
    A9        2.28428  -0.00031   0.00000  -0.00115  -0.00115   2.28313
   A10        2.18568   0.00014   0.00000   0.00105   0.00105   2.18673
    D4        3.14279   0.00012   0.00000   0.00073   0.00073   3.14352
    D5        0.00187   0.00002   0.00000   0.00139   0.00139   0.00326
    D6       -0.00031   0.00006   0.00000  -0.00160  -0.00160  -0.00191
    D7       -3.13369   0.00007   0.00000   0.00246   0.00246  -3.13124
    D8       -3.14608  -0.00010   0.00000  -0.00200  -0.00200  -3.14807
    D9       -3.14921  -0.00008   0.00000  -0.00231  -0.00231  -3.15152
   D10       -3.11697   0.00023   0.00000   0.00422   0.00422  -3.11275
         Item               Value     Threshold  Converged?
 Maximum Force            0.003766     0.000450     NO 
 RMS     Force            0.001094     0.000300     NO 
 Maximum Displacement     0.004216     0.001800     NO 
 RMS     Displacement     0.001450     0.001200     NO 
 Predicted change in Energy=-3.946319D-06
 GradGradGradGradGradGradGradGradGradGradGradGradGradGradGradGradGradGrad

 ---------------------------------------------------------------------------------------------------
                            Z-MATRIX (ANGSTROMS AND DEGREES)
   CD    Cent   Atom    N1       Length/X        N2       Alpha/Y        N3        Beta/Z          J
 ---------------------------------------------------------------------------------------------------
      1      1  C 
      2      2  C        1   1.420521(     1)
      3      3  C        1   1.373120(     2)      2  107.469(    10)
      4      4  H        1   1.077211(     3)      2  126.522(    11)      3  180.111(    18)      0
      5      5  C        2   1.372076(     4)      1  107.522(    12)      3    0.187(    19)      0
      6      6  N        3   1.374330(     5)      1  107.681(    13)      2   -0.109(    20)      0
      7      7  H        3   1.076953(     6)      1  130.910(    14)      6 -179.407(    21)      0
      8      8  H        2   1.077170(     7)      1  126.579(    15)      5 -180.371(    22)      0
      9      9  H        5   1.076711(     8)      2  130.814(    16)      1 -180.569(    23)      0
     10     10  H        6   1.002380(     9)      3  125.291(    17)      1 -178.348(    24)      0
 ---------------------------------------------------------------------------------------------------
                         Z-Matrix orientation:                         
 ---------------------------------------------------------------------
 Center     Atomic      Atomic             Coordinates (Angstroms)
 Number     Number       Type             X           Y           Z
 ---------------------------------------------------------------------
      1          6           0        0.000000    0.000000    0.000000
      2          6           0        0.000000    0.000000    1.420521
      3          6           0        1.309793    0.000000   -0.412190
      4          1           0       -0.865672    0.001670   -0.641089
      5          6           0        1.308404    0.004269    1.833622
      6          7           0        2.101023    0.002500    0.711524
      7          1           0        1.738217    0.006875   -1.400236
      8          1           0       -0.865004    0.002785    2.062436
      9          1           0        1.734125    0.013749    2.822550
     10          1           0        3.103108    0.026673    0.714134
 ---------------------------------------------------------------------
                    Distance matrix (angstroms):
                    1          2          3          4          5
     1  C    0.000000
     2  C    1.420521   0.000000
     3  C    1.373120   2.252640   0.000000
     4  H    1.077211   2.235984   2.187474   0.000000
     5  C    2.252579   1.372076   2.245817   3.294056   0.000000
     6  N    2.218236   2.217426   1.374330   3.260496   1.373810
     7  H    2.232063   3.313323   1.076953   2.712299   3.262297
     8  H    2.236489   1.077170   3.294469   2.703525   2.185420
     9  H    3.312728   2.230037   3.262482   4.330806   1.076711
    10  H    3.184333   3.182604   2.117851   4.193860   2.115352
                    6          7          8          9         10
     6  N    0.000000
     7  H    2.142703   0.000000
     8  H    3.259184   4.332074   0.000000
     9  H    2.142702   4.222793   2.708018   0.000000
    10  H    1.002380   2.516720   4.190990   2.513901   0.000000
 Symmetry turned off by external request.
 Stoichiometry    C4H5N
 Framework group  C1[X(C4H5N)]
 Deg. of freedom    24
 Full point group                 C1      NOp   1
 Rotational constants (GHZ):           9.1822189           9.0558900           4.5593601
 Standard basis: def2TZVP (5D, 7F)
 The following finite field(s) will be applied:
 An electric field of              0.0072 -0.0012 -0.0015
   185 basis functions,   295 primitive gaussians,   210 cartesian basis functions
    18 alpha electrons       18 beta electrons
       nuclear repulsion energy       161.1807274702 Hartrees.
 NAtoms=   10 NActive=   10 NUniq=   10 SFac= 1.00D+00 NAtFMM=   60 NAOKFM=F Big=F
 Integral buffers will be    131072 words long.
 Raffenetti 2 integral format.
 Two-electron integral symmetry is turned off.
 One-electron integrals computed using PRISM.
   1 Symmetry operations used in ECPInt.
 ECPInt:  NShTT=    2850 NPrTT=    8640 LenC2=    2844 LenP2D=    7462.
 LDataN:  DoStor=T MaxTD1= 6 Len=  172
 NBasis=   185 RedAO= T EigKep=  5.53D-05  NBF=   185
 NBsUse=   185 1.00D-06 EigRej= -1.00D+00 NBFU=   185
 The nuclear repulsion energy is now       161.5881757278 hartrees.
 Initial guess from the checkpoint file:  "checkpoint.chk"
 B after Tr=     0.000132   -0.000675   -0.000205
         Rot=    1.000000    0.000292    0.000087   -0.000506 Ang=   0.07 deg.
 Keep R1 ints in memory in canonical form, NReq=160464041.
 Requested convergence on RMS density matrix=1.00D-08 within 128 cycles.
 Requested convergence on MAX density matrix=1.00D-06.
 Requested convergence on             energy=1.00D-06.
 No special actions if energy rises.
 SCF Done:  E(RB3LYP) =  -210.249655171     A.U. after    8 cycles
            NFock=  8  Conv=0.33D-08     -V/T= 2.0051
   1 Symmetry operations used in ECPInt.
 ECPInt:  NShTT=    2850 NPrTT=    8640 LenC2=    2844 LenP2D=    7462.
 LDataN:  DoStor=T MaxTD1= 7 Len=  274
 Calling FoFJK, ICntrl=      2127 FMM=F ISym2X=0 I1Cent= 0 IOpClX= 0 NMat=1 NMatS=1 NMatT=0.
 -------------------------------------------------------------------
 Center     Atomic                   Forces (Hartrees/Bohr)
 Number     Number              X              Y              Z
 -------------------------------------------------------------------
      1        6           0.000639635   -0.000539439   -0.000140859
      2        6          -0.000249226    0.000161791    0.000143060
      3        6          -0.000277936    0.000472413   -0.000100615
      4        1          -0.000037670   -0.000015561    0.000048420
      5        6          -0.000256507    0.000048521    0.000064414
      6        7           0.000261513   -0.000291675   -0.000009709
      7        1           0.000000240    0.000037519    0.000009394
      8        1          -0.000036336    0.000024281   -0.000033104
      9        1          -0.000015334    0.000006363    0.000004659
     10        1          -0.000028379    0.000095786    0.000014341
 -------------------------------------------------------------------
 Cartesian Forces:  Max     0.000639635 RMS     0.000214796
 -----------------------------------------------------------------------------------------------
                       Internal Coordinate Forces (Hartree/Bohr or radian)
  Cent   Atom   N1       Length/X         N2         Alpha/Y        N3         Beta/Z          J
 -----------------------------------------------------------------------------------------------
      1  C 
      2  C        1   0.000179(     1)
      3  C        1  -0.000017(     2)      2   0.000702(    10)
      4  H        1   0.000001(     3)      2  -0.000125(    11)      3  -0.000026(    18)     0
      5  C        2  -0.000238(     4)      1   0.000415(    12)      3   0.000104(    19)     0
      6  N        3   0.000138(     5)      1   0.000461(    13)      2   0.000488(    20)     0
      7  H        3  -0.000008(     6)      1   0.000008(    14)      6   0.000058(    21)     0
      8  H        2   0.000010(     7)      1  -0.000098(    15)      5  -0.000039(    22)     0
      9  H        5  -0.000002(     8)      2  -0.000032(    16)      1  -0.000010(    23)     0
     10  H        6  -0.000026(     9)      3   0.000025(    17)      1   0.000149(    24)     0
 -----------------------------------------------------------------------------------------------
 Internal  Forces:  Max     0.000701822 RMS     0.000231863

 GradGradGradGradGradGradGradGradGradGradGradGradGradGradGradGradGradGrad
 Berny optimization.
 Search for a local minimum.
 Step number   2 out of a maximum of   34
 All quantities printed in internal units (Hartrees-Bohrs-Radians)
 Update second derivatives using D2CorN and points    1    2
 DE= -4.64D-06 DEPred=-3.95D-06 R= 1.18D+00
 TightC=F SS=  1.41D+00  RLast= 7.10D-03 DXNew= 1.6818D-01 2.1305D-02
 Trust test= 1.18D+00 RLast= 7.10D-03 DXMaxT set to 1.00D-01
 ITU=  1  0
     Eigenvalues ---    0.02895   0.06208   0.07381   0.10773   0.13706
     Eigenvalues ---    0.20298   0.21398   0.23769   0.28063   0.29484
     Eigenvalues ---    0.31282   0.36333   0.36339   0.36394   0.36406
     Eigenvalues ---    0.44030   0.47153   0.50017   0.50589   0.50668
     Eigenvalues ---    0.56538   0.86094   1.88445  15.89548
 RFO step:  Lambda=-1.32344235D-06 EMin= 2.89498416D-02
 Quartic linear search produced a step of  0.21452.
 Variable       Old X    -DE/DX   Delta X   Delta X   Delta X     New X
                                 (Linear)    (Quad)   (Total)
    R2        2.68440   0.00018  -0.00010   0.00020   0.00010   2.68449
    R3        2.59482  -0.00002   0.00001  -0.00039  -0.00038   2.59444
    R4        2.03563   0.00000  -0.00000   0.00001   0.00001   2.03564
    R5        2.59285  -0.00024  -0.00014  -0.00030  -0.00044   2.59241
    R6        2.59711   0.00014   0.00045   0.00005   0.00050   2.59761
    R7        2.03515  -0.00001   0.00008  -0.00009  -0.00002   2.03513
    R8        2.03556   0.00001   0.00000   0.00003   0.00003   2.03559
    R9        2.03469  -0.00000   0.00003  -0.00003  -0.00000   2.03469
   R10        1.89422  -0.00003  -0.00017   0.00008  -0.00009   1.89414
    A3        1.87568   0.00070   0.00006   0.00007   0.00013   1.87582
    A4        2.20823  -0.00012  -0.00030  -0.00028  -0.00058   2.20766
    A5        1.87662   0.00042   0.00012  -0.00002   0.00011   1.87672
    A6        1.87940   0.00046   0.00001  -0.00006  -0.00005   1.87935
    A7        2.28480   0.00001  -0.00015   0.00017   0.00002   2.28482
    A8        2.20922  -0.00010  -0.00024  -0.00021  -0.00045   2.20877
    A9        2.28313  -0.00003  -0.00025   0.00006  -0.00018   2.28294
   A10        2.18673   0.00002   0.00023  -0.00001   0.00022   2.18695
    D4        3.14352  -0.00003   0.00016   0.00099   0.00114   3.14467
    D5        0.00326   0.00010   0.00030  -0.00149  -0.00119   0.00207
    D6       -0.00191   0.00049  -0.00034   0.00223   0.00188  -0.00003
    D7       -3.13124   0.00006   0.00053   0.00004   0.00057  -3.13067
    D8       -3.14807  -0.00004  -0.00043  -0.00007  -0.00050  -3.14858
    D9       -3.15152  -0.00001  -0.00050  -0.00014  -0.00064  -3.15216
   D10       -3.11275   0.00015   0.00090   0.00058   0.00149  -3.11127
         Item               Value     Threshold  Converged?
 Maximum Force            0.000702     0.000450     NO 
 RMS     Force            0.000232     0.000300     YES
 Maximum Displacement     0.001882     0.001800     NO 
 RMS     Displacement     0.000668     0.001200     YES
 Predicted change in Energy=-6.792583D-07
 GradGradGradGradGradGradGradGradGradGradGradGradGradGradGradGradGradGrad

 ---------------------------------------------------------------------------------------------------
                            Z-MATRIX (ANGSTROMS AND DEGREES)
   CD    Cent   Atom    N1       Length/X        N2       Alpha/Y        N3        Beta/Z          J
 ---------------------------------------------------------------------------------------------------
      1      1  C 
      2      2  C        1   1.420572(     1)
      3      3  C        1   1.372917(     2)      2  107.476(    10)
      4      4  H        1   1.077214(     3)      2  126.489(    11)      3  180.176(    18)      0
      5      5  C        2   1.371843(     4)      1  107.528(    12)      3    0.119(    19)      0
      6      6  N        3   1.374596(     5)      1  107.679(    13)      2   -0.002(    20)      0
      7      7  H        3   1.076945(     6)      1  130.911(    14)      6 -179.374(    21)      0
      8      8  H        2   1.077187(     7)      1  126.553(    15)      5 -180.400(    22)      0
      9      9  H        5   1.076711(     8)      2  130.803(    16)      1 -180.605(    23)      0
     10     10  H        6   1.002335(     9)      3  125.303(    17)      1 -178.262(    24)      0
 ---------------------------------------------------------------------------------------------------
                         Z-Matrix orientation:                         
 ---------------------------------------------------------------------
 Center     Atomic      Atomic             Coordinates (Angstroms)
 Number     Number       Type             X           Y           Z
 ---------------------------------------------------------------------
      1          6           0        0.000000    0.000000    0.000000
      2          6           0        0.000000    0.000000    1.420572
      3          6           0        1.309545    0.000000   -0.412302
      4          1           0       -0.866040    0.002661   -0.640592
      5          6           0        1.308143    0.002712    1.833742
      6          7           0        2.101027    0.000036    0.711562
      7          1           0        1.737858    0.008870   -1.400371
      8          1           0       -0.865299    0.004248    2.062110
      9          1           0        1.733589    0.012203    2.822787
     10          1           0        3.103051    0.024847    0.714369
 ---------------------------------------------------------------------
                    Distance matrix (angstroms):
                    1          2          3          4          5
     1  C    0.000000
     2  C    1.420572   0.000000
     3  C    1.372917   2.252629   0.000000
     4  H    1.077214   2.235717   2.187532   0.000000
     5  C    2.252522   1.371843   2.246046   3.293843   0.000000
     6  N    2.218250   2.217433   1.374596   3.260646   1.374031
     7  H    2.231876   3.313299   1.076945   2.712488   3.262542
     8  H    2.236305   1.077187   3.294341   2.702703   2.185407
     9  H    3.312644   2.229728   3.262785   4.330492   1.076711
    10  H    3.184315   3.182493   2.118175   4.194054   2.115462
                    6          7          8          9         10
     6  N    0.000000
     7  H    2.142949   0.000000
     8  H    3.259308   4.331885   0.000000
     9  H    2.142996   4.223162   2.707935   0.000000
    10  H    1.002335   2.517167   4.191018   2.514162   0.000000
 Symmetry turned off by external request.
 Stoichiometry    C4H5N
 Framework group  C1[X(C4H5N)]
 Deg. of freedom    24
 Full point group                 C1      NOp   1
 Rotational constants (GHZ):           9.1811303           9.0563930           4.5592279
 Standard basis: def2TZVP (5D, 7F)
 The following finite field(s) will be applied:
 An electric field of              0.0072 -0.0012 -0.0015
   185 basis functions,   295 primitive gaussians,   210 cartesian basis functions
    18 alpha electrons       18 beta electrons
       nuclear repulsion energy       161.1780695726 Hartrees.
 NAtoms=   10 NActive=   10 NUniq=   10 SFac= 1.00D+00 NAtFMM=   60 NAOKFM=F Big=F
 Integral buffers will be    131072 words long.
 Raffenetti 2 integral format.
 Two-electron integral symmetry is turned off.
 One-electron integrals computed using PRISM.
   1 Symmetry operations used in ECPInt.
 ECPInt:  NShTT=    2850 NPrTT=    8640 LenC2=    2844 LenP2D=    7462.
 LDataN:  DoStor=T MaxTD1= 6 Len=  172
 NBasis=   185 RedAO= T EigKep=  5.54D-05  NBF=   185
 NBsUse=   185 1.00D-06 EigRej= -1.00D+00 NBFU=   185
 The nuclear repulsion energy is now       161.5855087144 hartrees.
 Initial guess from the checkpoint file:  "checkpoint.chk"
 B after Tr=    -0.000235    0.001006    0.000040
         Rot=    1.000000   -0.000257    0.000005    0.000447 Ang=  -0.06 deg.
 Keep R1 ints in memory in canonical form, NReq=160464041.
 Requested convergence on RMS density matrix=1.00D-08 within 128 cycles.
 Requested convergence on MAX density matrix=1.00D-06.
 Requested convergence on             energy=1.00D-06.
 No special actions if energy rises.
 SCF Done:  E(RB3LYP) =  -210.249655950     A.U. after    7 cycles
            NFock=  7  Conv=0.81D-08     -V/T= 2.0051
   1 Symmetry operations used in ECPInt.
 ECPInt:  NShTT=    2850 NPrTT=    8640 LenC2=    2844 LenP2D=    7462.
 LDataN:  DoStor=T MaxTD1= 7 Len=  274
 Calling FoFJK, ICntrl=      2127 FMM=F ISym2X=0 I1Cent= 0 IOpClX= 0 NMat=1 NMatS=1 NMatT=0.
 -------------------------------------------------------------------
 Center     Atomic                   Forces (Hartrees/Bohr)
 Number     Number              X              Y              Z
 -------------------------------------------------------------------
      1        6           0.000478120   -0.000372257   -0.000078171
      2        6          -0.000423247    0.000110069    0.000077105
      3        6          -0.000060989    0.000331698    0.000012410
      4        1          -0.000010084    0.000002828    0.000011209
      5        6          -0.000054168    0.000041480   -0.000003558
      6        7           0.000047408   -0.000133066   -0.000005664
      7        1           0.000012224   -0.000038844    0.000008995
      8        1          -0.000008502   -0.000021754   -0.000012851
      9        1           0.000011630   -0.000027199   -0.000005070
     10        1           0.000007608    0.000107047   -0.000004404
 -------------------------------------------------------------------
 Cartesian Forces:  Max     0.000478120 RMS     0.000155366
 -----------------------------------------------------------------------------------------------
                       Internal Coordinate Forces (Hartree/Bohr or radian)
  Cent   Atom   N1       Length/X         N2         Alpha/Y        N3         Beta/Z          J
 -----------------------------------------------------------------------------------------------
      1  C 
      2  C        1   0.000056(     1)
      3  C        1   0.000003(     2)      2   0.000077(    10)
      4  H        1   0.000001(     3)      2  -0.000031(    11)      3   0.000005(    18)     0
      5  C        2  -0.000043(     4)      1  -0.000014(    12)      3   0.000049(    19)     0
      6  N        3   0.000023(     5)      1   0.000140(    13)      2  -0.000057(    20)     0
      7  H        3  -0.000004(     6)      1   0.000031(    14)      6  -0.000060(    21)     0
      8  H        2  -0.000001(     7)      1  -0.000031(    15)      5   0.000036(    22)     0
      9  H        5  -0.000000(     8)      2   0.000026(    16)      1   0.000042(    23)     0
     10  H        6   0.000010(     9)      3  -0.000012(    17)      1   0.000165(    24)     0
 -----------------------------------------------------------------------------------------------
 Internal  Forces:  Max     0.000164988 RMS     0.000055738

 GradGradGradGradGradGradGradGradGradGradGradGradGradGradGradGradGradGrad
 Berny optimization.
 Search for a local minimum.
 Step number   3 out of a maximum of   34
 All quantities printed in internal units (Hartrees-Bohrs-Radians)
 Update second derivatives using D2CorN and points    1    2    3
 DE= -7.80D-07 DEPred=-6.79D-07 R= 1.15D+00
 Trust test= 1.15D+00 RLast= 3.27D-03 DXMaxT set to 1.00D-01
 ITU=  0  1  0
     Eigenvalues ---    0.02238   0.05323   0.08426   0.10012   0.13749
     Eigenvalues ---    0.20300   0.22129   0.23806   0.27904   0.29451
     Eigenvalues ---    0.31109   0.36333   0.36339   0.36398   0.36408
     Eigenvalues ---    0.43792   0.47171   0.49916   0.50602   0.50719
     Eigenvalues ---    0.56492   0.85914   1.88352  15.89176
 RFO step:  Lambda=-9.23461026D-07 EMin= 2.23763528D-02
 Quartic linear search produced a step of  0.04814.
 Variable       Old X    -DE/DX   Delta X   Delta X   Delta X     New X
                                 (Linear)    (Quad)   (Total)
    R2        2.68449   0.00006   0.00000   0.00021   0.00021   2.68471
    R3        2.59444   0.00000  -0.00002  -0.00025  -0.00027   2.59417
    R4        2.03564   0.00000   0.00000   0.00001   0.00001   2.03565
    R5        2.59241  -0.00004  -0.00002  -0.00023  -0.00025   2.59216
    R6        2.59761   0.00002   0.00002   0.00025   0.00027   2.59788
    R7        2.03513  -0.00000  -0.00000  -0.00002  -0.00002   2.03511
    R8        2.03559  -0.00000   0.00000   0.00001   0.00001   2.03560
    R9        2.03469  -0.00000  -0.00000  -0.00000  -0.00000   2.03469
   R10        1.89414   0.00001  -0.00000  -0.00000  -0.00000   1.89413
    A3        1.87582   0.00008   0.00001   0.00003   0.00004   1.87586
    A4        2.20766  -0.00003  -0.00003  -0.00040  -0.00042   2.20723
    A5        1.87672  -0.00001   0.00001  -0.00001  -0.00001   1.87672
    A6        1.87935   0.00014  -0.00000   0.00007   0.00006   1.87941
    A7        2.28482   0.00003   0.00000   0.00011   0.00011   2.28494
    A8        2.20877  -0.00003  -0.00002  -0.00032  -0.00034   2.20843
    A9        2.28294   0.00003  -0.00001  -0.00000  -0.00001   2.28293
   A10        2.18695  -0.00001   0.00001   0.00007   0.00008   2.18704
    D4        3.14467   0.00000   0.00006  -0.00018  -0.00012   3.14454
    D5        0.00207   0.00005  -0.00006   0.00085   0.00079   0.00287
    D6       -0.00003  -0.00006   0.00009  -0.00124  -0.00115  -0.00118
    D7       -3.13067  -0.00006   0.00003   0.00117   0.00120  -3.12947
    D8       -3.14858   0.00004  -0.00002  -0.00033  -0.00036  -3.14893
    D9       -3.15216   0.00004  -0.00003  -0.00083  -0.00087  -3.15302
   D10       -3.11127   0.00016   0.00007   0.00516   0.00523  -3.10604
         Item               Value     Threshold  Converged?
 Maximum Force            0.000165     0.000450     YES
 RMS     Force            0.000056     0.000300     YES
 Maximum Displacement     0.005228     0.001800     NO 
 RMS     Displacement     0.001158     0.001200     YES
 Predicted change in Energy=-4.490596D-07
 GradGradGradGradGradGradGradGradGradGradGradGradGradGradGradGradGradGrad

 ---------------------------------------------------------------------------------------------------
                            Z-MATRIX (ANGSTROMS AND DEGREES)
   CD    Cent   Atom    N1       Length/X        N2       Alpha/Y        N3        Beta/Z          J
 ---------------------------------------------------------------------------------------------------
      1      1  C 
      2      2  C        1   1.420685(     1)
      3      3  C        1   1.372775(     2)      2  107.479(    10)
      4      4  H        1   1.077219(     3)      2  126.465(    11)      3  180.169(    18)      0
      5      5  C        2   1.371711(     4)      1  107.528(    12)      3    0.164(    19)      0
      6      6  N        3   1.374741(     5)      1  107.683(    13)      2   -0.067(    20)      0
      7      7  H        3   1.076933(     6)      1  130.917(    14)      6 -179.305(    21)      0
      8      8  H        2   1.077193(     7)      1  126.533(    15)      5 -180.421(    22)      0
      9      9  H        5   1.076710(     8)      2  130.802(    16)      1 -180.655(    23)      0
     10     10  H        6   1.002333(     9)      3  125.308(    17)      1 -177.963(    24)      0
 ---------------------------------------------------------------------------------------------------
                         Z-Matrix orientation:                         
 ---------------------------------------------------------------------
 Center     Atomic      Atomic             Coordinates (Angstroms)
 Number     Number       Type             X           Y           Z
 ---------------------------------------------------------------------
      1          6           0        0.000000    0.000000    0.000000
      2          6           0        0.000000    0.000000    1.420685
      3          6           0        1.309393    0.000000   -0.412312
      4          1           0       -0.866316    0.002555   -0.640228
      5          6           0        1.308017    0.003750    1.833805
      6          7           0        2.101075    0.001541    0.711587
      7          1           0        1.737774    0.008908   -1.400339
      8          1           0       -0.865526    0.003872    2.061929
      9          1           0        1.733453    0.014285    2.822844
     10          1           0        3.102972    0.030974    0.714421
 ---------------------------------------------------------------------
                    Distance matrix (angstroms):
                    1          2          3          4          5
     1  C    0.000000
     2  C    1.420685   0.000000
     3  C    1.372775   2.252641   0.000000
     4  H    1.077219   2.235592   2.187616   0.000000
     5  C    2.252502   1.371711   2.246121   3.293716   0.000000
     6  N    2.218305   2.217508   1.374741   3.260800   1.374161
     7  H    2.231790   3.313323   1.076933   2.712765   3.262576
     8  H    2.236225   1.077193   3.294262   2.702157   2.185482
     9  H    3.312629   2.229599   3.262862   4.330335   1.076710
    10  H    3.184304   3.182484   2.118351   4.194178   2.115567
                    6          7          8          9         10
     6  N    0.000000
     7  H    2.142958   0.000000
     8  H    3.259472   4.331801   0.000000
     9  H    2.143062   4.223188   2.708097   0.000000
    10  H    1.002333   2.517233   4.191120   2.514221   0.000000
 Symmetry turned off by external request.
 Stoichiometry    C4H5N
 Framework group  C1[X(C4H5N)]
 Deg. of freedom    24
 Full point group                 C1      NOp   1
 Rotational constants (GHZ):           9.1806713           9.0562525           4.5590959
 Standard basis: def2TZVP (5D, 7F)
 The following finite field(s) will be applied:
 An electric field of              0.0072 -0.0012 -0.0015
   185 basis functions,   295 primitive gaussians,   210 cartesian basis functions
    18 alpha electrons       18 beta electrons
       nuclear repulsion energy       161.1755381432 Hartrees.
 NAtoms=   10 NActive=   10 NUniq=   10 SFac= 1.00D+00 NAtFMM=   60 NAOKFM=F Big=F
 Integral buffers will be    131072 words long.
 Raffenetti 2 integral format.
 Two-electron integral symmetry is turned off.
 One-electron integrals computed using PRISM.
   1 Symmetry operations used in ECPInt.
 ECPInt:  NShTT=    2850 NPrTT=    8640 LenC2=    2844 LenP2D=    7462.
 LDataN:  DoStor=T MaxTD1= 6 Len=  172
 NBasis=   185 RedAO= T EigKep=  5.54D-05  NBF=   185
 NBsUse=   185 1.00D-06 EigRej= -1.00D+00 NBFU=   185
 The nuclear repulsion energy is now       161.5828883010 hartrees.
 Initial guess from the checkpoint file:  "checkpoint.chk"
 B after Tr=    -0.000121   -0.000744    0.000098
         Rot=    1.000000    0.000162   -0.000005   -0.000431 Ang=   0.05 deg.
 Keep R1 ints in memory in canonical form, NReq=160464041.
 Requested convergence on RMS density matrix=1.00D-08 within 128 cycles.
 Requested convergence on MAX density matrix=1.00D-06.
 Requested convergence on             energy=1.00D-06.
 No special actions if energy rises.
 SCF Done:  E(RB3LYP) =  -210.249656331     A.U. after    7 cycles
            NFock=  7  Conv=0.41D-08     -V/T= 2.0051
   1 Symmetry operations used in ECPInt.
 ECPInt:  NShTT=    2850 NPrTT=    8640 LenC2=    2844 LenP2D=    7462.
 LDataN:  DoStor=T MaxTD1= 7 Len=  274
 Calling FoFJK, ICntrl=      2127 FMM=F ISym2X=0 I1Cent= 0 IOpClX= 0 NMat=1 NMatS=1 NMatT=0.
 -------------------------------------------------------------------
 Center     Atomic                   Forces (Hartrees/Bohr)
 Number     Number              X              Y              Z
 -------------------------------------------------------------------
      1        6           0.000373535   -0.000476727    0.000019704
      2        6          -0.000501862    0.000149027   -0.000024819
      3        6           0.000089782    0.000532044    0.000045444
      4        1           0.000013973   -0.000047192   -0.000016209
      5        6           0.000075987    0.000141714   -0.000017264
      6        7          -0.000092392   -0.000255291    0.000002960
      7        1           0.000005966   -0.000021276   -0.000005208
      8        1           0.000013884   -0.000033337    0.000008194
      9        1           0.000013497   -0.000030436   -0.000001999
     10        1           0.000007630    0.000041474   -0.000010803
 -------------------------------------------------------------------
 Cartesian Forces:  Max     0.000532044 RMS     0.000186416
 -----------------------------------------------------------------------------------------------
                       Internal Coordinate Forces (Hartree/Bohr or radian)
  Cent   Atom   N1       Length/X         N2         Alpha/Y        N3         Beta/Z          J
 -----------------------------------------------------------------------------------------------
      1  C 
      2  C        1  -0.000036(     1)
      3  C        1   0.000001(     2)      2  -0.000243(    10)
      4  H        1  -0.000002(     3)      2   0.000044(    11)      3  -0.000077(    18)     0
      5  C        2   0.000080(     4)      1  -0.000144(    12)      3   0.000304(    19)     0
      6  N        3  -0.000055(     5)      1  -0.000148(    13)      2   0.000472(    20)     0
      7  H        3   0.000007(     6)      1   0.000007(    14)      6  -0.000033(    21)     0
      8  H        2  -0.000006(     7)      1   0.000030(    15)      5   0.000054(    22)     0
      9  H        5   0.000003(     8)      2   0.000027(    16)      1   0.000047(    23)     0
     10  H        6   0.000009(     9)      3  -0.000022(    17)      1   0.000063(    24)     0
 -----------------------------------------------------------------------------------------------
 Internal  Forces:  Max     0.000472119 RMS     0.000136706

 GradGradGradGradGradGradGradGradGradGradGradGradGradGradGradGradGradGrad
 Berny optimization.
 Search for a local minimum.
 Step number   4 out of a maximum of   34
 All quantities printed in internal units (Hartrees-Bohrs-Radians)
 Update second derivatives using D2CorN and points    1    2    3    4
 DE= -3.81D-07 DEPred=-4.49D-07 R= 8.47D-01
 Trust test= 8.47D-01 RLast= 5.67D-03 DXMaxT set to 1.00D-01
 ITU=  0  0  1  0
     Eigenvalues ---    0.02058   0.05186   0.08361   0.09982   0.13747
     Eigenvalues ---    0.20302   0.22163   0.23834   0.27995   0.29458
     Eigenvalues ---    0.31191   0.36333   0.36340   0.36398   0.36408
     Eigenvalues ---    0.43795   0.47174   0.49989   0.50605   0.50723
     Eigenvalues ---    0.56495   0.86199   1.88364  15.89232
 RFO step:  Lambda=-5.62414316D-07 EMin= 2.05798785D-02
 Quartic linear search produced a step of -0.14219.
 Variable       Old X    -DE/DX   Delta X   Delta X   Delta X     New X
                                 (Linear)    (Quad)   (Total)
    R2        2.68471  -0.00004  -0.00003   0.00009   0.00006   2.68477
    R3        2.59417   0.00000   0.00004  -0.00000   0.00004   2.59420
    R4        2.03565  -0.00000  -0.00000  -0.00000  -0.00000   2.03565
    R5        2.59216   0.00008   0.00004   0.00002   0.00005   2.59221
    R6        2.59788  -0.00006  -0.00004  -0.00001  -0.00005   2.59783
    R7        2.03511   0.00001   0.00000   0.00002   0.00003   2.03513
    R8        2.03560  -0.00001  -0.00000  -0.00001  -0.00002   2.03558
    R9        2.03469   0.00000   0.00000   0.00001   0.00001   2.03470
   R10        1.89413   0.00001   0.00000   0.00000   0.00000   1.89414
    A3        1.87586  -0.00024  -0.00001  -0.00004  -0.00005   1.87581
    A4        2.20723   0.00004   0.00006  -0.00004   0.00002   2.20725
    A5        1.87672  -0.00014   0.00000  -0.00002  -0.00002   1.87670
    A6        1.87941  -0.00015  -0.00001   0.00004   0.00003   1.87945
    A7        2.28494   0.00001  -0.00002   0.00004   0.00003   2.28496
    A8        2.20843   0.00003   0.00005  -0.00006  -0.00002   2.20841
    A9        2.28293   0.00003   0.00000   0.00006   0.00006   2.28300
   A10        2.18704  -0.00002  -0.00001  -0.00007  -0.00008   2.18696
    D4        3.14454  -0.00008   0.00002  -0.00030  -0.00029   3.14426
    D5        0.00287   0.00030  -0.00011   0.00019   0.00008   0.00295
    D6       -0.00118   0.00047   0.00016   0.00074   0.00090  -0.00028
    D7       -3.12947  -0.00003  -0.00017  -0.00014  -0.00031  -3.12978
    D8       -3.14893   0.00005   0.00005  -0.00003   0.00002  -3.14891
    D9       -3.15302   0.00005   0.00012  -0.00060  -0.00048  -3.15350
   D10       -3.10604   0.00006  -0.00074   0.00276   0.00202  -3.10402
         Item               Value     Threshold  Converged?
 Maximum Force            0.000472     0.000450     NO 
 RMS     Force            0.000137     0.000300     YES
 Maximum Displacement     0.002017     0.001800     NO 
 RMS     Displacement     0.000471     0.001200     YES
 Predicted change in Energy=-3.158797D-07
 GradGradGradGradGradGradGradGradGradGradGradGradGradGradGradGradGradGrad

 ---------------------------------------------------------------------------------------------------
                            Z-MATRIX (ANGSTROMS AND DEGREES)
   CD    Cent   Atom    N1       Length/X        N2       Alpha/Y        N3        Beta/Z          J
 ---------------------------------------------------------------------------------------------------
      1      1  C 
      2      2  C        1   1.420719(     1)
      3      3  C        1   1.372794(     2)      2  107.476(    10)
      4      4  H        1   1.077217(     3)      2  126.466(    11)      3  180.153(    18)      0
      5      5  C        2   1.371740(     4)      1  107.527(    12)      3    0.169(    19)      0
      6      6  N        3   1.374714(     5)      1  107.684(    13)      2   -0.016(    20)      0
      7      7  H        3   1.076947(     6)      1  130.919(    14)      6 -179.323(    21)      0
      8      8  H        2   1.077184(     7)      1  126.533(    15)      5 -180.419(    22)      0
      9      9  H        5   1.076717(     8)      2  130.806(    16)      1 -180.682(    23)      0
     10     10  H        6   1.002334(     9)      3  125.303(    17)      1 -177.847(    24)      0
 ---------------------------------------------------------------------------------------------------
                         Z-Matrix orientation:                         
 ---------------------------------------------------------------------
 Center     Atomic      Atomic             Coordinates (Angstroms)
 Number     Number       Type             X           Y           Z
 ---------------------------------------------------------------------
      1          6           0        0.000000    0.000000    0.000000
      2          6           0        0.000000    0.000000    1.420719
      3          6           0        1.309431    0.000000   -0.412253
      4          1           0       -0.866301    0.002307   -0.640245
      5          6           0        1.308051    0.003856    1.833826
      6          7           0        2.101081    0.000362    0.711638
      7          1           0        1.737896    0.009386   -1.400253
      8          1           0       -0.865530    0.003780    2.061945
      9          1           0        1.733569    0.014817    2.822833
     10          1           0        3.102937    0.031172    0.714467
 ---------------------------------------------------------------------
                    Distance matrix (angstroms):
                    1          2          3          4          5
     1  C    0.000000
     2  C    1.420719   0.000000
     3  C    1.372794   2.252642   0.000000
     4  H    1.077217   2.235633   2.187647   0.000000
     5  C    2.252539   1.371740   2.246082   3.293757   0.000000
     6  N    2.218325   2.217507   1.374714   3.260820   1.374123
     7  H    2.231833   3.313345   1.076947   2.712841   3.262524
     8  H    2.236241   1.077184   3.294256   2.702191   2.185519
     9  H    3.312682   2.229664   3.262804   4.330403   1.076717
    10  H    3.184282   3.182449   2.118285   4.194154   2.115496
                    6          7          8          9         10
     6  N    0.000000
     7  H    2.142910   0.000000
     8  H    3.259466   4.331821   0.000000
     9  H    2.142993   4.223091   2.708207   0.000000
    10  H    1.002334   2.517112   4.191083   2.514089   0.000000
 Symmetry turned off by external request.
 Stoichiometry    C4H5N
 Framework group  C1[X(C4H5N)]
 Deg. of freedom    24
 Full point group                 C1      NOp   1
 Rotational constants (GHZ):           9.1807821           9.0560942           4.5590931
 Standard basis: def2TZVP (5D, 7F)
 The following finite field(s) will be applied:
 An electric field of              0.0072 -0.0012 -0.0015
   185 basis functions,   295 primitive gaussians,   210 cartesian basis functions
    18 alpha electrons       18 beta electrons
       nuclear repulsion energy       161.1754443850 Hartrees.
 NAtoms=   10 NActive=   10 NUniq=   10 SFac= 1.00D+00 NAtFMM=   60 NAOKFM=F Big=F
 Integral buffers will be    131072 words long.
 Raffenetti 2 integral format.
 Two-electron integral symmetry is turned off.
 One-electron integrals computed using PRISM.
   1 Symmetry operations used in ECPInt.
 ECPInt:  NShTT=    2850 NPrTT=    8640 LenC2=    2844 LenP2D=    7462.
 LDataN:  DoStor=T MaxTD1= 6 Len=  172
 NBasis=   185 RedAO= T EigKep=  5.54D-05  NBF=   185
 NBsUse=   185 1.00D-06 EigRej= -1.00D+00 NBFU=   185
 The nuclear repulsion energy is now       161.5828158041 hartrees.
 Initial guess from the checkpoint file:  "checkpoint.chk"
 B after Tr=     0.000047   -0.000003    0.000045
         Rot=    1.000000    0.000015    0.000004    0.000106 Ang=   0.01 deg.
 Keep R1 ints in memory in canonical form, NReq=160464041.
 Requested convergence on RMS density matrix=1.00D-08 within 128 cycles.
 Requested convergence on MAX density matrix=1.00D-06.
 Requested convergence on             energy=1.00D-06.
 No special actions if energy rises.
 SCF Done:  E(RB3LYP) =  -210.249656707     A.U. after    6 cycles
            NFock=  6  Conv=0.71D-08     -V/T= 2.0051
   1 Symmetry operations used in ECPInt.
 ECPInt:  NShTT=    2850 NPrTT=    8640 LenC2=    2844 LenP2D=    7462.
 LDataN:  DoStor=T MaxTD1= 7 Len=  274
 Calling FoFJK, ICntrl=      2127 FMM=F ISym2X=0 I1Cent= 0 IOpClX= 0 NMat=1 NMatS=1 NMatT=0.
 -------------------------------------------------------------------
 Center     Atomic                   Forces (Hartrees/Bohr)
 Number     Number              X              Y              Z
 -------------------------------------------------------------------
      1        6           0.000400916   -0.000466363    0.000045470
      2        6          -0.000478054    0.000181848   -0.000042592
      3        6           0.000069275    0.000437999    0.000014758
      4        1           0.000013641   -0.000027404   -0.000016107
      5        6           0.000040175    0.000032637    0.000004864
      6        7          -0.000067158   -0.000088444   -0.000006309
      7        1          -0.000002282   -0.000050200    0.000000102
      8        1           0.000010758   -0.000019344    0.000013258
      9        1           0.000003593   -0.000055573   -0.000002659
     10        1           0.000009136    0.000054845   -0.000010786
 -------------------------------------------------------------------
 Cartesian Forces:  Max     0.000478054 RMS     0.000169937
 -----------------------------------------------------------------------------------------------
                       Internal Coordinate Forces (Hartree/Bohr or radian)
  Cent   Atom   N1       Length/X         N2         Alpha/Y        N3         Beta/Z          J
 -----------------------------------------------------------------------------------------------
      1  C 
      2  C        1  -0.000027(     1)
      3  C        1   0.000009(     2)      2  -0.000074(    10)
      4  H        1  -0.000001(     3)      2   0.000043(    11)      3  -0.000045(    18)     0
      5  C        2   0.000042(     4)      1  -0.000037(    12)      3  -0.000070(    19)     0
      6  N        3  -0.000047(     5)      1  -0.000077(    13)      2  -0.000026(    20)     0
      7  H        3  -0.000001(     6)      1  -0.000003(    14)      6  -0.000077(    21)     0
      8  H        2  -0.000001(     7)      1   0.000035(    15)      5   0.000032(    22)     0
      9  H        5  -0.000002(     8)      2   0.000009(    16)      1   0.000086(    23)     0
     10  H        6   0.000011(     9)      3  -0.000023(    17)      1   0.000084(    24)     0
 -----------------------------------------------------------------------------------------------
 Internal  Forces:  Max     0.000085534 RMS     0.000045861

 GradGradGradGradGradGradGradGradGradGradGradGradGradGradGradGradGradGrad
 Berny optimization.
 Search for a local minimum.
 Step number   5 out of a maximum of   34
 All quantities printed in internal units (Hartrees-Bohrs-Radians)
 Update second derivatives using D2CorN and points    1    2    3    4    5

 DE= -3.76D-07 DEPred=-3.16D-07 R= 1.19D+00
 Trust test= 1.19D+00 RLast= 2.31D-03 DXMaxT set to 1.00D-01
 ITU=  0  0  0  1  0
     Eigenvalues ---   -0.00206   0.05246   0.08423   0.09740   0.13965
     Eigenvalues ---    0.20306   0.22272   0.23817   0.27973   0.29459
     Eigenvalues ---    0.31176   0.36333   0.36340   0.36399   0.36410
     Eigenvalues ---    0.43819   0.47174   0.49939   0.50607   0.50728
     Eigenvalues ---    0.56499   0.86948   1.88368  15.89182
 RFO step:  Lambda=-2.06658761D-03 EMin=-2.06125598D-03
 I=     1 Eig=   -2.06D-03 Dot1=  2.62D-05
 I=     1 Stepn=  2.50D-01 RXN=   2.50D-01 EDone=F
 Mixed    1 eigenvectors in step.  Raw Step.Grad=  2.62D-05.
 RFO eigenvector is Hessian eigenvector with negative curvature.
 Taking step of  2.50D-01 in eigenvector direction(s).  Step.Grad=  1.63D-05.
 Quartic linear search produced a step of  0.31233.
 Maximum step size (   0.100) exceeded in Quadratic search.
    -- Step size scaled by   0.400
 Variable       Old X    -DE/DX   Delta X   Delta X   Delta X     New X
                                 (Linear)    (Quad)   (Total)
    R2        2.68477  -0.00003   0.00002   0.00131   0.00133   2.68610
    R3        2.59420   0.00001   0.00001  -0.00076  -0.00074   2.59346
    R4        2.03565  -0.00000  -0.00000  -0.00008  -0.00008   2.03557
    R5        2.59221   0.00004   0.00002  -0.00062  -0.00060   2.59161
    R6        2.59783  -0.00005  -0.00002   0.00029   0.00027   2.59811
    R7        2.03513  -0.00000   0.00001   0.00008   0.00008   2.03522
    R8        2.03558  -0.00000  -0.00001  -0.00007  -0.00007   2.03551
    R9        2.03470  -0.00000   0.00000   0.00006   0.00006   2.03476
   R10        1.89414   0.00001   0.00000   0.00024   0.00025   1.89438
    A3        1.87581  -0.00007  -0.00002   0.00012   0.00010   1.87591
    A4        2.20725   0.00004   0.00001  -0.00117  -0.00116   2.20609
    A5        1.87670  -0.00004  -0.00001  -0.00024  -0.00024   1.87646
    A6        1.87945  -0.00008   0.00001  -0.00001   0.00000   1.87945
    A7        2.28496  -0.00000   0.00001   0.00086   0.00087   2.28583
    A8        2.20841   0.00003  -0.00000  -0.00109  -0.00110   2.20731
    A9        2.28300   0.00001   0.00002   0.00075   0.00077   2.28377
   A10        2.18696  -0.00002  -0.00003  -0.00213  -0.00216   2.18480
    D4        3.14426  -0.00004  -0.00009  -0.00687  -0.00696   3.13730
    D5        0.00295  -0.00007   0.00003  -0.00886  -0.00883  -0.00589
    D6       -0.00028  -0.00003   0.00028   0.00522   0.00551   0.00523
    D7       -3.12978  -0.00008  -0.00010  -0.00079  -0.00089  -3.13067
    D8       -3.14891   0.00003   0.00001   0.01168   0.01169  -3.13722
    D9       -3.15350   0.00009  -0.00015   0.00429   0.00414  -3.14936
   D10       -3.10402   0.00008   0.00063   0.09839   0.09902  -3.00500
         Item               Value     Threshold  Converged?
 Maximum Force            0.000086     0.000450     YES
 RMS     Force            0.000046     0.000300     YES
 Maximum Displacement     0.099018     0.001800     NO 
 RMS     Displacement     0.020542     0.001200     NO 
 Predicted change in Energy=-2.019281D-05
 GradGradGradGradGradGradGradGradGradGradGradGradGradGradGradGradGradGrad

 ---------------------------------------------------------------------------------------------------
                            Z-MATRIX (ANGSTROMS AND DEGREES)
   CD    Cent   Atom    N1       Length/X        N2       Alpha/Y        N3        Beta/Z          J
 ---------------------------------------------------------------------------------------------------
      1      1  C 
      2      2  C        1   1.421422(     1)
      3      3  C        1   1.372400(     2)      2  107.482(    10)
      4      4  H        1   1.077175(     3)      2  126.400(    11)      3  179.754(    18)      0
      5      5  C        2   1.371421(     4)      1  107.513(    12)      3   -0.337(    19)      0
      6      6  N        3   1.374859(     5)      1  107.685(    13)      2    0.300(    20)      0
      7      7  H        3   1.076991(     6)      1  130.968(    14)      6 -179.374(    21)      0
      8      8  H        2   1.077145(     7)      1  126.470(    15)      5 -179.749(    22)      0
      9      9  H        5   1.076750(     8)      2  130.850(    16)      1 -180.445(    23)      0
     10     10  H        6   1.002464(     9)      3  125.180(    17)      1 -172.174(    24)      0
 ---------------------------------------------------------------------------------------------------
                         Z-Matrix orientation:                         
 ---------------------------------------------------------------------
 Center     Atomic      Atomic             Coordinates (Angstroms)
 Number     Number       Type             X           Y           Z
 ---------------------------------------------------------------------
      1          6           0        0.000000    0.000000    0.000000
      2          6           0        0.000000    0.000000    1.421422
      3          6           0        1.309013    0.000000   -0.412271
      4          1           0       -0.867006   -0.003722   -0.639212
      5          6           0        1.307830   -0.007699    1.834118
      6          7           0        2.100861   -0.006850    0.711636
      7          1           0        1.738264    0.013132   -1.399936
      8          1           0       -0.866210    0.001310    2.061673
      9          1           0        1.734410   -0.003880    2.822756
     10          1           0        3.097260    0.103129    0.716816
 ---------------------------------------------------------------------
                    Distance matrix (angstroms):
                    1          2          3          4          5
     1  C    0.000000
     2  C    1.421422   0.000000
     3  C    1.372400   2.252986   0.000000
     4  H    1.077175   2.235604   2.187824   0.000000
     5  C    2.252658   1.371421   2.246403   3.293522   0.000000
     6  N    2.218127   2.217534   1.374859   3.260833   1.374360
     7  H    2.231940   3.313879   1.076991   2.714114   3.262639
     8  H    2.236250   1.077145   3.294236   2.700889   2.185935
     9  H    3.313027   2.229783   3.262880   4.330426   1.076750
    10  H    3.180799   3.178070   2.117382   4.191138   2.112512
                    6          7          8          9         10
     6  N    0.000000
     7  H    2.142571   0.000000
     8  H    3.259781   4.331992   0.000000
     9  H    2.142691   4.222728   2.709705   0.000000
    10  H    1.002464   2.517064   4.186658   2.510736   0.000000
 Symmetry turned off by external request.
 Stoichiometry    C4H5N
 Framework group  C1[X(C4H5N)]
 Deg. of freedom    24
 Full point group                 C1      NOp   1
 Rotational constants (GHZ):           9.1764380           9.0591066           4.5596619
 Standard basis: def2TZVP (5D, 7F)
 The following finite field(s) will be applied:
 An electric field of              0.0072 -0.0012 -0.0015
   185 basis functions,   295 primitive gaussians,   210 cartesian basis functions
    18 alpha electrons       18 beta electrons
       nuclear repulsion energy       161.1741583912 Hartrees.
 NAtoms=   10 NActive=   10 NUniq=   10 SFac= 1.00D+00 NAtFMM=   60 NAOKFM=F Big=F
 Integral buffers will be    131072 words long.
 Raffenetti 2 integral format.
 Two-electron integral symmetry is turned off.
 One-electron integrals computed using PRISM.
   1 Symmetry operations used in ECPInt.
 ECPInt:  NShTT=    2850 NPrTT=    8640 LenC2=    2844 LenP2D=    7462.
 LDataN:  DoStor=T MaxTD1= 6 Len=  172
 NBasis=   185 RedAO= T EigKep=  5.55D-05  NBF=   185
 NBsUse=   185 1.00D-06 EigRej= -1.00D+00 NBFU=   185
 The nuclear repulsion energy is now       161.5815103596 hartrees.
 Initial guess from the checkpoint file:  "checkpoint.chk"
 B after Tr=    -0.000631   -0.003191    0.000538
         Rot=    0.999998   -0.001781   -0.000019   -0.001144 Ang=  -0.24 deg.
 ExpMin= 9.52D-02 ExpMax= 1.97D+04 ExpMxC= 6.73D+02 IAcc=2 IRadAn=         4 AccDes= 0.00D+00
 Harris functional with IExCor=  402 and IRadAn=       4 diagonalized for initial guess.
 HarFok:  IExCor=  402 AccDes= 0.00D+00 IRadAn=         4 IDoV= 1 UseB2=F ITyADJ=14
 ICtDFT=  3500011 ScaDFX=  1.000000  1.000000  1.000000  1.000000
 FoFCou: FMM=F IPFlag=           0 FMFlag=      100000 FMFlg1=           0
         NFxFlg=           0 DoJE=T BraDBF=F KetDBF=T FulRan=T
         wScrn=  0.000000 ICntrl=       500 IOpCl=  0 I1Cent=   200000004 NGrid=           0
         NMat0=    1 NMatS0=      1 NMatT0=    0 NMatD0=    1 NMtDS0=    0 NMtDT0=    0
 Symmetry not used in FoFCou.
 Keep R1 ints in memory in canonical form, NReq=160464041.
 Requested convergence on RMS density matrix=1.00D-08 within 128 cycles.
 Requested convergence on MAX density matrix=1.00D-06.
 Requested convergence on             energy=1.00D-06.
 No special actions if energy rises.
 Integral accuracy reduced to 1.0D-05 until final iterations.
 Initial convergence to 1.0D-05 achieved.  Increase integral accuracy.
 SCF Done:  E(RB3LYP) =  -210.249570085     A.U. after    9 cycles
            NFock=  9  Conv=0.72D-08     -V/T= 2.0051
   1 Symmetry operations used in ECPInt.
 ECPInt:  NShTT=    2850 NPrTT=    8640 LenC2=    2844 LenP2D=    7462.
 LDataN:  DoStor=T MaxTD1= 7 Len=  274
 Calling FoFJK, ICntrl=      2127 FMM=F ISym2X=0 I1Cent= 0 IOpClX= 0 NMat=1 NMatS=1 NMatT=0.
 -------------------------------------------------------------------
 Center     Atomic                   Forces (Hartrees/Bohr)
 Number     Number              X              Y              Z
 -------------------------------------------------------------------
      1        6           0.000188208   -0.000419507    0.000354044
      2        6          -0.000583482   -0.001381917   -0.000364532
      3        6           0.000072890    0.001463587   -0.000004225
      4        1           0.000025452    0.000075426   -0.000098042
      5        6          -0.000179614    0.002128262   -0.000044469
      6        7           0.000386553   -0.000868225    0.000288932
      7        1          -0.000087223    0.000063154   -0.000003818
      8        1           0.000027493   -0.000345205    0.000092251
      9        1          -0.000060936    0.000281486    0.000008202
     10        1           0.000210659   -0.000997060   -0.000228342
 -------------------------------------------------------------------
 Cartesian Forces:  Max     0.002128262 RMS     0.000625761
 -----------------------------------------------------------------------------------------------
                       Internal Coordinate Forces (Hartree/Bohr or radian)
  Cent   Atom   N1       Length/X         N2         Alpha/Y        N3         Beta/Z          J
 -----------------------------------------------------------------------------------------------
      1  C 
      2  C        1  -0.000309(     1)
      3  C        1   0.000540(     2)      2   0.001192(    10)
      4  H        1   0.000037(     3)      2   0.000192(    11)      3   0.000123(    18)     0
      5  C        2  -0.000254(     4)      1   0.000233(    12)      3   0.006744(    19)     0
      6  N        3   0.000403(     5)      1   0.001592(    13)      2   0.005252(    20)     0
      7  H        3  -0.000030(     6)      1  -0.000167(    14)      6   0.000096(    21)     0
      8  H        2   0.000032(     7)      1   0.000185(    15)      5   0.000565(    22)     0
      9  H        5  -0.000016(     8)      2  -0.000126(    16)      1  -0.000432(    23)     0
     10  H        6   0.000099(     9)      3  -0.000272(    17)      1  -0.001594(    24)     0
 -----------------------------------------------------------------------------------------------
 Internal  Forces:  Max     0.006744397 RMS     0.001836705

 GradGradGradGradGradGradGradGradGradGradGradGradGradGradGradGradGradGrad
 Berny optimization.
 Search for a local minimum.
 Step number   6 out of a maximum of   34
 All quantities printed in internal units (Hartrees-Bohrs-Radians)
 Update second derivatives using D2CorN and points    1    2    3    4    6
                                                          5
 ITU=  0  0  0  0  1  0
     Eigenvalues ---    0.01605   0.05127   0.08051   0.09169   0.14018
     Eigenvalues ---    0.20308   0.22374   0.23773   0.27755   0.29439
     Eigenvalues ---    0.30992   0.36333   0.36340   0.36399   0.36411
     Eigenvalues ---    0.43776   0.47159   0.49818   0.50609   0.50737
     Eigenvalues ---    0.56484   0.87798   1.88349  15.89079
 RFO step:  Lambda=-3.23233852D-07 EMin= 1.60511662D-02
 Quartic linear search produced a step of -0.94821.
 Variable       Old X    -DE/DX   Delta X   Delta X   Delta X     New X
                                 (Linear)    (Quad)   (Total)
    R2        2.68610  -0.00031  -0.00126  -0.00007  -0.00133   2.68476
    R3        2.59346   0.00054   0.00071   0.00008   0.00079   2.59425
    R4        2.03557   0.00004   0.00008  -0.00000   0.00008   2.03564
    R5        2.59161  -0.00025   0.00057   0.00008   0.00065   2.59226
    R6        2.59811   0.00040  -0.00026  -0.00008  -0.00034   2.59777
    R7        2.03522  -0.00003  -0.00008  -0.00000  -0.00008   2.03513
    R8        2.03551   0.00003   0.00007   0.00000   0.00007   2.03558
    R9        2.03476  -0.00002  -0.00006  -0.00001  -0.00006   2.03470
   R10        1.89438   0.00010  -0.00023   0.00004  -0.00020   1.89419
    A3        1.87591   0.00119  -0.00010  -0.00001  -0.00011   1.87580
    A4        2.20609   0.00019   0.00110   0.00016   0.00126   2.20735
    A5        1.87646   0.00023   0.00023  -0.00002   0.00021   1.87667
    A6        1.87945   0.00159  -0.00000   0.00002   0.00002   1.87947
    A7        2.28583  -0.00017  -0.00082  -0.00005  -0.00088   2.28496
    A8        2.20731   0.00018   0.00104   0.00014   0.00118   2.20849
    A9        2.28377  -0.00013  -0.00073  -0.00000  -0.00073   2.28303
   A10        2.18480  -0.00027   0.00205  -0.00015   0.00189   2.18669
    D4        3.13730   0.00012   0.00660  -0.00065   0.00595   3.14324
    D5       -0.00589   0.00674   0.00838   0.00044   0.00882   0.00293
    D6        0.00523   0.00525  -0.00522   0.00024  -0.00498   0.00025
    D7       -3.13067   0.00010   0.00084  -0.00094  -0.00009  -3.13077
    D8       -3.13722   0.00056  -0.01108   0.00029  -0.01079  -3.14801
    D9       -3.14936  -0.00043  -0.00392   0.00006  -0.00386  -3.15323
   D10       -3.00500  -0.00159  -0.09389   0.00129  -0.09260  -3.09761
         Item               Value     Threshold  Converged?
 Maximum Force            0.006744     0.000450     NO 
 RMS     Force            0.001837     0.000300     NO 
 Maximum Displacement     0.092602     0.001800     NO 
 RMS     Displacement     0.019209     0.001200     NO 
 Predicted change in Energy=-3.452907D-06
 GradGradGradGradGradGradGradGradGradGradGradGradGradGradGradGradGradGrad

 ---------------------------------------------------------------------------------------------------
                            Z-MATRIX (ANGSTROMS AND DEGREES)
   CD    Cent   Atom    N1       Length/X        N2       Alpha/Y        N3        Beta/Z          J
 ---------------------------------------------------------------------------------------------------
      1      1  C 
      2      2  C        1   1.420716(     1)
      3      3  C        1   1.372817(     2)      2  107.476(    10)
      4      4  H        1   1.077215(     3)      2  126.472(    11)      3  180.095(    18)      0
      5      5  C        2   1.371763(     4)      1  107.525(    12)      3    0.168(    19)      0
      6      6  N        3   1.374680(     5)      1  107.686(    13)      2    0.014(    20)      0
      7      7  H        3   1.076946(     6)      1  130.918(    14)      6 -179.380(    21)      0
      8      8  H        2   1.077183(     7)      1  126.537(    15)      5 -180.368(    22)      0
      9      9  H        5   1.076716(     8)      2  130.808(    16)      1 -180.667(    23)      0
     10     10  H        6   1.002360(     9)      3  125.288(    17)      1 -177.480(    24)      0
 ---------------------------------------------------------------------------------------------------
                         Z-Matrix orientation:                         
 ---------------------------------------------------------------------
 Center     Atomic      Atomic             Coordinates (Angstroms)
 Number     Number       Type             X           Y           Z
 ---------------------------------------------------------------------
      1          6           0        0.000000    0.000000    0.000000
      2          6           0        0.000000    0.000000    1.420716
      3          6           0        1.309455    0.000000   -0.412255
      4          1           0       -0.866237    0.001431   -0.640330
      5          6           0        1.308088    0.003834    1.833786
      6          7           0        2.101102   -0.000323    0.711596
      7          1           0        1.737914    0.009011   -1.400261
      8          1           0       -0.865480    0.003020    2.062010
      9          1           0        1.733674    0.014564    2.822764
     10          1           0        3.102815    0.035581    0.714284
 ---------------------------------------------------------------------
                    Distance matrix (angstroms):
                    1          2          3          4          5
     1  C    0.000000
     2  C    1.420716   0.000000
     3  C    1.372817   2.252655   0.000000
     4  H    1.077215   2.235684   2.187615   0.000000
     5  C    2.252527   1.371763   2.246044   3.293774   0.000000
     6  N    2.218332   2.217539   1.374680   3.260799   1.374117
     7  H    2.231851   3.313357   1.076946   2.712776   3.262489
     8  H    2.236281   1.077183   3.294290   2.702341   2.185517
     9  H    3.312678   2.229703   3.262748   4.330443   1.076716
    10  H    3.184168   3.182416   2.118135   4.193986   2.115499
                    6          7          8          9         10
     6  N    0.000000
     7  H    2.142879   0.000000
     8  H    3.259484   4.331861   0.000000
     9  H    2.142955   4.223031   2.708225   0.000000
    10  H    1.002360   2.516934   4.191037   2.514096   0.000000
 Symmetry turned off by external request.
 Stoichiometry    C4H5N
 Framework group  C1[X(C4H5N)]
 Deg. of freedom    24
 Full point group                 C1      NOp   1
 Rotational constants (GHZ):           9.1808854           9.0559862           4.5591152
 Standard basis: def2TZVP (5D, 7F)
 The following finite field(s) will be applied:
 An electric field of              0.0072 -0.0012 -0.0015
   185 basis functions,   295 primitive gaussians,   210 cartesian basis functions
    18 alpha electrons       18 beta electrons
       nuclear repulsion energy       161.1755031689 Hartrees.
 NAtoms=   10 NActive=   10 NUniq=   10 SFac= 1.00D+00 NAtFMM=   60 NAOKFM=F Big=F
 Integral buffers will be    131072 words long.
 Raffenetti 2 integral format.
 Two-electron integral symmetry is turned off.
 One-electron integrals computed using PRISM.
   1 Symmetry operations used in ECPInt.
 ECPInt:  NShTT=    2850 NPrTT=    8640 LenC2=    2844 LenP2D=    7462.
 LDataN:  DoStor=T MaxTD1= 6 Len=  172
 NBasis=   185 RedAO= T EigKep=  5.54D-05  NBF=   185
 NBsUse=   185 1.00D-06 EigRej= -1.00D+00 NBFU=   185
 The nuclear repulsion energy is now       161.5828918332 hartrees.
 Lowest energy guess from the checkpoint file:  "checkpoint.chk"
 B after Tr=     0.000013   -0.000509   -0.000015
         Rot=    1.000000    0.000004   -0.000008   -0.000095 Ang=   0.01 deg.
 B after Tr=     0.000650    0.002678   -0.000564
         Rot=    0.999998    0.001786    0.000011    0.001049 Ang=   0.24 deg.
 Keep R1 ints in memory in canonical form, NReq=160464041.
 Requested convergence on RMS density matrix=1.00D-08 within 128 cycles.
 Requested convergence on MAX density matrix=1.00D-06.
 Requested convergence on             energy=1.00D-06.
 No special actions if energy rises.
 Integral accuracy reduced to 1.0D-05 until final iterations.
[...]
      2        6          -0.000447788    0.000145233   -0.000034257
      3        6           0.000023465    0.000437272    0.000001358
      4        1           0.000006489   -0.000010239   -0.000009509
      5        6           0.000021702    0.000037856    0.000014509
      6        7          -0.000024719   -0.000032635   -0.000010011
      7        1          -0.000003332   -0.000033839   -0.000000692
      8        1           0.000007373   -0.000005745    0.000009225
      9        1          -0.000001154   -0.000041413    0.000000410
     10        1          -0.000004520    0.000008901    0.000003631
 -------------------------------------------------------------------
 Cartesian Forces:  Max     0.000505391 RMS     0.000168956
 -----------------------------------------------------------------------------------------------
                       Internal Coordinate Forces (Hartree/Bohr or radian)
  Cent   Atom   N1       Length/X         N2         Alpha/Y        N3         Beta/Z          J
 -----------------------------------------------------------------------------------------------
      1  C 
      2  C        1  -0.000010(     1)
      3  C        1  -0.000007(     2)      2  -0.000031(    10)
      4  H        1   0.000000(     3)      2   0.000023(    11)      3  -0.000017(    18)     0
      5  C        2   0.000024(     4)      1   0.000024(    12)      3  -0.000033(    19)     0
      6  N        3  -0.000022(     5)      1  -0.000059(    13)      2   0.000002(    20)     0
      7  H        3  -0.000001(     6)      1  -0.000006(    14)      6  -0.000052(    21)     0
      8  H        2  -0.000000(     7)      1   0.000024(    15)      5   0.000009(    22)     0
      9  H        5  -0.000000(     8)      2  -0.000002(    16)      1   0.000064(    23)     0
     10  H        6  -0.000004(     9)      3   0.000006(    17)      1   0.000014(    24)     0
 -----------------------------------------------------------------------------------------------
 Internal  Forces:  Max     0.000063783 RMS     0.000025785

 GradGradGradGradGradGradGradGradGradGradGradGradGradGradGradGradGradGrad
 Berny optimization.
 Search for a local minimum.
 Step number   1 out of a maximum of    2
 All quantities printed in internal units (Hartrees-Bohrs-Radians)
 Second derivative matrix not updated -- analytic derivatives used.
 ITU=  0
     Eigenvalues ---    0.01087   0.02627   0.03254   0.04819   0.05167
     Eigenvalues ---    0.15890   0.17265   0.19238   0.19862   0.20476
     Eigenvalues ---    0.21476   0.31732   0.36398   0.37027   0.37167
     Eigenvalues ---    0.37239   0.39505   0.45057   0.47975   0.50507
     Eigenvalues ---    0.54522   1.10349   2.27051  12.68045
 Angle between quadratic step and forces=  48.79 degrees.
 Linear search not attempted -- first point.
 Variable       Old X    -DE/DX   Delta X   Delta X   Delta X     New X
                                 (Linear)    (Quad)   (Total)
    R2        2.68476  -0.00001   0.00000  -0.00005  -0.00005   2.68472
    R3        2.59425  -0.00001   0.00000   0.00003   0.00003   2.59428
    R4        2.03564   0.00000   0.00000   0.00000   0.00000   2.03564
    R5        2.59226   0.00002   0.00000   0.00003   0.00003   2.59229
    R6        2.59777  -0.00002   0.00000  -0.00004  -0.00004   2.59773
    R7        2.03513  -0.00000   0.00000  -0.00000  -0.00000   2.03513
    R8        2.03558  -0.00000   0.00000   0.00000   0.00000   2.03558
    R9        2.03470  -0.00000   0.00000  -0.00000  -0.00000   2.03469
   R10        1.89419  -0.00000   0.00000  -0.00000  -0.00000   1.89418
    A3        1.87580  -0.00003   0.00000  -0.00001  -0.00001   1.87579
    A4        2.20735   0.00002   0.00000   0.00013   0.00013   2.20748
    A5        1.87667   0.00002   0.00000   0.00002   0.00002   1.87669
    A6        1.87947  -0.00006   0.00000  -0.00000  -0.00000   1.87946
    A7        2.28496  -0.00001   0.00000  -0.00003  -0.00003   2.28493
    A8        2.20849   0.00002   0.00000   0.00011   0.00011   2.20860
    A9        2.28303  -0.00000   0.00000   0.00001   0.00001   2.28304
   A10        2.18669   0.00001   0.00000  -0.00002  -0.00002   2.18667
    D4        3.14324  -0.00002   0.00000  -0.00006  -0.00006   3.14319
    D5        0.00293  -0.00003   0.00000  -0.00040  -0.00040   0.00253
    D6        0.00025   0.00000   0.00000   0.00064   0.00064   0.00088
    D7       -3.13077  -0.00005   0.00000  -0.00184  -0.00184  -3.13260
    D8       -3.14801   0.00001   0.00000   0.00064   0.00064  -3.14737
    D9       -3.15323   0.00006   0.00000   0.00151   0.00151  -3.15172
   D10       -3.09761   0.00001   0.00000   0.00128   0.00128  -3.09632
         Item               Value     Threshold  Converged?
 Maximum Force            0.000064     0.000450     YES
 RMS     Force            0.000026     0.000300     YES
 Maximum Displacement     0.001837     0.001800     NO 
 RMS     Displacement     0.000588     0.001200     YES
 Predicted change in Energy=-1.199439D-07
                       ----------------------------
                       ! Non-Optimized Parameters !
                       ! (Angstroms and Degrees)  !
 ----------------------                            ----------------------
 !      Name          Value   Derivative information (Atomic Units)     !
 ------------------------------------------------------------------------
 !       R2          1.4207   -DE/DX =    0.0                           !
 !       R3          1.3728   -DE/DX =    0.0                           !
 !       R4          1.0772   -DE/DX =    0.0                           !
 !       R5          1.3718   -DE/DX =    0.0                           !
 !       R6          1.3747   -DE/DX =    0.0                           !
 !       R7          1.0769   -DE/DX =    0.0                           !
 !       R8          1.0772   -DE/DX =    0.0                           !
 !       R9          1.0767   -DE/DX =    0.0                           !
 !       R10         1.0024   -DE/DX =    0.0                           !
 !       A3        107.4749   -DE/DX =    0.0                           !
 !       A4        126.4794   -DE/DX =    0.0                           !
 !       A5        107.5263   -DE/DX =    0.0                           !
 !       A6        107.6853   -DE/DX =   -0.0001                        !
 !       A7        130.9167   -DE/DX =    0.0                           !
 !       A8        126.5437   -DE/DX =    0.0                           !
 !       A9        130.8086   -DE/DX =    0.0                           !
 !       A10       125.2868   -DE/DX =    0.0                           !
 !       D4        180.0913   -DE/DX =    0.0                           !
 !       D5          0.145    -DE/DX =    0.0                           !
 !       D6          0.0505   -DE/DX =    0.0                           !
 !       D7       -179.4849   -DE/DX =   -0.0001                        !
 !       D8       -180.3313   -DE/DX =    0.0                           !
 !       D9       -180.5803   -DE/DX =    0.0001                        !
 !       D10      -177.4061   -DE/DX =    0.0                           !
 ------------------------------------------------------------------------
 GradGradGradGradGradGradGradGradGradGradGradGradGradGradGradGradGradGrad


 ----------------------------------------------------------------------

 Electric dipole moment (input orientation):
 (Debye = 10**-18 statcoulomb cm , SI units = C m)
                  (au)            (Debye)         (10**-30 SI)
   Tot        0.344675D+00      0.876078D+00      0.292228D+01
   x          0.324602D+00      0.825056D+00      0.275209D+01
   y          0.679785D-01      0.172784D+00      0.576346D+00
   z          0.938814D-01      0.238623D+00      0.795959D+00

 Dipole polarizability, Alpha (input orientation).
 (esu units = cm**3 , SI units = C**2 m**2 J**-1)
 Alpha(0;0):
               (au)            (10**-24 esu)      (10**-40 SI)
   iso        0.498761D+02      0.739088D+01      0.822346D+01
   aniso      0.256938D+02      0.380742D+01      0.423633D+01
   xx         0.573576D+02      0.849952D+01      0.945699D+01
   yx         0.855469D-01      0.126767D-01      0.141048D-01
   yy         0.327912D+02      0.485916D+01      0.540654D+01
   zx        -0.529619D-01     -0.784814D-02     -0.873223D-02
   zy         0.339265D-01      0.502740D-02      0.559373D-02
   zz         0.594795D+02      0.881395D+01      0.980684D+01

 ----------------------------------------------------------------------

 Dipole orientation:
     6          0.00000000          0.00000000          0.00000000
     6         -2.52840609         -0.52950192          0.73126560
     6          1.48332394         -0.20757574          2.11820395
     1          0.64327288          0.48023116         -1.87067176
     6         -2.51572857         -1.03727536          3.27327292
     7         -0.06346460         -0.84540944          4.10541801
     1          3.48444927          0.05896888          2.37553585
     1         -4.16600772         -0.52423047         -0.47779379
     1         -4.03510174         -1.50361348          4.54371866
     1          0.49531522         -1.05696797          5.90290140

 Electric dipole moment (dipole orientation):
 (Debye = 10**-18 statcoulomb cm , SI units = C m)
                  (au)            (Debye)         (10**-30 SI)
   Tot        0.344675D+00      0.876078D+00      0.292228D+01
   x          0.000000D+00      0.000000D+00      0.000000D+00
   y          0.000000D+00      0.000000D+00      0.000000D+00
   z          0.344675D+00      0.876078D+00      0.292228D+01

 Dipole polarizability, Alpha (dipole orientation).
 (esu units = cm**3 , SI units = C**2 m**2 J**-1)
 Alpha(0;0):
               (au)            (10**-24 esu)      (10**-40 SI)
   iso        0.498761D+02      0.739088D+01      0.822346D+01
   aniso      0.256938D+02      0.380742D+01      0.423633D+01
   xx         0.587480D+02      0.870556D+01      0.968624D+01
   yx         0.386346D+01      0.572505D+00      0.636998D+00
   yy         0.343126D+02      0.508460D+01      0.565738D+01
   zx         0.191293D+00      0.283466D-01      0.315399D-01
   zy        -0.471574D+01     -0.698801D+00     -0.777521D+00
   zz         0.565677D+02      0.838247D+01      0.932676D+01

 ----------------------------------------------------------------------
 1\1\GINC-BHC0105\Freq\RB3LYP\def2TZVP\C4H5N1\DHANAWAY\10-Jun-2022\1\\#
 N Geom=AllCheck Guess=TCheck SCRF=Check GenChk RB3LYP/def2TZVP Freq\\i
 nt_zmat_initalOpt\\0,1\C\C,1,R2\C,1,R3,2,A3\H,1,R4,2,A4,3,D4,0\C,2,R5,
 1,A5,3,D5,0\N,3,R6,1,A6,2,D6,0\H,3,R7,1,A7,6,D7,0\H,2,R8,1,A8,5,D8,0\H
 ,5,R9,2,A9,1,D9,0\H,6,R10,3,A10,1,D10,0\\R2=1.42071605\R3=1.37281722\R
 4=1.0772149\R5=1.37176327\R6=1.37468041\R7=1.07694626\R8=1.07718327\R9
 =1.07671614\R10=1.00235976\A3=107.47554194\A4=126.47210856\A5=107.5250
 6895\A6=107.68551856\A7=130.91828232\A8=126.53714349\A9=130.80821963\A
 10=125.28815882\D4=180.09463831\D5=0.16794483\D6=0.01412527\D7=-179.37
 96695\D8=-180.36787997\D9=-180.66665271\D10=-177.47969746\\Version=ES6
 4L-G16RevA.03\HF=-210.2496572\RMSD=7.148e-09\RMSF=1.690e-04\ZeroPoint=
 0.0819543\Thermal=0.0860538\Dipole=0.3246019,0.0679785,0.0938814\Dipol
 eDeriv=-0.0914191,-0.0032502,-0.0090049,-0.0065148,-0.2205976,0.002906
 6,0.040937,-0.0005731,0.0334461,-0.098657,-0.003071,-0.0114532,-0.0075
 407,-0.2133743,-0.0000903,-0.0408359,0.0011368,0.0085154,0.2957884,0.0
 005292,0.1057382,-0.0025035,-0.1795143,-0.0118245,0.1980737,-0.0046426
 ,-0.1099243,0.0435929,-0.0005214,-0.0535495,0.0006942,0.1759337,-0.001
 1676,-0.0603147,-0.0005578,0.0363966,0.2985948,0.0008839,-0.0833645,-0
 .0051931,-0.1672863,0.0080152,-0.19704,0.0034818,-0.1039211,-0.7056321
 ,0.0115201,-0.00354,0.0419538,-0.2466099,0.0006429,-0.0027179,0.001204
 3,-0.0021953,0.0267612,-0.0006422,0.0750181,-0.001219,0.1891101,0.0044
 584,0.0598122,0.0007602,-0.0472505,0.0536257,-0.0004758,0.0446778,0.00
 17518,0.1769617,0.0000776,0.0513913,0.0003186,0.0459855,0.0342595,-0.0
 008365,-0.066063,-0.0005458,0.1897675,-0.0028651,-0.0510212,-0.0009797
 ,-0.0197942,0.1430857,-0.0041361,0.0015411,-0.0208828,0.2956094,-0.000
 1532,0.0017155,-0.0001485,0.1587418\Polar=57.3576121,0.0855469,32.7912
 303,-0.0529619,0.0339265,59.4794774\PG=C01 [X(C4H5N1)]\NImag=0\\0.7966
 1522,-0.00009978,0.11873030,0.11962261,-0.00027430,0.61868587,-0.11322
 497,0.00017465,0.01766221,0.79939017,0.00008473,-0.06143336,-0.0001187
 3,0.00011193,0.12036871,-0.01669561,0.00008378,-0.27487427,-0.11962173
 ,0.00114988,0.62003797,-0.35410204,0.00020046,0.06553347,0.00189214,-0
 .00003617,0.07563830,0.66707634,-0.00080564,-0.06110994,0.00098424,-0.
 00051950,0.01099114,-0.00041044,0.00292013,0.10384569,0.08269225,0.000
 56673,-0.12402760,0.01829432,-0.00027683,-0.03608034,-0.13129562,-0.00
 329180,0.77867352,-0.25057253,0.00037951,-0.14105552,0.00722530,-0.000
 01833,0.00330692,-0.01139101,0.00002240,-0.01865518,0.25850928,0.00040
 892,-0.02745056,0.00034423,0.00001050,-0.00002358,0.00003563,0.0000620
 7,-0.00122447,-0.00008395,-0.00034934,0.02247061,-0.14277290,0.0002117
 4,-0.16238838,-0.02377755,0.00001117,-0.00668595,0.00932353,-0.0000265
 3,0.01110872,0.15371142,-0.00022893,0.16271390,0.00213883,-0.00022357,
 -0.07632741,-0.35571353,-0.00052363,-0.06597087,-0.01504139,0.00073817
 ,0.01227380,0.00016268,-0.00009618,0.00058755,0.66908719,-0.00043809,0
 .01097053,0.00027927,-0.00147676,-0.06281473,-0.00123171,0.00060050,0.
 01670450,0.00049050,0.00000910,0.00349005,0.00000191,0.00360859,0.1076
 5109,-0.01919182,0.00006905,-0.03476292,-0.08444775,-0.00082541,-0.126
 39842,-0.01100230,-0.00085684,-0.09244038,0.00198043,0.00005255,-0.006
 13689,0.13330985,0.00493471,0.78299559,-0.08566669,-0.00000348,-0.0000
 9876,-0.08566056,0.00003877,-0.00011450,-0.16437956,-0.00099130,-0.085
 52364,-0.00453987,-0.00005687,0.00409801,-0.16466462,-0.00070283,0.085
 32531,0.94573284,0.00085445,0.01381522,-0.00148561,0.00084712,0.013850
 53,0.00145689,-0.00323290,-0.04841754,-0.00049924,-0.00008369,0.004376
 63,0.00002760,-0.00289912,-0.04937864,-0.00009589,0.01977965,0.0666091
 4,-0.04121051,-0.00055953,-0.00967505,0.04241837,0.00053723,-0.0073561
 4,-0.09240727,0.00224179,-0.24066318,0.00190118,-0.00018240,-0.0003720
 1,0.09071192,-0.00273291,-0.24165255,0.00109745,0.00085450,0.61009424,
 0.00312873,-0.00022633,0.02388936,-0.00575113,-0.00001063,0.00201053,-
 0.11008462,-0.00113559,0.11512660,0.00041156,0.00002150,-0.00085845,-0
 .00467138,-0.00001528,-0.00241576,0.01273535,0.00021604,-0.02369034,0.
 10220054,0.00020912,0.00007028,-0.00020315,0.00007553,0.00471745,0.000
 09563,-0.00149831,-0.01742438,0.00285288,-0.00001864,-0.00301054,-0.00
 000712,-0.00012409,0.00157537,-0.00000398,0.00011710,-0.00471066,-0.00
 010497,0.00114724,0.01669502,-0.00080688,-0.00001443,-0.00022077,0.000
 99812,0.00006104,0.00075905,0.10644803,0.00246637,-0.30180906,0.000485
 39,-0.00002313,-0.00006466,-0.00448424,-0.00000796,-0.00103698,0.01269
 724,0.00016495,-0.01887949,-0.11579141,-0.00263226,0.32175067,0.007464
 14,-0.00003028,-0.00348310,-0.25084976,0.00068980,0.14138899,0.0001299
 7,0.00001030,-0.00206936,-0.00006576,-0.00000830,0.00067088,-0.0115020
 7,0.00010163,0.01859819,-0.00450188,-0.00010215,-0.00186632,0.00054769
 ,0.00000969,-0.00006074,0.25859605,0.00000413,0.00003865,-0.00001800,0
 .00085758,-0.02827685,-0.00069695,-0.00007624,0.00340835,-0.00005396,-
 0.00001025,-0.00232557,-0.00000251,-0.00004286,-0.00076966,0.00015939,
 -0.00005696,0.00442060,0.00013145,0.00001413,0.00123882,0.00001285,-0.
 00070672,0.02291742,0.02354520,-0.00006920,-0.00692143,0.14327339,-0.0
 0048145,-0.16301127,-0.00070801,-0.00000519,-0.00601478,-0.00065828,0.
 00001014,0.00089907,-0.00925947,0.00006203,0.01121997,-0.00416868,-0.0
 0004604,-0.00024650,0.00142133,-0.00000619,0.00001439,-0.15378936,0.00
 053588,0.16321998,-0.00564085,-0.00003913,-0.00202501,0.00293013,-0.00
 021465,-0.02381311,-0.00464462,-0.00000387,0.00245039,0.00050747,0.000
 01129,-0.00143214,-0.10995090,-0.00140609,-0.11537923,0.01268742,0.000
 27284,0.02400874,0.00086108,-0.00001743,0.00076807,0.00044143,0.000024
 43,0.00081911,0.10215283,0.00003815,0.00466381,-0.00007393,0.00017952,
 0.00081484,0.00010572,-0.00008127,0.00164962,0.00002404,0.00001211,0.0
 0118434,0.00000193,-0.00166228,-0.01927907,-0.00323175,0.00008098,-0.0
 0436220,-0.00000099,-0.00001986,0.00236349,0.00001213,-0.00001850,-0.0
 0311330,0.00001431,0.00136779,0.01763634,-0.00086455,-0.00006406,0.000
 78207,0.00071883,0.00001413,0.00009998,0.00434004,0.00000191,-0.000854
 37,0.00004780,-0.00001620,0.00004454,-0.10672082,-0.00298514,-0.304099
 36,-0.01220786,-0.00017588,-0.01860533,-0.00072462,-0.00002637,-0.0005
 6655,-0.00044933,0.00003021,-0.00006362,0.11561395,0.00317811,0.323202
 62,-0.00013985,-0.00013205,-0.00371785,-0.00023778,-0.00012182,0.00387
 107,-0.00945521,-0.00023510,0.00670644,-0.00024712,-0.00000357,0.00044
 965,-0.00984481,-0.00028077,-0.00677691,-0.46174243,-0.01565224,-0.000
 96322,0.00062218,0.00009978,-0.00025360,-0.00025980,-0.00000725,-0.000
 47523,0.00065601,0.00010336,0.00024656,0.48064880,-0.00025600,0.001705
 08,0.00056596,-0.00026057,0.00180585,-0.00058842,0.00114174,-0.0084229
 6,0.00027164,0.00005713,0.00251310,0.00001075,0.00122498,-0.00814944,-
 0.00020185,-0.01820505,0.00379690,-0.00018418,0.00000877,-0.00151484,-
 0.00003956,0.00005453,0.00246154,-0.00001430,0.00000482,-0.00155787,0.
 00004330,0.01622966,0.00736263,-0.00431780,0.00005023,-0.00659752,0.00
 448178,-0.00007103,-0.00649061,-0.02587017,-0.00110350,0.01210748,-0.0
 0106417,0.00009205,0.00088166,0.02587970,0.00118930,0.01231197,-0.0011
 0457,-0.00020129,-0.07264398,0.00103275,0.00003551,0.00005340,0.001060
 16,-0.00009836,0.00090417,-0.00101077,-0.00002958,0.00006002,0.0009131
 0,0.00013667,0.05941342\\-0.00042248,0.00050539,-0.00002534,0.00044779
 ,-0.00014523,0.00003426,-0.00002347,-0.00043727,-0.00000136,-0.0000064
 9,0.00001024,0.00000951,-0.00002170,-0.00003786,-0.00001451,0.00002472
 ,0.00003263,0.00001001,0.00000333,0.00003384,0.00000069,-0.00000737,0.
 00000574,-0.00000923,0.00000115,0.00004141,-0.00000041,0.00000452,-0.0
 0000890,-0.00000363\\\@


 THOUGH I SPEAK WITH THE TONGUES OF MEN AND OF ANGELS, 
 AND HAVE NOT LOVE,
 I AM BECOME AS SOUNDING BRASS, A TINKLING CYMBAL.
 AND THOUGH I HAVE THE GIFT OF PROPHECY,
 AND UNDERSTAND ALL MYSTERIES, AND ALL KNOWLEDGE.
 AND THOUGH I HAVE ALL FAITH, SO THAT I COULD REMOVE MOUNTAINS,
 AND HAVE NOT LOVE, I AM NOTHING.
 AND THOUGH I BESTOW ALL MY GOODS TO FEED THE POOR,
 AND THOUGH I GIVE MY BODY TO BE BURNED,
 AND HAVE NOT LOVE IT PROFITETH ME NOTHING.
 LOVE SUFFERETH LONG, AND IS KIND,
 LOVE ENVIETH NOT,
 LOVE VAUNTETH NOT ITSELF, IS NOT PUFFED UP,
 DOTH NOT BEHAVE ITSELF UNSEEMLY, SEEKETH NOT HER OWN,
 IS NOT EASILY PROVOKED, THINKETH NO EVIL,
 REJOICETH NOT IN INIQUITY, BUT REJOICETH IN THE TRUTH,
 BEARETH ALL THINGS, BELIEVETH ALL THINGS,
 HOPETH ALL THINGS, ENDURETH ALL THINGS.
 LOVE NEVER FAILETH, BUT WHETHER THERE BE PROPHECIES, THEY SHALL FAIL, 
 WHETHER THERE BE TONGUES, THEY SHALL CEASE,
 WHETHER THERE BE KNOWLEDGE, IT SHALL VANISH AWAY.
 FOR WE KNOW IN PART, AND WE PROPHESY IN PART.
 BUT WHEN THAT WHICH IS PERFECT IS COME, THEN THAT WHICH IS IN PART 
 SHALL BE DONE AWAY. 
 WHEN I WAS A CHILD, I SPAKE AS A CHILD, I UNDERSTOOD AS A CHILD, 
 I THOUGHT AS A CHILD.
 BUT WHEN I BECAME A MAN, I PUT AWAY CHILDISH THINGS.
 FOR NOW WE SEE THROUGH A GLASS, DARKLY, BUT THEN FACE TO FACE.
 NOW I KNOW IN PART. BUT THEN SHALL I KNOW EVEN AS ALSO I AM KNOWN.
 AND NOW ABIDETH FAITH, HOPE AND LOVE, THESE THREE.
 BUT THE GREATEST OF THESE IS LOVE.

                     I CORINTHIANS 13
 Job cpu time:       0 days  0 hours 17 minutes 28.1 seconds.
 Elapsed time:       0 days  0 hours  1 minutes 28.1 seconds.
 File lengths (MBytes):  RWF=     34 Int=      0 D2E=      0 Chk=     32 Scr=      1
 Normal termination of Gaussian 16 at Fri Jun 10 02:26:21 2022.
