 Entering Gaussian System, Link 0=g16
 Input=ts_zmat_field_N100.gjf
 Output=ts_zmat_field_N100.out
 Initial command:
 /software/gaussian/g16-a03/l1.exe "/local_scratch/9899696/Gau-30343.inp" -scrdir="/local_scratch/9899696/"
 Entering Link 1 = /software/gaussian/g16-a03/l1.exe PID=     30344.
  
 Copyright (c) 1988,1990,1992,1993,1995,1998,2003,2009,2016,
            Gaussian, Inc.  All Rights Reserved.
  
 This is part of the Gaussian(R) 16 program.  It is based on
 the Gaussian(R) 09 system (copyright 2009, Gaussian, Inc.),
 the Gaussian(R) 03 system (copyright 2003, Gaussian, Inc.),
 the Gaussian(R) 98 system (copyright 1998, Gaussian, Inc.),
 the Gaussian(R) 94 system (copyright 1995, Gaussian, Inc.),
 the Gaussian 92(TM) system (copyright 1992, Gaussian, Inc.),
 the Gaussian 90(TM) system (copyright 1990, Gaussian, Inc.),
 the Gaussian 88(TM) system (copyright 1988, Gaussian, Inc.),
 the Gaussian 86(TM) system (copyright 1986, Carnegie Mellon
 University), and the Gaussian 82(TM) system (copyright 1983,
 Carnegie Mellon University). Gaussian is a federally registered
 trademark of Gaussian, Inc.
  
 This software contains proprietary and confidential information,
 including trade secrets, belonging to Gaussian, Inc.
  
 This software is provided under written license and may be
 used, copied, transmitted, or stored only in accord with that
 written license.
  
 The following legend is applicable only to US Government
 contracts under FAR:
  
                    RESTRICTED RIGHTS LEGEND
  
 Use, reproduction and disclosure by the US Government is
 subject to restrictions as set forth in subparagraphs (a)
 and (c) of the Commercial Computer Software - Restricted
 Rights clause in FAR 52.227-19.
  
 Gaussian, Inc.
 340 Quinnipiac St., Bldg. 40, Wallingford CT 06492
  
  
 ---------------------------------------------------------------
 Warning -- This program may not be used in any manner that
 competes with the business of Gaussian, Inc. or will provide
 assistance to any competitor of Gaussian, Inc.  The licensee
 of this program is prohibited from giving any competitor of
 Gaussian, Inc. access to this program.  By using this program,
 the user acknowledges that Gaussian, Inc. is engaged in the
 business of creating and licensing software in the field of
 computational chemistry and represents and warrants to the
 licensee that it is not a competitor of Gaussian, Inc. and that
 it will not use this program in any manner prohibited above.
 ---------------------------------------------------------------
  

 Cite this work as:
 Gaussian 16, Revision A.03,
 M. J. Frisch, G. W. Trucks, H. B. Schlegel, G. E. Scuseria, 
 M. A. Robb, J. R. Cheeseman, G. Scalmani, V. Barone, 
 G. A. Petersson, H. Nakatsuji, X. Li, M. Caricato, A. V. Marenich, 
 J. Bloino, B. G. Janesko, R. Gomperts, B. Mennucci, H. P. Hratchian, 
 J. V. Ortiz, A. F. Izmaylov, J. L. Sonnenberg, D. Williams-Young, 
 F. Ding, F. Lipparini, F. Egidi, J. Goings, B. Peng, A. Petrone, 
 T. Henderson, D. Ranasinghe, V. G. Zakrzewski, J. Gao, N. Rega, 
 G. Zheng, W. Liang, M. Hada, M. Ehara, K. Toyota, R. Fukuda, 
 J. Hasegawa, M. Ishida, T. Nakajima, Y. Honda, O. Kitao, H. Nakai, 
 T. Vreven, K. Throssell, J. A. Montgomery, Jr., J. E. Peralta, 
 F. Ogliaro, M. J. Bearpark, J. J. Heyd, E. N. Brothers, K. N. Kudin, 
 V. N. Staroverov, T. A. Keith, R. Kobayashi, J. Normand, 
 K. Raghavachari, A. P. Rendell, J. C. Burant, S. S. Iyengar, 
 J. Tomasi, M. Cossi, J. M. Millam, M. Klene, C. Adamo, R. Cammi, 
 J. W. Ochterski, R. L. Martin, K. Morokuma, O. Farkas, 
 J. B. Foresman, and D. J. Fox, Gaussian, Inc., Wallingford CT, 2016.
 
 ******************************************
 Gaussian 16:  ES64L-G16RevA.03 25-Dec-2016
                18-Mar-2022 
 ******************************************
 %nprocshared=12
 Will use up to   12 processors via shared memory.
 %chk=checkpoint.chk
 %mem=12GB
 ----------------------------------------------------------------------
 # Opt=(TS, CalcFC, noeigentest, Z-matrix, MaxStep=10) geom=allcheckpoi
 nt guess=read Field=read NoSymm B3LYP/Def2TZVP
 ----------------------------------------------------------------------
 1/5=1,8=10,10=4,11=1,18=40,26=3,29=7,38=1/1,3;
 2/12=2,15=1,29=3,40=1/2;
 3/5=44,7=101,11=2,14=-6,25=1,30=1,71=2,74=-5,116=-2,140=1/1,2,3;
 4/5=1/1;
 5/5=2,38=6/2;
 8/6=4,10=90,11=11/1;
 11/6=1,8=1,9=11,15=111,16=1,31=1/1,2,10;
 10/6=1,13=1,31=1/2;
 6/7=2,8=2,9=2,10=2,28=1/1;
 7/10=1,18=20,25=1,30=1/1,2,3,16;
 1/5=1,8=10,10=4,11=1,18=40,26=3/3(2);
 2/15=1,29=3/2;
 99//99;
 2/15=1,29=3/2;
 3/5=44,7=101,11=2,14=-2,25=1,30=1,71=1,74=-5/1,2,3;
 4/5=5,16=3,69=1/1;
 5/5=2,38=5/2;
 7/30=1/1,2,3,16;
 1/5=1,8=10,11=1,18=40,26=3/3(-5);
 2/15=1,29=3/2;
 6/7=2,8=2,9=2,10=2,19=2,28=1/1;
 99/9=1/99;
 Structure from the checkpoint file:  "checkpoint.chk"
 -----------------
 ts_zmat_initalOpt
 -----------------
 Charge =  0 Multiplicity = 1
 Z-Matrix found in chk file.
 C
 C,1,R2
 C,1,R3,2,A3
 H,1,R4,2,A4,3,D4,0
 H,2,R5,1,A5,3,D5,0
 H,3,R6,1,A6,2,D6,0
 C,3,R7,1,A7,6,D7,0
 C,2,R8,1,A8,5,D8,0
 H,7,R9,3,A9,1,D9,0
 O,7,R10,3,A10,9,D10,0
 H,8,R11,2,A11,1,D11,0
 H,8,R12,2,A12,11,D12,0
      Variables:
 R2=1.38378487
 R3=1.40416814
 R4=1.08506246
 R5=1.08254979
 R6=1.08114926
 R7=1.403813
 R8=1.39414216
 R9=1.09721154
 R10=1.26694587
 R11=1.08290166
 R12=1.08143571
 A3=120.58872875
 A4=120.36036496
 A5=121.21916369
 A6=119.67310845
 A7=119.07595534
 A8=117.02056506
 A9=115.65995022
 A10=128.4305848
 A11=120.64827134
 A12=118.25947256
 D4=-170.05775873
 D5=152.04738216
 D6=-179.0463915
 D7=155.53891468
 D8=-172.13670605
 D9=-144.18298398
 D10=171.39620266
 D11=164.26625722
 D12=151.30079976
 Recover connectivity data from disk.

 GradGradGradGradGradGradGradGradGradGradGradGradGradGradGradGradGradGrad
 Berny optimization.
 Initialization pass.
                       ----------------------------
                       !    Initial Parameters    !
                       ! (Angstroms and Degrees)  !
 ----------------------                            ----------------------
 !      Name          Value   Derivative information (Atomic Units)     !
 ------------------------------------------------------------------------
 !       R2          1.3838   calculate D2E/DX2 analytically            !
 !       R3          1.4042   calculate D2E/DX2 analytically            !
 !       R4          1.0851   calculate D2E/DX2 analytically            !
 !       R5          1.0825   calculate D2E/DX2 analytically            !
 !       R6          1.0811   calculate D2E/DX2 analytically            !
 !       R7          1.4038   calculate D2E/DX2 analytically            !
 !       R8          1.3941   calculate D2E/DX2 analytically            !
 !       R9          1.0972   calculate D2E/DX2 analytically            !
 !       R10         1.2669   calculate D2E/DX2 analytically            !
 !       R11         1.0829   calculate D2E/DX2 analytically            !
 !       R12         1.0814   calculate D2E/DX2 analytically            !
 !       A3        120.5887   calculate D2E/DX2 analytically            !
 !       A4        120.3604   calculate D2E/DX2 analytically            !
 !       A5        121.2192   calculate D2E/DX2 analytically            !
 !       A6        119.6731   calculate D2E/DX2 analytically            !
 !       A7        119.076    calculate D2E/DX2 analytically            !
 !       A8        117.0206   calculate D2E/DX2 analytically            !
 !       A9        115.66     calculate D2E/DX2 analytically            !
 !       A10       128.4306   calculate D2E/DX2 analytically            !
 !       A11       120.6483   calculate D2E/DX2 analytically            !
 !       A12       118.2595   calculate D2E/DX2 analytically            !
 !       D4       -170.0578   calculate D2E/DX2 analytically            !
 !       D5        152.0474   calculate D2E/DX2 analytically            !
 !       D6       -179.0464   calculate D2E/DX2 analytically            !
 !       D7        155.5389   calculate D2E/DX2 analytically            !
 !       D8       -172.1367   calculate D2E/DX2 analytically            !
 !       D9       -144.183    calculate D2E/DX2 analytically            !
 !       D10       171.3962   calculate D2E/DX2 analytically            !
 !       D11       164.2663   calculate D2E/DX2 analytically            !
 !       D12       151.3008   calculate D2E/DX2 analytically            !
 ------------------------------------------------------------------------
 Trust Radius=1.00D-01 FncErr=1.00D-07 GrdErr=1.00D-06 EigMax=2.50D+02 EigMin=1.00D-04
 Number of steps in this run=     40 maximum allowed number of steps=    100.
 Search for a saddle point of order  1.
 GradGradGradGradGradGradGradGradGradGradGradGradGradGradGradGradGradGrad

 ---------------------------------------------------------------------------------------------------
                            Z-MATRIX (ANGSTROMS AND DEGREES)
   CD    Cent   Atom    N1       Length/X        N2       Alpha/Y        N3        Beta/Z          J
 ---------------------------------------------------------------------------------------------------
      1      1  C 
      2      2  C        1   1.383785(     1)
      3      3  C        1   1.404168(     2)      2  120.589(    12)
      4      4  H        1   1.085062(     3)      2  120.360(    13)      3 -170.058(    22)      0
      5      5  H        2   1.082550(     4)      1  121.219(    14)      3  152.047(    23)      0
      6      6  H        3   1.081149(     5)      1  119.673(    15)      2 -179.046(    24)      0
      7      7  C        3   1.403813(     6)      1  119.076(    16)      6  155.539(    25)      0
      8      8  C        2   1.394142(     7)      1  117.021(    17)      5 -172.137(    26)      0
      9      9  H        7   1.097212(     8)      3  115.660(    18)      1 -144.183(    27)      0
     10     10  O        7   1.266946(     9)      3  128.431(    19)      9  171.396(    28)      0
     11     11  H        8   1.082902(    10)      2  120.648(    20)      1  164.266(    29)      0
     12     12  H        8   1.081436(    11)      2  118.259(    21)     11  151.301(    30)      0
 ---------------------------------------------------------------------------------------------------
                         Z-Matrix orientation:                         
 ---------------------------------------------------------------------
 Center     Atomic      Atomic             Coordinates (Angstroms)
 Number     Number       Type             X           Y           Z
 ---------------------------------------------------------------------
      1          6           0        0.000000    0.000000    0.000000
      2          6           0        0.000000    0.000000    1.383785
      3          6           0        1.208767    0.000000   -0.714542
      4          1           0       -0.922200    0.161650   -0.548431
      5          1           0       -0.817780    0.433954    1.944885
      6          1           0        1.191557    0.015634   -1.795441
      7          6           0        2.368561    0.489372   -0.093186
      8          6           0        1.166399   -0.426595    2.017158
      9          1           0        3.065128    1.030279   -0.745940
     10          8           0        2.647397    0.518782    1.142345
     11          1           0        1.332417   -0.218319    3.066794
     12          1           0        1.655939   -1.315689    1.643839
 ---------------------------------------------------------------------
                    Distance matrix (angstroms):
                    1          2          3          4          5
     1  C    0.000000
     2  C    1.383785   0.000000
     3  C    1.404168   2.421589   0.000000
     4  H    1.085062   2.147101   2.143536   0.000000
     5  H    2.153986   1.082550   3.371611   2.510314   0.000000
     6  H    2.154915   3.395222   1.081149   2.458521   4.266435
     7  C    2.420383   2.833904   1.403813   3.338227   3.782800
     8  C    2.368839   1.394142   2.765133   3.360138   2.163964
     9  H    3.318570   3.871978   2.123331   4.085622   4.761629
    10  O    2.929642   2.708531   2.405581   3.965891   3.557910
    11  H    3.350854   2.157665   3.789651   4.277560   2.511471
    12  H    2.678690   2.130915   2.737327   3.692612   3.044859
                    6          7          8          9         10
     6  H    0.000000
     7  C    2.123073   0.000000
     8  C    3.838243   2.595716   0.000000
     9  H    2.375127   1.097212   3.655456   0.000000
    10  O    3.317110   1.266946   1.962750   2.000437   0.000000
    11  H    4.869898   3.399984   1.082902   4.370151   2.444584
    12  H    3.717085   2.604483   1.081436   3.633238   2.144707
                   11         12
    11  H    0.000000
    12  H    1.825839   0.000000
 Symmetry turned off by external request.
 Stoichiometry    C5H6O
 Framework group  C1[X(C5H6O)]
 Deg. of freedom    30
 Full point group                 C1      NOp   1
 Rotational constants (GHZ):           5.5559159           4.6756136           2.7152679
 Standard basis: def2TZVP (5D, 7F)
 The following finite field(s) will be applied:
 An electric field of              0.0067  0.0068  0.0030
   222 basis functions,   354 primitive gaussians,   252 cartesian basis functions
    22 alpha electrons       22 beta electrons
       nuclear repulsion energy       217.9777167686 Hartrees.
 NAtoms=   12 NActive=   12 NUniq=   12 SFac= 1.00D+00 NAtFMM=   60 NAOKFM=F Big=F
 Integral buffers will be    131072 words long.
 Raffenetti 2 integral format.
 Two-electron integral symmetry is turned off.
 One-electron integrals computed using PRISM.
   1 Symmetry operations used in ECPInt.
 ECPInt:  NShTT=    4095 NPrTT=   12396 LenC2=    4074 LenP2D=   10361.
 LDataN:  DoStor=T MaxTD1= 6 Len=  172
 NBasis=   222 RedAO= T EigKep=  1.11D-04  NBF=   222
 NBsUse=   222 1.00D-06 EigRej= -1.00D+00 NBFU=   222
 The nuclear repulsion energy is now       218.8971212004 hartrees.
 Initial guess from the checkpoint file:  "checkpoint.chk"
 B after Tr=     0.000000    0.000000    0.000000
         Rot=    1.000000   -0.000000    0.000000    0.000000 Ang=   0.00 deg.
 Keep R1 ints in memory in canonical form, NReq=319363861.
 Requested convergence on RMS density matrix=1.00D-08 within 128 cycles.
 Requested convergence on MAX density matrix=1.00D-06.
 Requested convergence on             energy=1.00D-06.
 No special actions if energy rises.
 SCF Done:  E(RB3LYP) =  -269.398277342     A.U. after   10 cycles
            NFock= 10  Conv=0.93D-08     -V/T= 2.0050
 DoSCS=F DFT=T ScalE2(SS,OS)=  1.000000  1.000000
 Range of M.O.s used for correlation:     1   222
 NBasis=   222 NAE=    22 NBE=    22 NFC=     0 NFV=     0
 NROrb=    222 NOA=    22 NOB=    22 NVA=   200 NVB=   200

 **** Warning!!: The largest alpha MO coefficient is  0.19941773D+02

   1 Symmetry operations used in ECPInt.
 ECPInt:  NShTT=    4095 NPrTT=   12396 LenC2=    4074 LenP2D=   10361.
 LDataN:  DoStor=T MaxTD1= 7 Len=  274
 Symmetrizing basis deriv contribution to polar:
 IMax=3 JMax=2 DiffMx= 0.00D+00
 G2DrvN: will do    13 centers at a time, making    1 passes.
 Calling FoFCou, ICntrl=  3107 FMM=F I1Cent=   0 AccDes= 0.00D+00.
 End of G2Drv F.D. properties file   721 does not exist.
 End of G2Drv F.D. properties file   722 does not exist.
 End of G2Drv F.D. properties file   788 does not exist.
          IDoAtm=111111111111
          Differentiating once with respect to nuclear coordinates.
 Keep R1 ints in memory in canonical form, NReq=319333990.
          There are    39 degrees of freedom in the 1st order CPHF.  IDoFFX=6 NUNeed=     0.
     33 vectors produced by pass  0 Test12= 1.13D-14 2.56D-09 XBig12= 1.48D-01 1.66D-01.
 AX will form    33 AO Fock derivatives at one time.
     33 vectors produced by pass  1 Test12= 1.13D-14 2.56D-09 XBig12= 1.98D-02 4.26D-02.
     33 vectors produced by pass  2 Test12= 1.13D-14 2.56D-09 XBig12= 2.53D-04 3.09D-03.
     33 vectors produced by pass  3 Test12= 1.13D-14 2.56D-09 XBig12= 1.10D-06 1.58D-04.
     33 vectors produced by pass  4 Test12= 1.13D-14 2.56D-09 XBig12= 2.56D-09 7.37D-06.
     31 vectors produced by pass  5 Test12= 1.13D-14 2.56D-09 XBig12= 5.32D-12 3.19D-07.
      9 vectors produced by pass  6 Test12= 1.13D-14 2.56D-09 XBig12= 8.33D-15 1.33D-08.
 InvSVY:  IOpt=1 It=  1 EMax= 3.22D-15
 Solved reduced A of dimension   205 with    33 vectors.
 End of Minotr F.D. properties file   721 does not exist.
 End of Minotr F.D. properties file   722 does not exist.
 End of Minotr F.D. properties file   788 does not exist.

 **********************************************************************

            Population analysis using the SCF density.

 **********************************************************************

 Alpha  occ. eigenvalues --  -19.16496 -10.27403 -10.24243 -10.21091 -10.18820
 Alpha  occ. eigenvalues --  -10.18430  -1.06719  -0.84571  -0.77595  -0.68603
 Alpha  occ. eigenvalues --   -0.62721  -0.54616  -0.52835  -0.48956  -0.47960
 Alpha  occ. eigenvalues --   -0.46296  -0.41433  -0.40015  -0.39313  -0.34849
 Alpha  occ. eigenvalues --   -0.30776  -0.23402
 Alpha virt. eigenvalues --   -0.08923  -0.01755   0.02419   0.03562   0.04939
 Alpha virt. eigenvalues --    0.06335   0.08214   0.09693   0.11571   0.13010
 Alpha virt. eigenvalues --    0.15819   0.17843   0.18949   0.20359   0.20944
 Alpha virt. eigenvalues --    0.21715   0.22986   0.25092   0.26381   0.27278
 Alpha virt. eigenvalues --    0.29293   0.31543   0.32171   0.34015   0.36848
 Alpha virt. eigenvalues --    0.37527   0.38503   0.40598   0.40921   0.42123
 Alpha virt. eigenvalues --    0.43049   0.43833   0.44054   0.46100   0.48128
 Alpha virt. eigenvalues --    0.51167   0.52017   0.54284   0.55018   0.56058
 Alpha virt. eigenvalues --    0.59721   0.63612   0.66697   0.68322   0.73327
 Alpha virt. eigenvalues --    0.77597   0.80669   0.85061   0.85916   0.87325
 Alpha virt. eigenvalues --    0.90556   0.92152   0.94647   0.94821   0.96441
 Alpha virt. eigenvalues --    0.99801   1.01956   1.05711   1.09135   1.10193
 Alpha virt. eigenvalues --    1.13380   1.15417   1.17607   1.21785   1.21880
 Alpha virt. eigenvalues --    1.27463   1.29849   1.32870   1.37930   1.38178
 Alpha virt. eigenvalues --    1.41512   1.42282   1.44805   1.45735   1.49503
 Alpha virt. eigenvalues --    1.50949   1.55977   1.58108   1.61837   1.63222
 Alpha virt. eigenvalues --    1.65443   1.66814   1.71758   1.76117   1.76914
 Alpha virt. eigenvalues --    1.79668   1.81076   1.83673   1.87643   1.89533
 Alpha virt. eigenvalues --    1.92578   1.95121   2.03845   2.04494   2.08566
 Alpha virt. eigenvalues --    2.12703   2.13837   2.18513   2.18953   2.23776
 Alpha virt. eigenvalues --    2.25939   2.30008   2.36352   2.40600   2.43123
 Alpha virt. eigenvalues --    2.47777   2.49883   2.51395   2.53597   2.54362
 Alpha virt. eigenvalues --    2.56807   2.59656   2.61193   2.63608   2.66466
 Alpha virt. eigenvalues --    2.68659   2.69164   2.74998   2.76956   2.77303
 Alpha virt. eigenvalues --    2.79705   2.82072   2.82942   2.84680   2.87172
 Alpha virt. eigenvalues --    2.89901   2.93275   2.94271   2.96534   3.00066
 Alpha virt. eigenvalues --    3.01157   3.03369   3.04522   3.10087   3.11921
 Alpha virt. eigenvalues --    3.13545   3.16355   3.18249   3.21169   3.21788
 Alpha virt. eigenvalues --    3.23570   3.26264   3.27650   3.32963   3.34790
 Alpha virt. eigenvalues --    3.37743   3.40235   3.41800   3.43388   3.46135
 Alpha virt. eigenvalues --    3.48081   3.50520   3.56678   3.61435   3.61778
 Alpha virt. eigenvalues --    3.67371   3.83854   3.87745   3.90307   3.92267
 Alpha virt. eigenvalues --    3.95425   4.00931   4.02783   4.06968   4.09909
 Alpha virt. eigenvalues --    4.14341   4.16503   4.24508   4.28330   4.31412
 Alpha virt. eigenvalues --    4.36875   4.42357   4.47095   4.52887   4.63723
 Alpha virt. eigenvalues --    4.65199   4.70600   4.79398   4.84131   4.85377
 Alpha virt. eigenvalues --    5.04822   5.13601   5.22756   5.27014   5.48270
 Alpha virt. eigenvalues --    5.58206   5.95329   6.17638   6.29989   6.48297
 Alpha virt. eigenvalues --    6.70213   6.75627   6.94014   7.05756  22.04531
 Alpha virt. eigenvalues --   22.32673  22.48056  22.68469  22.85954  43.78722
          Condensed to atoms (all electrons):
               1          2          3          4          5          6
     1  C    4.860498   0.490961   0.467444   0.424040  -0.048665  -0.041746
     2  C    0.490961   4.999865  -0.031487  -0.041468   0.424694   0.008643
     3  C    0.467444  -0.031487   5.225383  -0.047744   0.008725   0.409767
     4  H    0.424040  -0.041468  -0.047744   0.513341  -0.005699  -0.006044
     5  H   -0.048665   0.424694   0.008725  -0.005699   0.556372  -0.000192
     6  H   -0.041746   0.008643   0.409767  -0.006044  -0.000192   0.546758
     7  C   -0.024530  -0.060338   0.432977   0.003554  -0.002312  -0.041416
     8  C   -0.075681   0.488027  -0.006107   0.010873  -0.047649   0.000121
     9  H   -0.001540  -0.003436  -0.102429  -0.000780   0.000099  -0.000797
    10  O   -0.014726  -0.026857  -0.129718  -0.000707   0.001152   0.005955
    11  H    0.010382  -0.047749  -0.000626  -0.000211  -0.005998   0.000013
    12  H   -0.030873  -0.019203   0.028094  -0.000157   0.005442   0.000111
               7          8          9         10         11         12
     1  C   -0.024530  -0.075681  -0.001540  -0.014726   0.010382  -0.030873
     2  C   -0.060338   0.488027  -0.003436  -0.026857  -0.047749  -0.019203
     3  C    0.432977  -0.006107  -0.102429  -0.129718  -0.000626   0.028094
     4  H    0.003554   0.010873  -0.000780  -0.000707  -0.000211  -0.000157
     5  H   -0.002312  -0.047649   0.000099   0.001152  -0.005998   0.005442
     6  H   -0.041416   0.000121  -0.000797   0.005955   0.000013   0.000111
     7  C    4.687885  -0.042587   0.405739   0.491448   0.000866  -0.008939
     8  C   -0.042587   4.855761   0.003198   0.062038   0.396032   0.425314
     9  H    0.405739   0.003198   0.669643  -0.040521  -0.000114  -0.001330
    10  O    0.491448   0.062038  -0.040521   8.051443  -0.002820  -0.049226
    11  H    0.000866   0.396032  -0.000114  -0.002820   0.577758  -0.032898
    12  H   -0.008939   0.425314  -0.001330  -0.049226  -0.032898   0.534516
 Mulliken charges:
               1
     1  C   -0.015564
     2  C   -0.181651
     3  C   -0.254279
     4  H    0.151003
     5  H    0.114031
     6  H    0.118825
     7  C    0.157653
     8  C   -0.069341
     9  H    0.072268
    10  O   -0.347462
    11  H    0.105367
    12  H    0.149149
 Sum of Mulliken charges =  -0.00000
 Mulliken charges with hydrogens summed into heavy atoms:
               1
     1  C    0.135439
     2  C   -0.067620
     3  C   -0.135454
     7  C    0.229921
     8  C    0.185175
    10  O   -0.347462
 APT charges:
               1
     1  C   -0.381962
     2  C   -0.458824
     3  C   -0.546378
     4  H    0.302784
     5  H    0.384035
     6  H    0.382970
     7  C   -0.382600
     8  C   -0.659071
     9  H    0.508635
    10  O   -0.087700
    11  H    0.589943
    12  H    0.348166
 Sum of APT charges =  -0.00000
 APT charges with hydrogens summed into heavy atoms:
               1
     1  C   -0.079178
     2  C   -0.074788
     3  C   -0.163408
     7  C    0.126035
     8  C    0.279039
    10  O   -0.087700
 Electronic spatial extent (au):  <R**2>=            800.3435
 Charge=             -0.0000 electrons
 Dipole moment (field-independent basis, Debye):
    X=             -2.3175    Y=             -0.9693    Z=             -0.8908  Tot=              2.6653
 Quadrupole moment (field-independent basis, Debye-Ang):
   XX=            -41.8476   YY=            -37.8425   ZZ=            -32.9078
   XY=             -2.8075   XZ=             -4.0530   YZ=             -2.3260
 Traceless Quadrupole moment (field-independent basis, Debye-Ang):
   XX=             -4.3150   YY=             -0.3098   ZZ=              4.6248
   XY=             -2.8075   XZ=             -4.0530   YZ=             -2.3260
 Octapole moment (field-independent basis, Debye-Ang**2):
  XXX=           -153.7732  YYY=            -12.1944  ZZZ=            -59.5060  XYY=            -44.5582
  XXY=             -8.1539  XXZ=            -37.6829  XZZ=            -44.8183  YZZ=             -6.2009
  YYZ=            -22.8618  XYZ=             -7.5174
 Hexadecapole moment (field-independent basis, Debye-Ang**3):
 XXXX=           -679.9653 YYYY=            -77.5623 ZZZZ=           -331.7400 XXXY=            -47.5869
 XXXZ=           -123.6406 YYYX=            -38.0456 YYYZ=              7.5380 ZZZX=            -68.0167
 ZZZY=              7.4896 XXYY=           -117.1968 XXZZ=           -174.4683 YYZZ=            -78.4144
 XXYZ=            -13.5680 YYXZ=            -24.8016 ZZXY=            -20.8631
 N-N= 2.188971212004D+02 E-N=-1.064830650595D+03  KE= 2.680564800006D+02
  Exact polarizability:   0.000   0.000   0.000   0.000   0.000   0.000
 Approx polarizability: 133.548  14.228  67.970  -2.366  -6.322 129.306
   1 Symmetry operations used in ECPInt.
 ECPInt:  NShTT=    4095 NPrTT=   12396 LenC2=    4074 LenP2D=   10361.
 LDataN:  DoStor=T MaxTD1= 8 Len=  415
 Calling FoFJK, ICntrl=    100147 FMM=F ISym2X=0 I1Cent= 0 IOpClX= 0 NMat=1 NMatS=1 NMatT=0.
 -------------------------------------------------------------------
 Center     Atomic                   Forces (Hartrees/Bohr)
 Number     Number              X              Y              Z
 -------------------------------------------------------------------
      1        6          -0.000496834   -0.002126391    0.000223826
      2        6           0.000610864    0.001333018    0.000237111
      3        6           0.001236103    0.001992870    0.000047958
      4        1           0.000032426   -0.000242770    0.000010449
      5        1          -0.000165758   -0.000296319   -0.000056997
      6        1          -0.000094880   -0.000247474    0.000012885
      7        6          -0.001615570   -0.000894956   -0.001686009
      8        6          -0.001278908   -0.000574394   -0.000091726
      9        1           0.000107250    0.000095556   -0.000384877
     10        8           0.001833891    0.001032947    0.001524174
     11        1          -0.000130708   -0.000103429    0.000145327
     12        1          -0.000037877    0.000031342    0.000017879
 -------------------------------------------------------------------
 Cartesian Forces:  Max     0.002126391 RMS     0.000881552
 -----------------------------------------------------------------------------------------------
                       Internal Coordinate Forces (Hartree/Bohr or radian)
  Cent   Atom   N1       Length/X         N2         Alpha/Y        N3         Beta/Z          J
 -----------------------------------------------------------------------------------------------
      1  C 
      2  C        1   0.000252(     1)
      3  C        1   0.001510(     2)      2   0.004757(    12)
      4  H        1  -0.000069(     3)      2   0.000058(    13)      3  -0.000413(    22)     0
      5  H        2  -0.000023(     4)      1  -0.000108(    14)      3  -0.002014(    23)     0
      6  H        3  -0.000015(     5)      1  -0.000190(    15)      2  -0.003693(    24)     0
      7  C        3   0.000108(     6)      1   0.005439(    16)      6  -0.003252(    25)     0
      8  C        2  -0.000981(     7)      1   0.001718(    17)      5  -0.002607(    26)     0
      9  H        7   0.000344(     8)      3  -0.000454(    18)      1  -0.000604(    27)     0
     10  O        7   0.001914(     9)      3   0.004157(    19)      9  -0.000514(    28)     0
     11  H        8   0.000101(    10)      2  -0.000150(    20)      1   0.000296(    29)     0
     12  H        8  -0.000049(    11)      2  -0.000023(    21)     11  -0.000025(    30)     0
 -----------------------------------------------------------------------------------------------
 Internal  Forces:  Max     0.005439291 RMS     0.001964697

 GradGradGradGradGradGradGradGradGradGradGradGradGradGradGradGradGradGrad
 Berny optimization.
 Search for a saddle point.
 Step number   1 out of a maximum of   40
 All quantities printed in internal units (Hartrees-Bohrs-Radians)
 Swapping is turned off.
 Second derivative matrix not updated -- analytic derivatives used.
 ITU=  0
     Eigenvalues ---   -0.81306   0.02576   0.02745   0.04032   0.04165
     Eigenvalues ---    0.04995   0.10834   0.12670   0.14394   0.16630
     Eigenvalues ---    0.18433   0.19856   0.25328   0.27217   0.29488
     Eigenvalues ---    0.32002   0.34761   0.35128   0.35358   0.35763
     Eigenvalues ---    0.36293   0.39760   0.40131   0.43681   0.46307
     Eigenvalues ---    0.52769   0.56130   0.69853   0.92830   2.75355
 Eigenvectors required to have negative eigenvalues:
                          A7        A3        D12       R8        R10
   1                    0.47140   0.42497   0.28779  -0.27459  -0.26589
                          A10       A8        R7        D11       R2
   1                    0.25841   0.25008   0.23020   0.21862   0.19014
 RFO step:  Lambda0=5.453379403D-05 Lambda=-9.92275773D-05.
 Linear search not attempted -- option 19 set.
 Variable       Old X    -DE/DX   Delta X   Delta X   Delta X     New X
                                 (Linear)    (Quad)   (Total)
    R2        2.61497   0.00025   0.00000  -0.00308  -0.00308   2.61189
    R3        2.65349   0.00151   0.00000   0.00361   0.00361   2.65710
    R4        2.05047  -0.00007   0.00000  -0.00040  -0.00040   2.05007
    R5        2.04572  -0.00002   0.00000  -0.00021  -0.00021   2.04551
    R6        2.04308  -0.00001   0.00000  -0.00018  -0.00018   2.04290
    R7        2.65282   0.00011   0.00000  -0.00542  -0.00542   2.64741
    R8        2.63455  -0.00098   0.00000   0.00165   0.00165   2.63620
    R9        2.07343   0.00034   0.00000   0.00036   0.00036   2.07379
   R10        2.39418   0.00191   0.00000   0.00692   0.00692   2.40110
   R11        2.04639   0.00010   0.00000   0.00030   0.00030   2.04669
   R12        2.04362  -0.00005   0.00000   0.00025   0.00025   2.04387
    A3        2.10467   0.00476   0.00000  -0.00202  -0.00202   2.10265
    A4        2.10068   0.00006   0.00000   0.00219   0.00219   2.10288
    A5        2.11567  -0.00011   0.00000   0.00241   0.00241   2.11808
    A6        2.08869  -0.00019   0.00000  -0.00016  -0.00016   2.08853
    A7        2.07827   0.00544   0.00000   0.00066   0.00066   2.07893
    A8        2.04239   0.00172   0.00000  -0.00172  -0.00172   2.04067
    A9        2.01865  -0.00045   0.00000   0.00037   0.00037   2.01902
   A10        2.24154   0.00416   0.00000   0.00195   0.00195   2.24349
   A11        2.10571  -0.00015   0.00000  -0.00113  -0.00113   2.10458
   A12        2.06402  -0.00002   0.00000  -0.00136  -0.00136   2.06266
    D4       -2.96807  -0.00041   0.00000  -0.00865  -0.00865  -2.97671
    D5        2.65373  -0.00201   0.00000   0.02106   0.02106   2.67479
    D6       -3.12495  -0.00369   0.00000  -0.01427  -0.01427  -3.13922
    D7        2.71467  -0.00325   0.00000   0.00790   0.00790   2.72256
    D8       -3.00435  -0.00261   0.00000  -0.01356  -0.01356  -3.01791
    D9       -2.51647  -0.00060   0.00000  -0.00757  -0.00757  -2.52404
   D10        2.99143  -0.00051   0.00000   0.00031   0.00031   2.99174
   D11        2.86699   0.00030   0.00000   0.00560   0.00560   2.87259
   D12        2.64070  -0.00003   0.00000  -0.00681  -0.00681   2.63389
         Item               Value     Threshold  Converged?
 Maximum Force            0.005439     0.000450     NO 
 RMS     Force            0.001965     0.000300     NO 
 Maximum Displacement     0.021065     0.001800     NO 
 RMS     Displacement     0.006407     0.001200     NO 
 Predicted change in Energy=-2.240290D-05
 GradGradGradGradGradGradGradGradGradGradGradGradGradGradGradGradGradGrad

 ---------------------------------------------------------------------------------------------------
                            Z-MATRIX (ANGSTROMS AND DEGREES)
   CD    Cent   Atom    N1       Length/X        N2       Alpha/Y        N3        Beta/Z          J
 ---------------------------------------------------------------------------------------------------
      1      1  C 
      2      2  C        1   1.382155(     1)
      3      3  C        1   1.406077(     2)      2  120.473(    12)
      4      4  H        1   1.084851(     3)      2  120.486(    13)      3 -170.553(    22)      0
      5      5  H        2   1.082438(     4)      1  121.357(    14)      3  153.254(    23)      0
      6      6  H        3   1.081054(     5)      1  119.664(    15)      2 -179.864(    24)      0
      7      7  C        3   1.400947(     6)      1  119.114(    16)      6  155.991(    25)      0
      8      8  C        2   1.395016(     7)      1  116.922(    17)      5 -172.913(    26)      0
      9      9  H        7   1.097400(     8)      3  115.681(    18)      1 -144.617(    27)      0
     10     10  O        7   1.270607(     9)      3  128.542(    19)      9  171.414(    28)      0
     11     11  H        8   1.083059(    10)      2  120.583(    20)      1  164.587(    29)      0
     12     12  H        8   1.081568(    11)      2  118.181(    21)     11  150.911(    30)      0
 ---------------------------------------------------------------------------------------------------
                         Z-Matrix orientation:                         
 ---------------------------------------------------------------------
 Center     Atomic      Atomic             Coordinates (Angstroms)
 Number     Number       Type             X           Y           Z
 ---------------------------------------------------------------------
      1          6           0        0.000000    0.000000    0.000000
      2          6           0        0.000000    0.000000    1.382155
      3          6           0        1.211853    0.000000   -0.713068
      4          1           0       -0.922195    0.153443   -0.550376
      5          1           0       -0.825443    0.415980    1.945427
      6          1           0        1.196586    0.002232   -1.794012
      7          6           0        2.366923    0.495333   -0.094108
      8          6           0        1.171328   -0.418454    2.013786
      9          1           0        3.066706    1.028389   -0.750189
     10          8           0        2.643840    0.540219    1.145143
     11          1           0        1.334129   -0.213469    3.064735
     12          1           0        1.665321   -1.304536    1.638794
 ---------------------------------------------------------------------
                    Distance matrix (angstroms):
                    1          2          3          4          5
     1  C    0.000000
     2  C    1.382155   0.000000
     3  C    1.406077   2.420443   0.000000
     4  H    1.084851   2.146780   2.145734   0.000000
     5  H    2.153853   1.082438   3.375087   2.511437   0.000000
     6  H    2.156456   3.394092   1.081054   2.461449   4.271205
     7  C    2.420028   2.833202   1.400947   3.338168   3.789090
     8  C    2.366949   1.395016   2.759071   3.359290   2.165190
     9  H    3.320399   3.874166   2.121188   4.088617   4.773910
    10  O    2.931395   2.708856   2.407358   3.967491   3.562557
    11  H    3.349339   2.157903   3.785804   4.277224   2.512530
    12  H    2.675959   2.130956   2.727398   3.689636   3.042714
                    6          7          8          9         10
     6  H    0.000000
     7  C    2.121912   0.000000
     8  C    3.831049   2.589917   0.000000
     9  H    2.374850   1.097400   3.650393   0.000000
    10  O    3.320031   1.270607   1.960073   2.002352   0.000000
    11  H    4.865477   3.398140   1.083059   4.370089   2.442994
    12  H    3.702906   2.595135   1.081568   3.621279   2.145766
                   11         12
    11  H    0.000000
    12  H    1.825767   0.000000
 Symmetry turned off by external request.
 Stoichiometry    C5H6O
 Framework group  C1[X(C5H6O)]
 Deg. of freedom    30
 Full point group                 C1      NOp   1
 Rotational constants (GHZ):           5.5621365           4.6746375           2.7176741
 Standard basis: def2TZVP (5D, 7F)
 The following finite field(s) will be applied:
 An electric field of              0.0067  0.0068  0.0030
   222 basis functions,   354 primitive gaussians,   252 cartesian basis functions
    22 alpha electrons       22 beta electrons
       nuclear repulsion energy       217.9910347879 Hartrees.
 NAtoms=   12 NActive=   12 NUniq=   12 SFac= 1.00D+00 NAtFMM=   60 NAOKFM=F Big=F
 Integral buffers will be    131072 words long.
 Raffenetti 2 integral format.
 Two-electron integral symmetry is turned off.
 One-electron integrals computed using PRISM.
   1 Symmetry operations used in ECPInt.
 ECPInt:  NShTT=    4095 NPrTT=   12396 LenC2=    4074 LenP2D=   10366.
 LDataN:  DoStor=T MaxTD1= 6 Len=  172
 NBasis=   222 RedAO= T EigKep=  1.09D-04  NBF=   222
 NBsUse=   222 1.00D-06 EigRej= -1.00D+00 NBFU=   222
 The nuclear repulsion energy is now       218.9135560663 hartrees.
 Initial guess from the checkpoint file:  "checkpoint.chk"
 B after Tr=     0.003374   -0.008817   -0.002374
         Rot=    0.999994    0.001481    0.000490   -0.003194 Ang=   0.41 deg.
 ExpMin= 9.52D-02 ExpMax= 2.70D+04 ExpMxC= 9.22D+02 IAcc=2 IRadAn=         4 AccDes= 0.00D+00
 Harris functional with IExCor=  402 and IRadAn=       4 diagonalized for initial guess.
 HarFok:  IExCor=  402 AccDes= 0.00D+00 IRadAn=         4 IDoV= 1 UseB2=F ITyADJ=14
 ICtDFT=  3500011 ScaDFX=  1.000000  1.000000  1.000000  1.000000
 FoFCou: FMM=F IPFlag=           0 FMFlag=      100000 FMFlg1=           0
         NFxFlg=           0 DoJE=T BraDBF=F KetDBF=T FulRan=T
         wScrn=  0.000000 ICntrl=       500 IOpCl=  0 I1Cent=   200000004 NGrid=           0
         NMat0=    1 NMatS0=      1 NMatT0=    0 NMatD0=    1 NMtDS0=    0 NMtDT0=    0
 Symmetry not used in FoFCou.
 Keep R1 ints in memory in canonical form, NReq=319363861.
 Requested convergence on RMS density matrix=1.00D-08 within 128 cycles.
 Requested convergence on MAX density matrix=1.00D-06.
 Requested convergence on             energy=1.00D-06.
 No special actions if energy rises.
 Integral accuracy reduced to 1.0D-05 until final iterations.
 Initial convergence to 1.0D-05 achieved.  Increase integral accuracy.
 SCF Done:  E(RB3LYP) =  -269.398299538     A.U. after   12 cycles
            NFock= 12  Conv=0.48D-08     -V/T= 2.0050
   1 Symmetry operations used in ECPInt.
 ECPInt:  NShTT=    4095 NPrTT=   12396 LenC2=    4074 LenP2D=   10366.
 LDataN:  DoStor=T MaxTD1= 7 Len=  274
 Calling FoFJK, ICntrl=      2127 FMM=F ISym2X=0 I1Cent= 0 IOpClX= 0 NMat=1 NMatS=1 NMatT=0.
 -------------------------------------------------------------------
 Center     Atomic                   Forces (Hartrees/Bohr)
 Number     Number              X              Y              Z
 -------------------------------------------------------------------
      1        6           0.000141295   -0.002780782   -0.000011709
      2        6          -0.000139209    0.001246903    0.000013467
      3        6          -0.000007771    0.001541849   -0.000007493
      4        1          -0.000001526   -0.000004400   -0.000000052
      5        1          -0.000004101   -0.000000192   -0.000001867
      6        1          -0.000001947   -0.000004171   -0.000001184
      7        6           0.000009741    0.000027158   -0.000027410
      8        6          -0.000001555   -0.000000943    0.000011939
      9        1           0.000003961   -0.000000617   -0.000006234
     10        8          -0.000001441   -0.000029651    0.000031364
     11        1           0.000000191    0.000002314    0.000000511
     12        1           0.000002361    0.000002532   -0.000001332
 -------------------------------------------------------------------
 Cartesian Forces:  Max     0.002780782 RMS     0.000570291
 -----------------------------------------------------------------------------------------------
                       Internal Coordinate Forces (Hartree/Bohr or radian)
  Cent   Atom   N1       Length/X         N2         Alpha/Y        N3         Beta/Z          J
 -----------------------------------------------------------------------------------------------
      1  C 
      2  C        1   0.000023(     1)
      3  C        1   0.000008(     2)      2   0.000028(    12)
      4  H        1   0.000001(     3)      2  -0.000001(    13)      3  -0.000008(    22)     0
      5  H        2   0.000002(     4)      1  -0.000007(    14)      3   0.000020(    23)     0
      6  H        3   0.000001(     5)      1  -0.000004(    15)      2   0.000069(    24)     0
      7  C        3   0.000008(     6)      1   0.000002(    16)      6   0.000077(    25)     0
      8  C        2   0.000005(     7)      1   0.000027(    17)      5   0.000016(    26)     0
      9  H        7   0.000006(     8)      3  -0.000005(    18)      1   0.000039(    27)     0
     10  O        7   0.000029(     9)      3  -0.000049(    19)      9   0.000046(    28)     0
     11  H        8   0.000001(    10)      2  -0.000002(    20)      1   0.000003(    29)     0
     12  H        8  -0.000001(    11)      2   0.000002(    21)     11   0.000006(    30)     0
 -----------------------------------------------------------------------------------------------
 Internal  Forces:  Max     0.000076873 RMS     0.000026288

 GradGradGradGradGradGradGradGradGradGradGradGradGradGradGradGradGradGrad
 Berny optimization.
 Search for a saddle point.
 Step number   2 out of a maximum of   40
 All quantities printed in internal units (Hartrees-Bohrs-Radians)
 Swapping is turned off.
 Update second derivatives using D2CorN and points    1    2
 ITU=  0  0
     Eigenvalues ---   -0.81303   0.02583   0.02739   0.04038   0.04165
     Eigenvalues ---    0.05004   0.10831   0.12670   0.14396   0.16628
     Eigenvalues ---    0.18433   0.19869   0.25345   0.27217   0.29488
     Eigenvalues ---    0.32002   0.34761   0.35129   0.35358   0.35763
     Eigenvalues ---    0.36293   0.39762   0.40132   0.43684   0.46308
     Eigenvalues ---    0.52769   0.56132   0.69825   0.92837   2.75374
 Eigenvectors required to have negative eigenvalues:
                          A7        A3        D12       R8        R10
   1                    0.47140   0.42490   0.28781  -0.27462  -0.26596
                          A10       A8        R7        D11       R2
   1                    0.25853   0.25002   0.23018   0.21868   0.19010
 RFO step:  Lambda0=2.574374047D-11 Lambda=-4.17465413D-08.
 Linear search not attempted -- option 19 set.
 Variable       Old X    -DE/DX   Delta X   Delta X   Delta X     New X
                                 (Linear)    (Quad)   (Total)
    R2        2.61189   0.00002   0.00000   0.00003   0.00003   2.61193
    R3        2.65710   0.00001   0.00000   0.00000   0.00000   2.65710
    R4        2.05007   0.00000   0.00000   0.00000   0.00000   2.05007
    R5        2.04551   0.00000   0.00000   0.00001   0.00001   2.04552
    R6        2.04290   0.00000   0.00000   0.00000   0.00000   2.04290
    R7        2.64741   0.00001   0.00000   0.00001   0.00001   2.64741
    R8        2.63620   0.00000   0.00000   0.00002   0.00002   2.63622
    R9        2.07379   0.00001   0.00000   0.00001   0.00001   2.07379
   R10        2.40110   0.00003   0.00000   0.00006   0.00006   2.40116
   R11        2.04669   0.00000   0.00000   0.00001   0.00001   2.04669
   R12        2.04387  -0.00000   0.00000  -0.00001  -0.00001   2.04386
    A3        2.10265   0.00003   0.00000   0.00005   0.00005   2.10270
    A4        2.10288  -0.00000   0.00000  -0.00004  -0.00004   2.10283
    A5        2.11808  -0.00001   0.00000  -0.00007  -0.00007   2.11802
    A6        2.08853  -0.00000   0.00000  -0.00002  -0.00002   2.08851
    A7        2.07893   0.00000   0.00000   0.00006   0.00006   2.07899
    A8        2.04067   0.00003   0.00000   0.00008   0.00008   2.04076
    A9        2.01902  -0.00001   0.00000   0.00006   0.00006   2.01908
   A10        2.24349  -0.00005   0.00000  -0.00008  -0.00008   2.24340
   A11        2.10458  -0.00000   0.00000  -0.00003  -0.00003   2.10455
   A12        2.06266   0.00000   0.00000   0.00002   0.00002   2.06268
    D4       -2.97671  -0.00001   0.00000   0.00011   0.00011  -2.97660
    D5        2.67479   0.00002   0.00000  -0.00018  -0.00018   2.67462
    D6       -3.13922   0.00007   0.00000   0.00019   0.00019  -3.13902
    D7        2.72256   0.00008   0.00000   0.00031   0.00031   2.72287
    D8       -3.01791   0.00002   0.00000  -0.00018  -0.00018  -3.01809
    D9       -2.52404   0.00004   0.00000  -0.00017  -0.00017  -2.52421
   D10        2.99174   0.00005   0.00000   0.00018   0.00018   2.99191
   D11        2.87259   0.00000   0.00000  -0.00007  -0.00007   2.87251
   D12        2.63389   0.00001   0.00000  -0.00005  -0.00005   2.63384
         Item               Value     Threshold  Converged?
 Maximum Force            0.000077     0.000450     YES
 RMS     Force            0.000026     0.000300     YES
 Maximum Displacement     0.000308     0.001800     YES
 RMS     Displacement     0.000102     0.001200     YES
 Predicted change in Energy=-2.086040D-08
 Optimization completed.
    -- Stationary point found.
                       ----------------------------
                       !   Optimized Parameters   !
                       ! (Angstroms and Degrees)  !
 ----------------------                            ----------------------
 !      Name          Value   Derivative information (Atomic Units)     !
 ------------------------------------------------------------------------
 !       R2          1.3822   -DE/DX =    0.0                           !
 !       R3          1.4061   -DE/DX =    0.0                           !
 !       R4          1.0849   -DE/DX =    0.0                           !
 !       R5          1.0824   -DE/DX =    0.0                           !
 !       R6          1.0811   -DE/DX =    0.0                           !
 !       R7          1.4009   -DE/DX =    0.0                           !
 !       R8          1.395    -DE/DX =    0.0                           !
 !       R9          1.0974   -DE/DX =    0.0                           !
 !       R10         1.2706   -DE/DX =    0.0                           !
 !       R11         1.0831   -DE/DX =    0.0                           !
 !       R12         1.0816   -DE/DX =    0.0                           !
 !       A3        120.473    -DE/DX =    0.0                           !
 !       A4        120.486    -DE/DX =    0.0                           !
 !       A5        121.3573   -DE/DX =    0.0                           !
 !       A6        119.6638   -DE/DX =    0.0                           !
 !       A7        119.1137   -DE/DX =    0.0                           !
 !       A8        116.922    -DE/DX =    0.0                           !
 !       A9        115.6811   -DE/DX =    0.0                           !
 !       A10       128.5424   -DE/DX =    0.0                           !
 !       A11       120.5835   -DE/DX =    0.0                           !
 !       A12       118.1815   -DE/DX =    0.0                           !
 !       D4       -170.5532   -DE/DX =    0.0                           !
 !       D5        153.2543   -DE/DX =    0.0                           !
 !       D6       -179.8639   -DE/DX =    0.0001                        !
 !       D7        155.9914   -DE/DX =    0.0001                        !
 !       D8       -172.9134   -DE/DX =    0.0                           !
 !       D9       -144.6169   -DE/DX =    0.0                           !
 !       D10       171.414    -DE/DX =    0.0                           !
 !       D11       164.587    -DE/DX =    0.0                           !
 !       D12       150.9107   -DE/DX =    0.0                           !
 ------------------------------------------------------------------------
 GradGradGradGradGradGradGradGradGradGradGradGradGradGradGradGradGradGrad

 ---------------------------------------------------------------------------------------------------
                            Z-MATRIX (ANGSTROMS AND DEGREES)
   CD    Cent   Atom    N1       Length/X        N2       Alpha/Y        N3        Beta/Z          J
 ---------------------------------------------------------------------------------------------------
      1      1  C 
      2      2  C        1   1.382155(     1)
      3      3  C        1   1.406077(     2)      2  120.473(    12)
      4      4  H        1   1.084851(     3)      2  120.486(    13)      3 -170.553(    22)      0
      5      5  H        2   1.082438(     4)      1  121.357(    14)      3  153.254(    23)      0
      6      6  H        3   1.081054(     5)      1  119.664(    15)      2 -179.864(    24)      0
      7      7  C        3   1.400947(     6)      1  119.114(    16)      6  155.991(    25)      0
      8      8  C        2   1.395016(     7)      1  116.922(    17)      5 -172.913(    26)      0
      9      9  H        7   1.097400(     8)      3  115.681(    18)      1 -144.617(    27)      0
     10     10  O        7   1.270607(     9)      3  128.542(    19)      9  171.414(    28)      0
     11     11  H        8   1.083059(    10)      2  120.583(    20)      1  164.587(    29)      0
     12     12  H        8   1.081568(    11)      2  118.181(    21)     11  150.911(    30)      0
 ---------------------------------------------------------------------------------------------------
                         Z-Matrix orientation:                         
 ---------------------------------------------------------------------
 Center     Atomic      Atomic             Coordinates (Angstroms)
 Number     Number       Type             X           Y           Z
 ---------------------------------------------------------------------
      1          6           0        0.000000    0.000000    0.000000
      2          6           0        0.000000    0.000000    1.382155
      3          6           0        1.211853    0.000000   -0.713068
      4          1           0       -0.922195    0.153443   -0.550376
      5          1           0       -0.825443    0.415980    1.945427
      6          1           0        1.196586    0.002232   -1.794012
      7          6           0        2.366923    0.495333   -0.094108
      8          6           0        1.171328   -0.418454    2.013786
      9          1           0        3.066706    1.028389   -0.750189
     10          8           0        2.643840    0.540219    1.145143
     11          1           0        1.334129   -0.213469    3.064735
     12          1           0        1.665321   -1.304536    1.638794
 ---------------------------------------------------------------------
                    Distance matrix (angstroms):
                    1          2          3          4          5
     1  C    0.000000
     2  C    1.382155   0.000000
     3  C    1.406077   2.420443   0.000000
     4  H    1.084851   2.146780   2.145734   0.000000
     5  H    2.153853   1.082438   3.375087   2.511437   0.000000
     6  H    2.156456   3.394092   1.081054   2.461449   4.271205
     7  C    2.420028   2.833202   1.400947   3.338168   3.789090
     8  C    2.366949   1.395016   2.759071   3.359290   2.165190
     9  H    3.320399   3.874166   2.121188   4.088617   4.773910
    10  O    2.931395   2.708856   2.407358   3.967491   3.562557
    11  H    3.349339   2.157903   3.785804   4.277224   2.512530
    12  H    2.675959   2.130956   2.727398   3.689636   3.042714
                    6          7          8          9         10
     6  H    0.000000
     7  C    2.121912   0.000000
     8  C    3.831049   2.589917   0.000000
     9  H    2.374850   1.097400   3.650393   0.000000
    10  O    3.320031   1.270607   1.960073   2.002352   0.000000
    11  H    4.865477   3.398140   1.083059   4.370089   2.442994
    12  H    3.702906   2.595135   1.081568   3.621279   2.145766
                   11         12
    11  H    0.000000
    12  H    1.825767   0.000000
 Symmetry turned off by external request.
 Stoichiometry    C5H6O
 Framework group  C1[X(C5H6O)]
 Deg. of freedom    30
 Full point group                 C1      NOp   1
 Rotational constants (GHZ):           5.5621365           4.6746375           2.7176741

 **********************************************************************

            Population analysis using the SCF density.

 **********************************************************************

 Alpha  occ. eigenvalues --  -19.16522 -10.27367 -10.24358 -10.21084 -10.18794
 Alpha  occ. eigenvalues --  -10.18439  -1.06566  -0.84596  -0.77617  -0.68650
 Alpha  occ. eigenvalues --   -0.62707  -0.54616  -0.52860  -0.48929  -0.47954
 Alpha  occ. eigenvalues --   -0.46282  -0.41394  -0.39991  -0.39322  -0.34916
 Alpha  occ. eigenvalues --   -0.30776  -0.23412
 Alpha virt. eigenvalues --   -0.08977  -0.01705   0.02417   0.03557   0.04951
 Alpha virt. eigenvalues --    0.06349   0.08213   0.09695   0.11559   0.13016
 Alpha virt. eigenvalues --    0.15765   0.17852   0.18946   0.20407   0.20890
 Alpha virt. eigenvalues --    0.21741   0.22993   0.25037   0.26401   0.27290
 Alpha virt. eigenvalues --    0.29299   0.31522   0.32193   0.33955   0.36799
 Alpha virt. eigenvalues --    0.37522   0.38472   0.40596   0.40842   0.42138
 Alpha virt. eigenvalues --    0.43042   0.43763   0.44031   0.46082   0.48118
 Alpha virt. eigenvalues --    0.51119   0.52058   0.54675   0.55011   0.56035
 Alpha virt. eigenvalues --    0.59678   0.63576   0.66651   0.68479   0.73455
 Alpha virt. eigenvalues --    0.77440   0.80699   0.84978   0.86024   0.87214
 Alpha virt. eigenvalues --    0.90510   0.92150   0.94612   0.94794   0.96558
 Alpha virt. eigenvalues --    0.99816   1.01967   1.05743   1.09185   1.10125
 Alpha virt. eigenvalues --    1.13422   1.15406   1.17477   1.21792   1.21906
 Alpha virt. eigenvalues --    1.27433   1.29987   1.32991   1.37980   1.38193
 Alpha virt. eigenvalues --    1.41594   1.42213   1.44770   1.45699   1.49441
 Alpha virt. eigenvalues --    1.50927   1.56024   1.58150   1.61874   1.63262
 Alpha virt. eigenvalues --    1.65535   1.66766   1.71622   1.76175   1.76935
 Alpha virt. eigenvalues --    1.79715   1.81146   1.83617   1.88058   1.89505
 Alpha virt. eigenvalues --    1.92558   1.95089   2.03934   2.04323   2.08487
 Alpha virt. eigenvalues --    2.12515   2.13798   2.18535   2.19118   2.23643
 Alpha virt. eigenvalues --    2.25941   2.29888   2.36374   2.41077   2.43291
 Alpha virt. eigenvalues --    2.47685   2.49782   2.51424   2.53798   2.54395
 Alpha virt. eigenvalues --    2.56812   2.59668   2.61091   2.63644   2.66502
 Alpha virt. eigenvalues --    2.68668   2.69180   2.74868   2.77027   2.77123
 Alpha virt. eigenvalues --    2.79499   2.82048   2.83056   2.84638   2.87022
 Alpha virt. eigenvalues --    2.89821   2.93315   2.94061   2.96602   2.99960
 Alpha virt. eigenvalues --    3.01236   3.03527   3.04509   3.10031   3.11980
 Alpha virt. eigenvalues --    3.13756   3.16571   3.18311   3.21175   3.21742
 Alpha virt. eigenvalues --    3.23723   3.26332   3.27931   3.32721   3.34935
 Alpha virt. eigenvalues --    3.37746   3.40300   3.41779   3.43172   3.45889
 Alpha virt. eigenvalues --    3.48172   3.50494   3.56717   3.61336   3.61909
 Alpha virt. eigenvalues --    3.67621   3.83936   3.87479   3.90375   3.92173
 Alpha virt. eigenvalues --    3.95372   4.00963   4.03094   4.07069   4.09940
 Alpha virt. eigenvalues --    4.14277   4.16654   4.24625   4.28108   4.31670
 Alpha virt. eigenvalues --    4.36801   4.42282   4.47664   4.52949   4.63965
 Alpha virt. eigenvalues --    4.65185   4.70488   4.79269   4.84150   4.85459
 Alpha virt. eigenvalues --    5.05210   5.13725   5.22817   5.27176   5.47793
 Alpha virt. eigenvalues --    5.57754   5.94656   6.16975   6.29248   6.48398
 Alpha virt. eigenvalues --    6.70194   6.75502   6.93672   7.05707  22.04581
 Alpha virt. eigenvalues --   22.32834  22.47519  22.68537  22.86021  43.78728
          Condensed to atoms (all electrons):
               1          2          3          4          5          6
     1  C    4.856418   0.497465   0.467067   0.424133  -0.047728  -0.041646
     2  C    0.497465   4.999095  -0.034360  -0.041444   0.424126   0.008581
     3  C    0.467067  -0.034360   5.222421  -0.047596   0.008672   0.409714
     4  H    0.424133  -0.041444  -0.047596   0.512436  -0.005735  -0.005918
     5  H   -0.047728   0.424126   0.008672  -0.005735   0.553710  -0.000187
     6  H   -0.041646   0.008581   0.409714  -0.005918  -0.000187   0.545616
     7  C   -0.027547  -0.058164   0.437986   0.003576  -0.002189  -0.040795
     8  C   -0.076037   0.484281  -0.006785   0.010868  -0.047029   0.000093
     9  H   -0.001627  -0.003008  -0.100828  -0.000762   0.000104  -0.001065
    10  O   -0.015763  -0.025228  -0.128620  -0.000698   0.001190   0.005924
    11  H    0.010152  -0.047333  -0.000459  -0.000207  -0.005855   0.000013
    12  H   -0.030424  -0.020340   0.028091  -0.000167   0.005355   0.000120
               7          8          9         10         11         12
     1  C   -0.027547  -0.076037  -0.001627  -0.015763   0.010152  -0.030424
     2  C   -0.058164   0.484281  -0.003008  -0.025228  -0.047333  -0.020340
     3  C    0.437986  -0.006785  -0.100828  -0.128620  -0.000459   0.028091
     4  H    0.003576   0.010868  -0.000762  -0.000698  -0.000207  -0.000167
     5  H   -0.002189  -0.047029   0.000104   0.001190  -0.005855   0.005355
     6  H   -0.040795   0.000093  -0.001065   0.005924   0.000013   0.000120
     7  C    4.687416  -0.041887   0.406387   0.486871   0.000813  -0.008630
     8  C   -0.041887   4.853506   0.003425   0.064803   0.395857   0.425785
     9  H    0.406387   0.003425   0.666387  -0.040608  -0.000130  -0.001285
    10  O    0.486871   0.064803  -0.040608   8.055182  -0.003152  -0.049533
    11  H    0.000813   0.395857  -0.000130  -0.003152   0.577228  -0.032740
    12  H   -0.008630   0.425785  -0.001285  -0.049533  -0.032740   0.534697
 Mulliken charges:
               1
     1  C   -0.014463
     2  C   -0.183671
     3  C   -0.255303
     4  H    0.151515
     5  H    0.115567
     6  H    0.119550
     7  C    0.156161
     8  C   -0.066880
     9  H    0.073009
    10  O   -0.350368
    11  H    0.105812
    12  H    0.149071
 Sum of Mulliken charges =  -0.00000
 Mulliken charges with hydrogens summed into heavy atoms:
               1
     1  C    0.137052
     2  C   -0.068104
     3  C   -0.135753
     7  C    0.229170
     8  C    0.188002
    10  O   -0.350368
 Electronic spatial extent (au):  <R**2>=            800.4217
 Charge=             -0.0000 electrons
 Dipole moment (field-independent basis, Debye):
    X=             -2.3359    Y=             -1.0238    Z=             -0.8824  Tot=              2.6988
 Quadrupole moment (field-independent basis, Debye-Ang):
   XX=            -41.8442   YY=            -37.9301   ZZ=            -32.8501
   XY=             -2.8802   XZ=             -4.0799   YZ=             -2.3779
 Traceless Quadrupole moment (field-independent basis, Debye-Ang):
   XX=             -4.3028   YY=             -0.3886   ZZ=              4.6913
   XY=             -2.8802   XZ=             -4.0799   YZ=             -2.3779
 Octapole moment (field-independent basis, Debye-Ang**2):
  XXX=           -153.8754  YYY=            -12.7771  ZZZ=            -59.3272  XYY=            -44.7532
  XXY=             -8.5872  XXZ=            -37.6704  XZZ=            -44.8680  YZZ=             -6.5367
  YYZ=            -22.9726  XYZ=             -7.6141
 Hexadecapole moment (field-independent basis, Debye-Ang**3):
 XXXX=           -679.8818 YYYY=            -78.2380 ZZZZ=           -330.7103 XXXY=            -49.4489
 XXXZ=           -123.8387 YYYX=            -39.4277 YYYZ=              6.6769 ZZZX=            -68.2410
 ZZZY=              6.6028 XXYY=           -117.7647 XXZZ=           -174.2558 YYZZ=            -78.5477
 XXYZ=            -14.2374 YYXZ=            -25.0649 ZZXY=            -21.4093
 N-N= 2.189135560663D+02 E-N=-1.064856459861D+03  KE= 2.680487927596D+02
 1\1\GINC-BHC0174\FTS\RB3LYP\def2TZVP\C5H6O1\DHANAWAY\18-Mar-2022\1\\# 
 Opt=(TS, CalcFC, noeigentest, Z-matrix, MaxStep=10) geom=allcheckpoint
  guess=read Field=read NoSymm B3LYP/Def2TZVP\\ts_zmat_initalOpt\\0,1\C
 \C,1,R2\C,1,R3,2,A3\H,1,R4,2,A4,3,D4,0\H,2,R5,1,A5,3,D5,0\H,3,R6,1,A6,
 2,D6,0\C,3,R7,1,A7,6,D7,0\C,2,R8,1,A8,5,D8,0\H,7,R9,3,A9,1,D9,0\O,7,R1
 0,3,A10,9,D10,0\H,8,R11,2,A11,1,D11,0\H,8,R12,2,A12,11,D12,0\\R2=1.382
 15513\R3=1.40607737\R4=1.08485129\R5=1.08243769\R6=1.0810542\R7=1.4009
 4701\R8=1.39501614\R9=1.09740017\R10=1.27060662\R11=1.08305928\R12=1.0
 8156826\A3=120.47301828\A4=120.48603157\A5=121.35729842\A6=119.6637691
 9\A7=119.11371572\A8=116.92196821\A9=115.68108268\A10=128.5423591\A11=
 120.58347797\A12=118.18145191\D4=-170.55315174\D5=153.25429015\D6=-179
 .86388933\D7=155.99143278\D8=-172.91342382\D9=-144.61687005\D10=171.41
 398987\D11=164.58700443\D12=150.91074858\\Version=ES64L-G16RevA.03\HF=
 -269.3982995\RMSD=4.849e-09\RMSF=5.703e-04\Dipole=-0.9190305,-0.402780
 6,-0.3471537\Quadrupole=-3.198993,-0.2889017,3.4878947,-2.1413377,-3.0
 332817,-1.7679194\PG=C01 [X(C5H6O1)]\\@


 JUST WHEN YOU THINK YOU'VE GOT THE WORLD ON A STRING,
 YOU FIND OUT IT'S YOUR LEASH.
 Job cpu time:       0 days  0 hours 34 minutes 24.0 seconds.
 Elapsed time:       0 days  0 hours  3 minutes  4.1 seconds.
 File lengths (MBytes):  RWF=     53 Int=      0 D2E=      0 Chk=     32 Scr=      1
 Normal termination of Gaussian 16 at Fri Mar 18 14:50:23 2022.
