 Entering Gaussian System, Link 0=g16
 Input=ts_initalOpt_zmat_sp.gjf
 Output=ts_initalOpt_zmat_sp.out
 Initial command:
 /software/gaussian/g16-a03/l1.exe "/local_scratch/9886697/Gau-15893.inp" -scrdir="/local_scratch/9886697/"
 Entering Link 1 = /software/gaussian/g16-a03/l1.exe PID=     15895.
  
 Copyright (c) 1988,1990,1992,1993,1995,1998,2003,2009,2016,
            Gaussian, Inc.  All Rights Reserved.
  
 This is part of the Gaussian(R) 16 program.  It is based on
 the Gaussian(R) 09 system (copyright 2009, Gaussian, Inc.),
 the Gaussian(R) 03 system (copyright 2003, Gaussian, Inc.),
 the Gaussian(R) 98 system (copyright 1998, Gaussian, Inc.),
 the Gaussian(R) 94 system (copyright 1995, Gaussian, Inc.),
 the Gaussian 92(TM) system (copyright 1992, Gaussian, Inc.),
 the Gaussian 90(TM) system (copyright 1990, Gaussian, Inc.),
 the Gaussian 88(TM) system (copyright 1988, Gaussian, Inc.),
 the Gaussian 86(TM) system (copyright 1986, Carnegie Mellon
 University), and the Gaussian 82(TM) system (copyright 1983,
 Carnegie Mellon University). Gaussian is a federally registered
 trademark of Gaussian, Inc.
  
 This software contains proprietary and confidential information,
 including trade secrets, belonging to Gaussian, Inc.
  
 This software is provided under written license and may be
 used, copied, transmitted, or stored only in accord with that
 written license.
  
 The following legend is applicable only to US Government
 contracts under FAR:
  
                    RESTRICTED RIGHTS LEGEND
  
 Use, reproduction and disclosure by the US Government is
 subject to restrictions as set forth in subparagraphs (a)
 and (c) of the Commercial Computer Software - Restricted
 Rights clause in FAR 52.227-19.
  
 Gaussian, Inc.
 340 Quinnipiac St., Bldg. 40, Wallingford CT 06492
  
  
 ---------------------------------------------------------------
 Warning -- This program may not be used in any manner that
 competes with the business of Gaussian, Inc. or will provide
 assistance to any competitor of Gaussian, Inc.  The licensee
 of this program is prohibited from giving any competitor of
 Gaussian, Inc. access to this program.  By using this program,
 the user acknowledges that Gaussian, Inc. is engaged in the
 business of creating and licensing software in the field of
 computational chemistry and represents and warrants to the
 licensee that it is not a competitor of Gaussian, Inc. and that
 it will not use this program in any manner prohibited above.
 ---------------------------------------------------------------
  

 Cite this work as:
 Gaussian 16, Revision A.03,
 M. J. Frisch, G. W. Trucks, H. B. Schlegel, G. E. Scuseria, 
 M. A. Robb, J. R. Cheeseman, G. Scalmani, V. Barone, 
 G. A. Petersson, H. Nakatsuji, X. Li, M. Caricato, A. V. Marenich, 
 J. Bloino, B. G. Janesko, R. Gomperts, B. Mennucci, H. P. Hratchian, 
 J. V. Ortiz, A. F. Izmaylov, J. L. Sonnenberg, D. Williams-Young, 
 F. Ding, F. Lipparini, F. Egidi, J. Goings, B. Peng, A. Petrone, 
 T. Henderson, D. Ranasinghe, V. G. Zakrzewski, J. Gao, N. Rega, 
 G. Zheng, W. Liang, M. Hada, M. Ehara, K. Toyota, R. Fukuda, 
 J. Hasegawa, M. Ishida, T. Nakajima, Y. Honda, O. Kitao, H. Nakai, 
 T. Vreven, K. Throssell, J. A. Montgomery, Jr., J. E. Peralta, 
 F. Ogliaro, M. J. Bearpark, J. J. Heyd, E. N. Brothers, K. N. Kudin, 
 V. N. Staroverov, T. A. Keith, R. Kobayashi, J. Normand, 
 K. Raghavachari, A. P. Rendell, J. C. Burant, S. S. Iyengar, 
 J. Tomasi, M. Cossi, J. M. Millam, M. Klene, C. Adamo, R. Cammi, 
 J. W. Ochterski, R. L. Martin, K. Morokuma, O. Farkas, 
 J. B. Foresman, and D. J. Fox, Gaussian, Inc., Wallingford CT, 2016.
 
 ******************************************
 Gaussian 16:  ES64L-G16RevA.03 25-Dec-2016
                18-Mar-2022 
 ******************************************
 %nprocshared=12
 Will use up to   12 processors via shared memory.
 %chk=checkpoint.chk
 %mem=12GB
 --------------------------
 # sp B3LYP/Def2TZVP NoSymm
 --------------------------
 1/38=1,172=1/1;
 2/12=2,15=1,17=6,18=5,40=1/2;
 3/5=44,7=101,11=2,25=1,30=1,74=-5/1,2,3;
 4//1;
 5/5=2,38=5/2;
 6/7=2,8=2,9=2,10=2,28=1/1;
 99/5=1,9=1/99;
 ---------------------------
 ts_initalOpt_zmat_AlignedSp
 ---------------------------
 Symbolic Z-matrix:
 Charge =  0 Multiplicity = 1
 H
 C                    1    R2
 C                    2    R3       1    A3
 C                    2    R4       1    A4       3    D4       0
 H                    3    R5       2    A5       1    D5       0
 C                    3    R6       2    A6       5    D6       0
 H                    4    R7       2    A7       1    D7       0
 H                    4    R8       2    A8       7    D8       0
 H                    6    R9       3    A9       2    D9       0
 C                    6    R10      3    A10      9    D10      0
 H                    10   R11      6    A11      3    D11      0
 O                    10   R12      6    A12      11   D12      0
       Variables:
  R2                    1.08301                  
  R3                    1.38897                  
  R4                    1.39155                  
  R5                    1.08604                  
  R6                    1.39888                  
  R7                    1.08254                  
  R8                    1.08113                  
  R9                    1.08157                  
  R10                   1.41318                  
  R11                   1.09689                  
  R12                   1.25677                  
  A3                  120.74978                  
  A4                  121.10235                  
  A5                  120.00861                  
  A6                  120.8886                   
  A7                  120.84504                  
  A8                  118.50256                  
  A9                  119.66859                  
  A10                 118.97527                  
  A11                 115.63488                  
  A12                 128.07093                  
  D4                  169.30337                  
  D5                  -20.23415                  
  D6                  168.74001                  
  D7                   -6.47072                  
  D8                  152.61335                  
  D9                 -176.82555                  
  D10                 154.18448                  
  D11                -142.96181                  
  D12                 171.43426                  
 
                          Input orientation:                          
 ---------------------------------------------------------------------
 Center     Atomic      Atomic             Coordinates (Angstroms)
 Number     Number       Type             X           Y           Z
 ---------------------------------------------------------------------
      1          1           0        0.000000    0.000000    0.000000
      2          6           0        0.000000    0.000000    1.083006
      3          6           0        1.193696    0.000000    1.793174
      4          6           0       -1.170803    0.221154    1.801836
      5          1           0        2.111669   -0.325265    1.312527
      6          6           0        1.287500    0.627142    3.040077
      7          1           0       -2.087114    0.500831    1.297807
      8          1           0       -1.302641   -0.292623    2.743899
      9          1           0        2.239350    0.659874    3.552615
     10          6           0        0.363633    1.645875    3.365228
     11          1           0        0.766957    2.484675    3.945665
     12          8           0       -0.815351    1.783513    2.952283
 ---------------------------------------------------------------------
                    Distance matrix (angstroms):
                    1          2          3          4          5
     1  H    0.000000
     2  C    1.083006   0.000000
     3  C    2.154155   1.388974   0.000000
     4  C    2.160162   1.391548   2.374835   0.000000
     5  H    2.507523   2.148866   1.086045   3.363424   0.000000
     6  C    3.360511   2.425096   1.398883   2.782323   2.137934
     7  H    2.508223   2.157085   3.355583   1.082539   4.279303
     8  H    3.051472   2.130978   2.687229   1.081125   3.702351
     9  H    4.251022   3.398395   2.150455   3.858347   2.450468
    10  C    3.763761   2.837195   2.422656   2.613144   3.339851
    11  H    4.725474   3.867383   3.314956   3.670756   4.078901
    12  O    3.544247   2.709227   2.925871   1.972521   3.962725
                    6          7          8          9         10
     6  C    0.000000
     7  H    3.799932   0.000000
     8  H    2.764511   1.826514   0.000000
     9  H    1.081565   4.881367   3.755924   0.000000
    10  C    1.413178   3.404632   2.630645   2.127352   0.000000
    11  H    2.131076   4.369498   3.666178   2.377463   1.096888
    12  O    2.401434   2.449479   2.142713   3.309707   1.256770
                   11         12
    11  H    0.000000
    12  O    1.995529   0.000000
 Symmetry turned off by external request.
 Stoichiometry    C5H6O
 Framework group  C1[X(C5H6O)]
 Deg. of freedom    30
 Full point group                 C1      NOp   1
 Rotational constants (GHZ):           5.5367278           4.6725769           2.7070362
 Standard basis: def2TZVP (5D, 7F)
   222 basis functions,   354 primitive gaussians,   252 cartesian basis functions
    22 alpha electrons       22 beta electrons
       nuclear repulsion energy       217.8751587645 Hartrees.
 NAtoms=   12 NActive=   12 NUniq=   12 SFac= 1.00D+00 NAtFMM=   60 NAOKFM=F Big=F
 Integral buffers will be    131072 words long.
 Raffenetti 2 integral format.
 Two-electron integral symmetry is turned off.
 One-electron integrals computed using PRISM.
   1 Symmetry operations used in ECPInt.
 ECPInt:  NShTT=    4095 NPrTT=   12396 LenC2=    4075 LenP2D=   10363.
 LDataN:  DoStor=T MaxTD1= 6 Len=  172
 NBasis=   222 RedAO= T EigKep=  1.17D-04  NBF=   222
 NBsUse=   222 1.00D-06 EigRej= -1.00D+00 NBFU=   222
 ExpMin= 9.52D-02 ExpMax= 2.70D+04 ExpMxC= 9.22D+02 IAcc=3 IRadAn=         5 AccDes= 0.00D+00
 Harris functional with IExCor=  402 and IRadAn=       5 diagonalized for initial guess.
 HarFok:  IExCor=  402 AccDes= 0.00D+00 IRadAn=         5 IDoV= 1 UseB2=F ITyADJ=14
 ICtDFT=  3500011 ScaDFX=  1.000000  1.000000  1.000000  1.000000
 FoFCou: FMM=F IPFlag=           0 FMFlag=      100000 FMFlg1=           0
         NFxFlg=           0 DoJE=T BraDBF=F KetDBF=T FulRan=T
         wScrn=  0.000000 ICntrl=       500 IOpCl=  0 I1Cent=   200000004 NGrid=           0
         NMat0=    1 NMatS0=      1 NMatT0=    0 NMatD0=    1 NMtDS0=    0 NMtDT0=    0
 Symmetry not used in FoFCou.
 Keep R1 ints in memory in canonical form, NReq=319363861.
 Requested convergence on RMS density matrix=1.00D-08 within 128 cycles.
 Requested convergence on MAX density matrix=1.00D-06.
 Requested convergence on             energy=1.00D-06.
 No special actions if energy rises.
 Integral accuracy reduced to 1.0D-05 until final iterations.
 Initial convergence to 1.0D-05 achieved.  Increase integral accuracy.
 SCF Done:  E(RB3LYP) =  -269.391777754     A.U. after   14 cycles
            NFock= 14  Conv=0.97D-08     -V/T= 2.0050

 **********************************************************************

            Population analysis using the SCF density.

 **********************************************************************

 Alpha  occ. eigenvalues --  -19.14210 -10.25216 -10.22025 -10.19714 -10.17183
 Alpha  occ. eigenvalues --  -10.16810  -1.04687  -0.82889  -0.75669  -0.66725
 Alpha  occ. eigenvalues --   -0.60755  -0.52726  -0.50981  -0.47029  -0.45940
 Alpha  occ. eigenvalues --   -0.44222  -0.39713  -0.38200  -0.37609  -0.32592
 Alpha  occ. eigenvalues --   -0.28924  -0.21522
 Alpha virt. eigenvalues --   -0.06867   0.00076   0.04601   0.05564   0.07414
 Alpha virt. eigenvalues --    0.07938   0.09478   0.11463   0.12253   0.15881
 Alpha virt. eigenvalues --    0.18106   0.19678   0.20442   0.21643   0.22018
 Alpha virt. eigenvalues --    0.22416   0.24903   0.27444   0.28037   0.29240
 Alpha virt. eigenvalues --    0.30312   0.33328   0.33800   0.36213   0.37826
 Alpha virt. eigenvalues --    0.39998   0.40608   0.42233   0.42877   0.43685
 Alpha virt. eigenvalues --    0.44350   0.44993   0.45669   0.48077   0.49905
 Alpha virt. eigenvalues --    0.52386   0.53839   0.55011   0.57000   0.58468
 Alpha virt. eigenvalues --    0.62261   0.65943   0.68763   0.69582   0.75814
 Alpha virt. eigenvalues --    0.80091   0.82253   0.86860   0.87176   0.89626
 Alpha virt. eigenvalues --    0.92851   0.94054   0.96193   0.97045   0.98037
 Alpha virt. eigenvalues --    1.01131   1.03830   1.07150   1.10757   1.12118
 Alpha virt. eigenvalues --    1.14832   1.17277   1.19506   1.23336   1.23654
 Alpha virt. eigenvalues --    1.28921   1.31306   1.34331   1.39141   1.39901
 Alpha virt. eigenvalues --    1.42831   1.43852   1.46411   1.47808   1.51387
 Alpha virt. eigenvalues --    1.53616   1.57680   1.60098   1.63227   1.65014
 Alpha virt. eigenvalues --    1.66868   1.68601   1.73920   1.77898   1.78544
 Alpha virt. eigenvalues --    1.81026   1.82849   1.85756   1.88175   1.91921
 Alpha virt. eigenvalues --    1.94709   1.97158   2.05335   2.06966   2.10342
 Alpha virt. eigenvalues --    2.15032   2.15854   2.19712   2.20677   2.26225
 Alpha virt. eigenvalues --    2.28133   2.32379   2.37960   2.40881   2.44423
 Alpha virt. eigenvalues --    2.49711   2.52139   2.53088   2.54275   2.56104
 Alpha virt. eigenvalues --    2.59211   2.61515   2.63099   2.65608   2.67862
 Alpha virt. eigenvalues --    2.70423   2.71009   2.76914   2.78183   2.79890
 Alpha virt. eigenvalues --    2.81840   2.83784   2.84265   2.86531   2.89612
 Alpha virt. eigenvalues --    2.91609   2.94743   2.96790   2.98119   3.01829
 Alpha virt. eigenvalues --    3.02894   3.04543   3.06748   3.12109   3.13514
 Alpha virt. eigenvalues --    3.15128   3.17528   3.19728   3.22909   3.23772
 Alpha virt. eigenvalues --    3.24843   3.27756   3.28920   3.35357   3.36073
 Alpha virt. eigenvalues --    3.39310   3.41606   3.43697   3.45839   3.48481
 Alpha virt. eigenvalues --    3.49619   3.52429   3.58121   3.63133   3.63492
 Alpha virt. eigenvalues --    3.68305   3.85234   3.89937   3.91834   3.94204
 Alpha virt. eigenvalues --    3.97311   4.02391   4.03637   4.08592   4.11535
 Alpha virt. eigenvalues --    4.16162   4.17873   4.25899   4.30834   4.32447
 Alpha virt. eigenvalues --    4.38753   4.44055   4.47679   4.54372   4.64696
 Alpha virt. eigenvalues --    4.67004   4.72652   4.81307   4.85645   4.86767
 Alpha virt. eigenvalues --    5.05079   5.14633   5.25059   5.28940   5.52079
 Alpha virt. eigenvalues --    5.61913   5.99667   6.22003   6.34417   6.50425
 Alpha virt. eigenvalues --    6.72620   6.78517   6.97447   7.08360  22.05936
 Alpha virt. eigenvalues --   22.33790  22.51072  22.70011  22.87317  43.80884
          Condensed to atoms (all electrons):
               1          2          3          4          5          6
     1  H    0.565539   0.410938  -0.052924  -0.033491  -0.004285   0.006305
     2  C    0.410938   5.006669   0.483876   0.511730  -0.042093  -0.036970
     3  C   -0.052924   0.483876   4.898966  -0.090825   0.413463   0.472543
     4  C   -0.033491   0.511730  -0.090825   4.834273   0.010536  -0.001914
     5  H   -0.004285  -0.042093   0.413463   0.010536   0.564566  -0.049018
     6  C    0.006305  -0.036970   0.472543  -0.001914  -0.049018   5.245457
     7  H   -0.006862  -0.039263   0.010136   0.398945  -0.000262  -0.000421
     8  H    0.006847  -0.032120  -0.034037   0.431796   0.000173   0.031912
     9  H   -0.000203   0.009803  -0.054507  -0.000174  -0.007948   0.408840
    10  C   -0.002406  -0.046740  -0.022143  -0.047504   0.001844   0.413087
    11  H   -0.000002  -0.005603   0.003969   0.003925  -0.000864  -0.107546
    12  O    0.000620  -0.024662  -0.008908   0.074522  -0.000968  -0.123783
               7          8          9         10         11         12
     1  H   -0.006862   0.006847  -0.000203  -0.002406  -0.000002   0.000620
     2  C   -0.039263  -0.032120   0.009803  -0.046740  -0.005603  -0.024662
     3  C    0.010136  -0.034037  -0.054507  -0.022143   0.003969  -0.008908
     4  C    0.398945   0.431796  -0.000174  -0.047504   0.003925   0.074522
     5  H   -0.000262   0.000173  -0.007948   0.001844  -0.000864  -0.000968
     6  C   -0.000421   0.031912   0.408840   0.413087  -0.107546  -0.123783
     7  H    0.534286  -0.030538   0.000018   0.001444  -0.000014  -0.001816
     8  H   -0.030538   0.560361   0.000014  -0.012434  -0.001731  -0.051545
     9  H    0.000018   0.000014   0.573019  -0.034901  -0.000312   0.005749
    10  C    0.001444  -0.012434  -0.034901   4.658832   0.421376   0.508329
    11  H   -0.000014  -0.001731  -0.000312   0.421376   0.611071  -0.034970
    12  O   -0.001816  -0.051545   0.005749   0.508329  -0.034970   7.954903
 Mulliken charges:
               1
     1  H    0.109925
     2  C   -0.195564
     3  C   -0.019607
     4  C   -0.091819
     5  H    0.114857
     6  C   -0.258490
     7  H    0.134346
     8  H    0.131302
     9  H    0.100604
    10  C    0.161215
    11  H    0.110702
    12  O   -0.297472
 Sum of Mulliken charges =  -0.00000
 Mulliken charges with hydrogens summed into heavy atoms:
               1
     2  C   -0.085639
     3  C    0.095250
     4  C    0.173829
     6  C   -0.157886
    10  C    0.271918
    12  O   -0.297472
 Electronic spatial extent (au):  <R**2>=           1431.8893
 Charge=             -0.0000 electrons
 Dipole moment (field-independent basis, Debye):
    X=              0.8432    Y=             -0.5077    Z=             -0.4178  Tot=              1.0692
 Quadrupole moment (field-independent basis, Debye-Ang):
   XX=            -33.1955   YY=            -39.0827   ZZ=            -36.0514
   XY=              2.6339   XZ=              3.7686   YZ=             -0.2919
 Traceless Quadrupole moment (field-independent basis, Debye-Ang):
   XX=              2.9144   YY=             -2.9729   ZZ=              0.0585
   XY=              2.6339   XZ=              3.7686   YZ=             -0.2919
 Octapole moment (field-independent basis, Debye-Ang**2):
  XXX=            -15.8382  YYY=            -76.5086  ZZZ=           -246.6952  XYY=              0.7838
  XXY=            -27.2161  XXZ=            -79.4669  XZZ=              8.5963  YZZ=            -20.1019
  YYZ=            -86.2795  XYZ=             11.8771
 Hexadecapole moment (field-independent basis, Debye-Ang**3):
 XXXX=           -253.3060 YYYY=           -276.8770 ZZZZ=          -1355.5111 XXXY=             -2.2573
 XXXZ=            -49.6643 YYYX=             16.8327 YYYZ=           -230.4597 ZZZX=             -8.1341
 ZZZY=           -196.5668 XXYY=            -98.3993 XXZZ=           -266.8461 YYZZ=           -267.2052
 XXYZ=            -83.8310 YYXZ=              3.1746 ZZXY=             44.3147
 N-N= 2.178751587645D+02 E-N=-1.063614415775D+03  KE= 2.680599419940D+02
 1\1\GINC-BHC0068\SP\RB3LYP\def2TZVP\C5H6O1\DHANAWAY\18-Mar-2022\0\\# s
 p B3LYP/Def2TZVP NoSymm\\ts_initalOpt_zmat_AlignedSp\\0,1\H\C,1,1.0830
 0587\C,2,1.38897396,1,120.74978445\C,2,1.39154798,1,121.10235265,3,169
 .30336669,0\H,3,1.08604499,2,120.0086075,1,-20.23414585,0\C,3,1.398882
 74,2,120.88860272,5,168.74001098,0\H,4,1.08253896,2,120.84503568,1,-6.
 47072275,0\H,4,1.08112526,2,118.50256483,7,152.61335417,0\H,6,1.081565
 19,3,119.66859241,2,-176.82554659,0\C,6,1.41317811,3,118.97527023,9,15
 4.18448499,0\H,10,1.09688771,6,115.63487628,3,-142.9618083,0\O,10,1.25
 677048,6,128.0709295,11,171.43425531,0\\Version=ES64L-G16RevA.03\HF=-2
 69.3917778\RMSD=9.684e-09\Dipole=0.33173,-0.1997404,-0.1643663\Quadrup
 ole=2.166761,-2.2102424,0.0434814,1.9582537,2.8018649,-0.2170238\PG=C0
 1 [X(C5H6O1)]\\@


 THERE IS NOTHING NOBLE IN BEING SUPERIOR TO SOME OTHER MAN.
 TRUE NOBILITY IS BEING SUPERIOR TO YOUR FORMER SELF.

                                                   -- HINDU PROVERB
 Job cpu time:       0 days  0 hours  2 minutes 45.5 seconds.
 Elapsed time:       0 days  0 hours  0 minutes 21.8 seconds.
 File lengths (MBytes):  RWF=     25 Int=      0 D2E=      0 Chk=     32 Scr=      1
 Normal termination of Gaussian 16 at Fri Mar 18 11:02:29 2022.
