 Entering Gaussian System, Link 0=g16
 Input=int_zmat_field_N50.gjf
 Output=int_zmat_field_N50.out
 Initial command:
 /software/gaussian/g16-a03/l1.exe "/local_scratch/11171833/Gau-30150.inp" -scrdir="/local_scratch/11171833/"
 Entering Link 1 = /software/gaussian/g16-a03/l1.exe PID=     30151.
  
 Copyright (c) 1988,1990,1992,1993,1995,1998,2003,2009,2016,
            Gaussian, Inc.  All Rights Reserved.
  
 This is part of the Gaussian(R) 16 program.  It is based on
 the Gaussian(R) 09 system (copyright 2009, Gaussian, Inc.),
 the Gaussian(R) 03 system (copyright 2003, Gaussian, Inc.),
 the Gaussian(R) 98 system (copyright 1998, Gaussian, Inc.),
 the Gaussian(R) 94 system (copyright 1995, Gaussian, Inc.),
 the Gaussian 92(TM) system (copyright 1992, Gaussian, Inc.),
 the Gaussian 90(TM) system (copyright 1990, Gaussian, Inc.),
 the Gaussian 88(TM) system (copyright 1988, Gaussian, Inc.),
 the Gaussian 86(TM) system (copyright 1986, Carnegie Mellon
 University), and the Gaussian 82(TM) system (copyright 1983,
 Carnegie Mellon University). Gaussian is a federally registered
 trademark of Gaussian, Inc.
  
 This software contains proprietary and confidential information,
 including trade secrets, belonging to Gaussian, Inc.
  
 This software is provided under written license and may be
 used, copied, transmitted, or stored only in accord with that
 written license.
  
 The following legend is applicable only to US Government
 contracts under FAR:
  
                    RESTRICTED RIGHTS LEGEND
  
 Use, reproduction and disclosure by the US Government is
 subject to restrictions as set forth in subparagraphs (a)
 and (c) of the Commercial Computer Software - Restricted
 Rights clause in FAR 52.227-19.
  
 Gaussian, Inc.
 340 Quinnipiac St., Bldg. 40, Wallingford CT 06492
  
  
 ---------------------------------------------------------------
 Warning -- This program may not be used in any manner that
 competes with the business of Gaussian, Inc. or will provide
 assistance to any competitor of Gaussian, Inc.  The licensee
 of this program is prohibited from giving any competitor of
 Gaussian, Inc. access to this program.  By using this program,
 the user acknowledges that Gaussian, Inc. is engaged in the
 business of creating and licensing software in the field of
 computational chemistry and represents and warrants to the
 licensee that it is not a competitor of Gaussian, Inc. and that
 it will not use this program in any manner prohibited above.
 ---------------------------------------------------------------
  

 Cite this work as:
 Gaussian 16, Revision A.03,
 M. J. Frisch, G. W. Trucks, H. B. Schlegel, G. E. Scuseria, 
 M. A. Robb, J. R. Cheeseman, G. Scalmani, V. Barone, 
 G. A. Petersson, H. Nakatsuji, X. Li, M. Caricato, A. V. Marenich, 
 J. Bloino, B. G. Janesko, R. Gomperts, B. Mennucci, H. P. Hratchian, 
 J. V. Ortiz, A. F. Izmaylov, J. L. Sonnenberg, D. Williams-Young, 
 F. Ding, F. Lipparini, F. Egidi, J. Goings, B. Peng, A. Petrone, 
 T. Henderson, D. Ranasinghe, V. G. Zakrzewski, J. Gao, N. Rega, 
 G. Zheng, W. Liang, M. Hada, M. Ehara, K. Toyota, R. Fukuda, 
 J. Hasegawa, M. Ishida, T. Nakajima, Y. Honda, O. Kitao, H. Nakai, 
 T. Vreven, K. Throssell, J. A. Montgomery, Jr., J. E. Peralta, 
 F. Ogliaro, M. J. Bearpark, J. J. Heyd, E. N. Brothers, K. N. Kudin, 
 V. N. Staroverov, T. A. Keith, R. Kobayashi, J. Normand, 
 K. Raghavachari, A. P. Rendell, J. C. Burant, S. S. Iyengar, 
 J. Tomasi, M. Cossi, J. M. Millam, M. Klene, C. Adamo, R. Cammi, 
 J. W. Ochterski, R. L. Martin, K. Morokuma, O. Farkas, 
 J. B. Foresman, and D. J. Fox, Gaussian, Inc., Wallingford CT, 2016.
 
 ******************************************
 Gaussian 16:  ES64L-G16RevA.03 25-Dec-2016
                10-Jun-2022 
 ******************************************
 %nprocshared=12
 Will use up to   12 processors via shared memory.
 %chk=checkpoint.chk
 %mem=12GB
 ----------------------------------------------------------------------
 # Opt=(Z-matrix, MaxStep=10) B3LYP/Def2TZVP geom=allcheckpoint guess=r
 ead Field=read NoSymm freq=noraman pop=none
 ----------------------------------------------------------------------
 1/8=10,10=7,18=40,26=3,29=7,38=1/1,3;
 2/12=2,15=1,29=3,40=1/2;
 3/5=44,7=101,11=2,14=-6,25=1,30=1,71=1,74=-5,116=-2/1,2,3;
 4/5=1/1;
 5/5=2,38=6/2;
 7/29=1,30=1/1,2,3,16;
 1/8=10,10=7,18=40,26=3/3(2);
 2/15=1,29=3/2;
 99//99;
 2/15=1,29=3/2;
 3/5=44,7=101,11=2,14=-2,25=1,30=1,71=1,74=-5/1,2,3;
 4/5=5,16=3,69=1/1;
 5/5=2,38=5/2;
 7/30=1/1,2,3,16;
 1/8=10,18=40,26=3/3(-5);
 2/15=1,29=3/2;
 99/9=1/99;
 Structure from the checkpoint file:  "checkpoint.chk"
 ------------------
 int_zmat_initalOpt
 ------------------
 Charge =  0 Multiplicity = 1
 Z-Matrix found in chk file.
 C
 C,1,R2
 C,1,R3,2,A3
 H,1,R4,2,A4,3,D4,0
 H,2,R5,1,A5,3,D5,0
 H,3,R6,1,A6,2,D6,0
 C,3,R7,1,A7,6,D7,0
 C,2,R8,1,A8,5,D8,0
 H,7,R9,3,A9,1,D9,0
 O,7,R10,3,A10,9,D10,0
 H,8,R11,2,A11,1,D11,0
 H,8,R12,2,A12,11,D12,0
      Variables:
 R2=1.33610007
 R3=1.45429163
 R4=1.08301503
 R5=1.08197278
 R6=1.08001911
 R7=1.34163307
 R8=1.50130237
 R9=1.08269176
 R10=1.3509213
 R11=1.08835966
 R12=1.10112192
 A3=119.27897197
 A4=121.2116857
 A5=122.69464475
 A6=121.66181777
 A7=118.06273849
 A8=118.3126716
 A9=124.35126161
 A10=123.34076059
 A11=112.42540485
 A12=111.12940352
 D4=-175.75912068
 D5=175.4329467
 D6=172.76226326
 D7=172.48852642
 D8=178.91242119
 D9=-169.24341801
 D10=174.72130339
 D11=151.37738374
 D12=121.35830089
 Recover connectivity data from disk.

 GradGradGradGradGradGradGradGradGradGradGradGradGradGradGradGradGradGrad
 Berny optimization.
 Initialization pass.
                       ----------------------------
                       !    Initial Parameters    !
                       ! (Angstroms and Degrees)  !
 ----------------------                            ----------------------
 !      Name          Value   Derivative information (Atomic Units)     !
 ------------------------------------------------------------------------
 !       R2          1.3361   estimate D2E/DX2                          !
 !       R3          1.4543   estimate D2E/DX2                          !
 !       R4          1.083    estimate D2E/DX2                          !
 !       R5          1.082    estimate D2E/DX2                          !
 !       R6          1.08     estimate D2E/DX2                          !
 !       R7          1.3416   estimate D2E/DX2                          !
 !       R8          1.5013   estimate D2E/DX2                          !
 !       R9          1.0827   estimate D2E/DX2                          !
 !       R10         1.3509   estimate D2E/DX2                          !
 !       R11         1.0884   estimate D2E/DX2                          !
 !       R12         1.1011   estimate D2E/DX2                          !
 !       A3        119.279    estimate D2E/DX2                          !
 !       A4        121.2117   estimate D2E/DX2                          !
 !       A5        122.6946   estimate D2E/DX2                          !
 !       A6        121.6618   estimate D2E/DX2                          !
 !       A7        118.0627   estimate D2E/DX2                          !
 !       A8        118.3127   estimate D2E/DX2                          !
 !       A9        124.3513   estimate D2E/DX2                          !
 !       A10       123.3408   estimate D2E/DX2                          !
 !       A11       112.4254   estimate D2E/DX2                          !
 !       A12       111.1294   estimate D2E/DX2                          !
 !       D4       -175.7591   estimate D2E/DX2                          !
 !       D5        175.4329   estimate D2E/DX2                          !
 !       D6        172.7623   estimate D2E/DX2                          !
 !       D7        172.4885   estimate D2E/DX2                          !
 !       D8        178.9124   estimate D2E/DX2                          !
 !       D9       -169.2434   estimate D2E/DX2                          !
 !       D10       174.7213   estimate D2E/DX2                          !
 !       D11       151.3774   estimate D2E/DX2                          !
 !       D12       121.3583   estimate D2E/DX2                          !
 ------------------------------------------------------------------------
 Trust Radius=1.00D-01 FncErr=1.00D-07 GrdErr=1.00D-06 EigMax=2.50D+02 EigMin=1.00D-04
 Number of steps in this run=     40 maximum allowed number of steps=    100.
 GradGradGradGradGradGradGradGradGradGradGradGradGradGradGradGradGradGrad

 ---------------------------------------------------------------------------------------------------
                            Z-MATRIX (ANGSTROMS AND DEGREES)
   CD    Cent   Atom    N1       Length/X        N2       Alpha/Y        N3        Beta/Z          J
 ---------------------------------------------------------------------------------------------------
      1      1  C 
      2      2  C        1   1.336100(     1)
      3      3  C        1   1.454292(     2)      2  119.279(    12)
      4      4  H        1   1.083015(     3)      2  121.212(    13)      3 -175.759(    22)      0
      5      5  H        2   1.081973(     4)      1  122.695(    14)      3  175.433(    23)      0
      6      6  H        3   1.080019(     5)      1  121.662(    15)      2  172.762(    24)      0
      7      7  C        3   1.341633(     6)      1  118.063(    16)      6  172.489(    25)      0
      8      8  C        2   1.501302(     7)      1  118.313(    17)      5  178.912(    26)      0
      9      9  H        7   1.082692(     8)      3  124.351(    18)      1 -169.243(    27)      0
     10     10  O        7   1.350921(     9)      3  123.341(    19)      9  174.721(    28)      0
     11     11  H        8   1.088360(    10)      2  112.425(    20)      1  151.377(    29)      0
     12     12  H        8   1.101122(    11)      2  111.129(    21)     11  121.358(    30)      0
 ---------------------------------------------------------------------------------------------------
                         Z-Matrix orientation:                         
 ---------------------------------------------------------------------
 Center     Atomic      Atomic             Coordinates (Angstroms)
 Number     Number       Type             X           Y           Z
 ---------------------------------------------------------------------
      1          6           0        0.000000    0.000000    0.000000
      2          6           0        0.000000    0.000000    1.336100
      3          6           0        1.268504    0.000000   -0.711239
      4          1           0       -0.923722    0.068497   -0.561220
      5          1           0       -0.907655    0.072503    1.920540
      6          1           0        1.316990   -0.115816   -1.783935
      7          6           0        2.378952    0.301408   -0.021284
      8          6           0        1.315274   -0.130230    2.048142
      9          1           0        3.344368    0.494812   -0.471603
     10          8           0        2.392163    0.498578    1.315106
     11          1           0        1.309696    0.354618    3.022523
     12          1           0        1.585068   -1.187882    2.193241
 ---------------------------------------------------------------------
                    Distance matrix (angstroms):
                    1          2          3          4          5
     1  C    0.000000
     2  C    1.336100   0.000000
     3  C    1.454292   2.408465   0.000000
     4  H    1.083015   2.111345   2.198420   0.000000
     5  H    2.125458   1.081973   3.415727   2.481815   0.000000
     6  H    2.220428   3.388583   1.080019   2.559256   4.325234
     7  C    2.398064   2.755494   1.341633   3.354613   3.824247
     8  C    2.437579   1.501302   2.762849   3.444033   2.235799
     9  H    3.413509   3.833722   2.147435   4.290264   4.896978
    10  O    2.774983   2.443658   2.370077   3.834144   3.381847
    11  H    3.313111   2.164505   3.750791   4.232403   2.492108
    12  H    2.955302   2.158285   3.153931   3.931866   2.806529
                    6          7          8          9         10
     6  H    0.000000
     7  C    2.099709   0.000000
     8  C    3.832105   2.366484   0.000000
     9  H    2.491053   1.082692   3.294999   0.000000
    10  O    3.337295   1.350921   1.446524   2.024608   0.000000
    11  H    4.829431   3.226593   1.088360   4.045796   2.026754
    12  H    4.127847   2.784305   1.101122   3.609430   2.065592
                   11         12
    11  H    0.000000
    12  H    1.772806   0.000000
 Symmetry turned off by external request.
 Stoichiometry    C5H6O
 Framework group  C1[X(C5H6O)]
 Deg. of freedom    30
 Full point group                 C1      NOp   1
 Rotational constants (GHZ):           5.5808834           5.3754014           2.8559104
 Standard basis: def2TZVP (5D, 7F)
 The following finite field(s) will be applied:
 An electric field of              0.0021 -0.0014 -0.0043
   222 basis functions,   354 primitive gaussians,   252 cartesian basis functions
    22 alpha electrons       22 beta electrons
       nuclear repulsion energy       223.6012130689 Hartrees.
 NAtoms=   12 NActive=   12 NUniq=   12 SFac= 1.00D+00 NAtFMM=   60 NAOKFM=F Big=F
 Integral buffers will be    131072 words long.
 Raffenetti 2 integral format.
 Two-electron integral symmetry is turned off.
 One-electron integrals computed using PRISM.
   1 Symmetry operations used in ECPInt.
 ECPInt:  NShTT=    4095 NPrTT=   12396 LenC2=    4075 LenP2D=   10420.
 LDataN:  DoStor=T MaxTD1= 6 Len=  172
 NBasis=   222 RedAO= T EigKep=  9.58D-05  NBF=   222
 NBsUse=   222 1.00D-06 EigRej= -1.00D+00 NBFU=   222
 The nuclear repulsion energy is now       223.5508701246 hartrees.
 Initial guess from the checkpoint file:  "checkpoint.chk"
 B after Tr=     0.000000   -0.000000    0.000000
         Rot=    1.000000    0.000000   -0.000000   -0.000000 Ang=   0.00 deg.
 Keep R1 ints in memory in canonical form, NReq=319363885.
 Requested convergence on RMS density matrix=1.00D-08 within 128 cycles.
 Requested convergence on MAX density matrix=1.00D-06.
 Requested convergence on             energy=1.00D-06.
 No special actions if energy rises.
 SCF Done:  E(RB3LYP) =  -269.423600404     A.U. after   10 cycles
            NFock= 10  Conv=0.80D-08     -V/T= 2.0050
   1 Symmetry operations used in ECPInt.
 ECPInt:  NShTT=    4095 NPrTT=   12396 LenC2=    4075 LenP2D=   10420.
 LDataN:  DoStor=T MaxTD1= 7 Len=  274
 Calling FoFJK, ICntrl=      2127 FMM=F ISym2X=0 I1Cent= 0 IOpClX= 0 NMat=1 NMatS=1 NMatT=0.
 -------------------------------------------------------------------
 Center     Atomic                   Forces (Hartrees/Bohr)
 Number     Number              X              Y              Z
 -------------------------------------------------------------------
      1        6          -0.000826210   -0.000049431    0.000215927
      2        6           0.000309886   -0.000036507   -0.000400963
      3        6           0.000266383   -0.000211043    0.000123653
      4        1          -0.000075716    0.000080020    0.000114210
      5        1           0.000138609   -0.000016472    0.000024544
      6        1           0.000013954    0.000067588   -0.000277410
      7        6           0.000072609    0.000134999    0.001279359
      8        6          -0.000495419    0.000061125    0.001031202
      9        1           0.000213439    0.000077092   -0.000049366
     10        8           0.000611516   -0.000056093   -0.001936377
     11        1          -0.000076867   -0.000146627   -0.000160709
     12        1          -0.000152184    0.000095349    0.000035931
 -------------------------------------------------------------------
 Cartesian Forces:  Max     0.001936377 RMS     0.000485563
 -----------------------------------------------------------------------------------------------
                       Internal Coordinate Forces (Hartree/Bohr or radian)
  Cent   Atom   N1       Length/X         N2         Alpha/Y        N3         Beta/Z          J
 -----------------------------------------------------------------------------------------------
      1  C 
      2  C        1   0.000530(     1)
      3  C        1   0.001448(     2)      2   0.004630(    12)
      4  H        1   0.000010(     3)      2  -0.000286(    13)      3   0.000130(    22)     0
      5  H        2  -0.000104(     4)      1   0.000196(    14)      3  -0.000328(    23)     0
      6  H        3   0.000269(     5)      1   0.000016(    15)      2  -0.000653(    24)     0
      7  C        3   0.000415(     6)      1   0.004236(    16)      6  -0.000821(    25)     0
      8  C        2  -0.000206(     7)      1   0.003435(    17)      5  -0.000337(    26)     0
      9  H        7   0.000225(     8)      3   0.000104(    18)      1  -0.000189(    27)     0
     10  O        7  -0.001918(     9)      3   0.001686(    19)      9  -0.000240(    28)     0
     11  H        8  -0.000209(    10)      2  -0.000114(    20)      1  -0.000048(    29)     0
     12  H        8  -0.000124(    11)      2  -0.000178(    21)     11  -0.000202(    30)     0
 -----------------------------------------------------------------------------------------------
 Internal  Forces:  Max     0.004629521 RMS     0.001439176

 GradGradGradGradGradGradGradGradGradGradGradGradGradGradGradGradGradGrad
 Berny optimization.
 Search for a local minimum.
 Step number   1 out of a maximum of   40
 All quantities printed in internal units (Hartrees-Bohrs-Radians)
 Second derivative matrix not updated -- first step.
 ITU=  0
     Eigenvalues ---    0.03428   0.04476   0.05049   0.06637   0.08244
     Eigenvalues ---    0.12829   0.16575   0.18152   0.19865   0.21477
     Eigenvalues ---    0.27262   0.30784   0.32752   0.33558   0.34582
     Eigenvalues ---    0.35003   0.35633   0.35671   0.35757   0.35992
     Eigenvalues ---    0.39014   0.42835   0.52134   0.54244   0.55742
     Eigenvalues ---    0.57023   0.58881   1.96728   4.34210  22.79898
 RFO step:  Lambda=-1.42878615D-05 EMin= 3.42842410D-02
 Linear search not attempted -- first point.
 Variable       Old X    -DE/DX   Delta X   Delta X   Delta X     New X
                                 (Linear)    (Quad)   (Total)
    R2        2.52486   0.00053   0.00000  -0.00032  -0.00032   2.52454
    R3        2.74821   0.00145   0.00000   0.00125   0.00125   2.74946
    R4        2.04660   0.00001   0.00000   0.00003   0.00003   2.04663
    R5        2.04463  -0.00010   0.00000  -0.00029  -0.00029   2.04434
    R6        2.04094   0.00027   0.00000   0.00075   0.00075   2.04169
    R7        2.53532   0.00041   0.00000   0.00026   0.00026   2.53558
    R8        2.83705  -0.00021   0.00000   0.00022   0.00022   2.83727
    R9        2.04599   0.00022   0.00000   0.00063   0.00063   2.04662
   R10        2.55287  -0.00192   0.00000  -0.00227  -0.00227   2.55060
   R11        2.05670  -0.00021   0.00000  -0.00060  -0.00060   2.05610
   R12        2.08082  -0.00012   0.00000  -0.00036  -0.00036   2.08046
    A3        2.08181   0.00463   0.00000   0.00011   0.00011   2.08192
    A4        2.11554  -0.00029   0.00000  -0.00103  -0.00103   2.11451
    A5        2.14143   0.00020   0.00000  -0.00003  -0.00003   2.14139
    A6        2.12340   0.00002   0.00000  -0.00025  -0.00025   2.12315
    A7        2.06058   0.00424   0.00000   0.00075   0.00075   2.06133
    A8        2.06495   0.00344   0.00000   0.00133   0.00133   2.06627
    A9        2.17034   0.00010   0.00000   0.00020   0.00020   2.17054
   A10        2.15270   0.00169   0.00000   0.00018   0.00018   2.15288
   A11        1.96219  -0.00011   0.00000   0.00018   0.00018   1.96237
   A12        1.93957  -0.00018   0.00000  -0.00160  -0.00160   1.93797
    D4       -3.06758   0.00013   0.00000   0.00242   0.00242  -3.06515
    D5        3.06188  -0.00033   0.00000  -0.00140  -0.00140   3.06048
    D6        3.01527  -0.00065   0.00000   0.00411   0.00411   3.01938
    D7        3.01049  -0.00082   0.00000   0.00041   0.00041   3.01091
    D8        3.12261  -0.00034   0.00000   0.00159   0.00159   3.12420
    D9       -2.95385  -0.00019   0.00000  -0.00174  -0.00174  -2.95559
   D10        3.04946  -0.00024   0.00000  -0.00213  -0.00213   3.04733
   D11        2.64203  -0.00005   0.00000  -0.00385  -0.00385   2.63818
   D12        2.11810  -0.00020   0.00000  -0.00174  -0.00174   2.11636
         Item               Value     Threshold  Converged?
 Maximum Force            0.004630     0.000450     NO 
 RMS     Force            0.001439     0.000300     NO 
 Maximum Displacement     0.004108     0.001800     NO 
 RMS     Displacement     0.001499     0.001200     NO 
 Predicted change in Energy=-7.143931D-06
 GradGradGradGradGradGradGradGradGradGradGradGradGradGradGradGradGradGrad

 ---------------------------------------------------------------------------------------------------
                            Z-MATRIX (ANGSTROMS AND DEGREES)
   CD    Cent   Atom    N1       Length/X        N2       Alpha/Y        N3        Beta/Z          J
 ---------------------------------------------------------------------------------------------------
      1      1  C 
      2      2  C        1   1.335931(     1)
      3      3  C        1   1.454953(     2)      2  119.285(    12)
      4      4  H        1   1.083032(     3)      2  121.153(    13)      3 -175.620(    22)      0
      5      5  H        2   1.081819(     4)      1  122.693(    14)      3  175.353(    23)      0
      6      6  H        3   1.080415(     5)      1  121.647(    15)      2  172.998(    24)      0
      7      7  C        3   1.341770(     6)      1  118.106(    16)      6  172.512(    25)      0
      8      8  C        2   1.501417(     7)      1  118.389(    17)      5  179.004(    26)      0
      9      9  H        7   1.083025(     8)      3  124.363(    18)      1 -169.343(    27)      0
     10     10  O        7   1.349719(     9)      3  123.351(    19)      9  174.599(    28)      0
     11     11  H        8   1.088043(    10)      2  112.435(    20)      1  151.157(    29)      0
     12     12  H        8   1.100930(    11)      2  111.037(    21)     11  121.259(    30)      0
 ---------------------------------------------------------------------------------------------------
                         Z-Matrix orientation:                         
 ---------------------------------------------------------------------
 Center     Atomic      Atomic             Coordinates (Angstroms)
 Number     Number       Type             X           Y           Z
 ---------------------------------------------------------------------
      1          6           0        0.000000    0.000000    0.000000
      2          6           0        0.000000    0.000000    1.335931
      3          6           0        1.269002    0.000000   -0.711703
      4          1           0       -0.924145    0.070780   -0.560272
      5          1           0       -0.907443    0.073764    1.920259
      6          1           0        1.316888   -0.112127   -1.785217
      7          6           0        2.380848    0.296140   -0.021452
      8          6           0        1.314460   -0.129892    2.049779
      9          1           0        3.347076    0.487567   -0.471678
     10          8           0        2.395103    0.492247    1.313868
     11          1           0        1.308902    0.358183    3.022194
     12          1           0        1.579989   -1.187767    2.199585
 ---------------------------------------------------------------------
                    Distance matrix (angstroms):
                    1          2          3          4          5
     1  C    0.000000
     2  C    1.335931   0.000000
     3  C    1.454953   2.408978   0.000000
     4  H    1.083032   2.110602   2.199508   0.000000
     5  H    2.125156   1.081819   3.416076   2.480589   0.000000
     6  H    2.221208   3.389444   1.080415   2.560502   4.325824
     7  C    2.399291   2.756561   1.341770   3.356202   3.825252
     8  C    2.438498   1.501417   2.764909   3.444413   2.234972
     9  H    3.415131   3.835113   2.147958   4.292422   4.898319
    10  O    2.775802   2.445263   2.369251   3.835028   3.383733
    11  H    3.312881   2.164486   3.751250   4.231213   2.491453
    12  H    2.957251   2.157094   3.159605   3.933375   2.802998
                    6          7          8          9         10
     6  H    0.000000
     7  C    2.099895   0.000000
     8  C    3.835038   2.368267   0.000000
     9  H    2.491321   1.083025   3.297049   0.000000
    10  O    3.336487   1.349719   1.447899   2.023475   0.000000
    11  H    4.830368   3.227491   1.088043   4.046979   2.028838
    12  H    4.135804   2.788613   1.100930   3.614552   2.066725
                   11         12
    11  H    0.000000
    12  H    1.772042   0.000000
 Symmetry turned off by external request.
 Stoichiometry    C5H6O
 Framework group  C1[X(C5H6O)]
 Deg. of freedom    30
 Full point group                 C1      NOp   1
 Rotational constants (GHZ):           5.5778360           5.3738760           2.8531599
 Standard basis: def2TZVP (5D, 7F)
 The following finite field(s) will be applied:
 An electric field of              0.0021 -0.0014 -0.0043
   222 basis functions,   354 primitive gaussians,   252 cartesian basis functions
    22 alpha electrons       22 beta electrons
       nuclear repulsion energy       223.5558387757 Hartrees.
 NAtoms=   12 NActive=   12 NUniq=   12 SFac= 1.00D+00 NAtFMM=   60 NAOKFM=F Big=F
 Integral buffers will be    131072 words long.
 Raffenetti 2 integral format.
 Two-electron integral symmetry is turned off.
 One-electron integrals computed using PRISM.
   1 Symmetry operations used in ECPInt.
 ECPInt:  NShTT=    4095 NPrTT=   12396 LenC2=    4075 LenP2D=   10420.
 LDataN:  DoStor=T MaxTD1= 6 Len=  172
 NBasis=   222 RedAO= T EigKep=  9.58D-05  NBF=   222
 NBsUse=   222 1.00D-06 EigRej= -1.00D+00 NBFU=   222
 The nuclear repulsion energy is now       223.5058170524 hartrees.
 Initial guess from the checkpoint file:  "checkpoint.chk"
 B after Tr=     0.000834    0.002211   -0.000039
         Rot=    0.999999    0.000127    0.000023    0.001243 Ang=   0.14 deg.
 Keep R1 ints in memory in canonical form, NReq=319363885.
 Requested convergence on RMS density matrix=1.00D-08 within 128 cycles.
 Requested convergence on MAX density matrix=1.00D-06.
 Requested convergence on             energy=1.00D-06.
 No special actions if energy rises.
 SCF Done:  E(RB3LYP) =  -269.423609650     A.U. after    8 cycles
            NFock=  8  Conv=0.55D-08     -V/T= 2.0050
   1 Symmetry operations used in ECPInt.
 ECPInt:  NShTT=    4095 NPrTT=   12396 LenC2=    4075 LenP2D=   10420.
 LDataN:  DoStor=T MaxTD1= 7 Len=  274
 Calling FoFJK, ICntrl=      2127 FMM=F ISym2X=0 I1Cent= 0 IOpClX= 0 NMat=1 NMatS=1 NMatT=0.
 -------------------------------------------------------------------
 Center     Atomic                   Forces (Hartrees/Bohr)
 Number     Number              X              Y              Z
 -------------------------------------------------------------------
      1        6          -0.000448575    0.000226430    0.000023121
      2        6           0.000516885    0.000179800   -0.000248334
      3        6           0.000104600   -0.000380175   -0.000120972
      4        1          -0.000004205   -0.000010173    0.000028064
      5        1           0.000010724   -0.000051692    0.000059913
      6        1          -0.000012333   -0.000007168    0.000003417
      7        6          -0.000208372    0.000243860    0.000563428
      8        6          -0.000348995   -0.000144576    0.000271509
      9        1          -0.000003064    0.000016422   -0.000048905
     10        8           0.000291947   -0.000231422   -0.000497329
     11        1           0.000049229    0.000103287   -0.000087176
     12        1           0.000052159    0.000055408    0.000053264
 -------------------------------------------------------------------
 Cartesian Forces:  Max     0.000563428 RMS     0.000226487
 -----------------------------------------------------------------------------------------------
                       Internal Coordinate Forces (Hartree/Bohr or radian)
  Cent   Atom   N1       Length/X         N2         Alpha/Y        N3         Beta/Z          J
 -----------------------------------------------------------------------------------------------
      1  C 
      2  C        1   0.000049(     1)
      3  C        1   0.000200(     2)      2   0.000944(    12)
      4  H        1  -0.000012(     3)      2  -0.000053(    13)      3  -0.000018(    22)     0
      5  H        2   0.000020(     4)      1   0.000120(    14)      3   0.000147(    23)     0
      6  H        3  -0.000003(     5)      1  -0.000026(    15)      2   0.000342(    24)     0
      7  C        3   0.000082(     6)      1   0.000852(    16)      6   0.000354(    25)     0
      8  C        2  -0.000105(     7)      1   0.000889(    17)      5   0.000060(    26)     0
      9  H        7   0.000020(     8)      3  -0.000088(    18)      1   0.000471(    27)     0
     10  O        7  -0.000523(     9)      3   0.000679(    19)      9   0.000438(    28)     0
     11  H        8  -0.000032(    10)      2   0.000011(    20)      1  -0.000310(    29)     0
     12  H        8  -0.000033(    11)      2   0.000174(    21)     11  -0.000043(    30)     0
 -----------------------------------------------------------------------------------------------
 Internal  Forces:  Max     0.000943898 RMS     0.000366897

 GradGradGradGradGradGradGradGradGradGradGradGradGradGradGradGradGradGrad
 Berny optimization.
 Search for a local minimum.
 Step number   2 out of a maximum of   40
 All quantities printed in internal units (Hartrees-Bohrs-Radians)
 Update second derivatives using D2CorN and points    1    2
 DE= -9.25D-06 DEPred=-7.14D-06 R= 1.29D+00
 TightC=F SS=  1.41D+00  RLast= 8.21D-03 DXNew= 1.6818D-01 2.4635D-02
 Trust test= 1.29D+00 RLast= 8.21D-03 DXMaxT set to 1.00D-01
 ITU=  1  0
     Eigenvalues ---    0.02903   0.03862   0.04748   0.06591   0.07194
     Eigenvalues ---    0.12744   0.16339   0.18043   0.19915   0.21666
     Eigenvalues ---    0.27324   0.30812   0.32744   0.33537   0.34602
     Eigenvalues ---    0.34957   0.35629   0.35637   0.35763   0.35973
     Eigenvalues ---    0.39074   0.42127   0.52058   0.53311   0.55761
     Eigenvalues ---    0.56897   0.58885   1.96647   4.33114  22.79397
 RFO step:  Lambda=-6.00256471D-06 EMin= 2.90347601D-02
 Quartic linear search produced a step of  0.40599.
 Variable       Old X    -DE/DX   Delta X   Delta X   Delta X     New X
                                 (Linear)    (Quad)   (Total)
    R2        2.52454   0.00005  -0.00013  -0.00007  -0.00020   2.52434
    R3        2.74946   0.00020   0.00051  -0.00054  -0.00004   2.74942
    R4        2.04663  -0.00001   0.00001  -0.00006  -0.00005   2.04658
    R5        2.04434   0.00002  -0.00012   0.00018   0.00006   2.04440
    R6        2.04169  -0.00000   0.00030  -0.00024   0.00007   2.04176
    R7        2.53558   0.00008   0.00011  -0.00017  -0.00007   2.53551
    R8        2.83727  -0.00011   0.00009   0.00009   0.00018   2.83745
    R9        2.04662   0.00002   0.00026  -0.00009   0.00017   2.04679
   R10        2.55060  -0.00052  -0.00092  -0.00050  -0.00143   2.54917
   R11        2.05610  -0.00003  -0.00024   0.00002  -0.00022   2.05588
   R12        2.08046  -0.00003  -0.00015  -0.00005  -0.00020   2.08026
    A3        2.08192   0.00094   0.00004   0.00002   0.00007   2.08199
    A4        2.11451  -0.00005  -0.00042  -0.00009  -0.00051   2.11400
    A5        2.14139   0.00012  -0.00001  -0.00031  -0.00033   2.14107
    A6        2.12315  -0.00003  -0.00010   0.00005  -0.00006   2.12309
    A7        2.06133   0.00085   0.00030  -0.00051  -0.00021   2.06112
    A8        2.06627   0.00089   0.00054   0.00143   0.00197   2.06824
    A9        2.17054  -0.00009   0.00008  -0.00138  -0.00130   2.16924
   A10        2.15288   0.00068   0.00007   0.00168   0.00176   2.15463
   A11        1.96237   0.00001   0.00007  -0.00006   0.00001   1.96238
   A12        1.93797   0.00017  -0.00065   0.00154   0.00089   1.93886
    D4       -3.06515  -0.00002   0.00098   0.00108   0.00206  -3.06309
    D5        3.06048   0.00015  -0.00057  -0.00121  -0.00178   3.05871
    D6        3.01938   0.00034   0.00167   0.00277   0.00444   3.02382
    D7        3.01091   0.00035   0.00017  -0.00048  -0.00031   3.01060
    D8        3.12420   0.00006   0.00065   0.00079   0.00144   3.12564
    D9       -2.95559   0.00047  -0.00070  -0.00003  -0.00073  -2.95632
   D10        3.04733   0.00044  -0.00086   0.00063  -0.00023   3.04710
   D11        2.63818  -0.00031  -0.00156  -0.00681  -0.00837   2.62981
   D12        2.11636  -0.00004  -0.00071   0.00173   0.00103   2.11739
         Item               Value     Threshold  Converged?
 Maximum Force            0.000944     0.000450     NO 
 RMS     Force            0.000367     0.000300     NO 
 Maximum Displacement     0.008374     0.001800     NO 
 RMS     Displacement     0.001942     0.001200     NO 
 Predicted change in Energy=-3.273969D-06
 GradGradGradGradGradGradGradGradGradGradGradGradGradGradGradGradGradGrad

 ---------------------------------------------------------------------------------------------------
                            Z-MATRIX (ANGSTROMS AND DEGREES)
   CD    Cent   Atom    N1       Length/X        N2       Alpha/Y        N3        Beta/Z          J
 ---------------------------------------------------------------------------------------------------
      1      1  C 
      2      2  C        1   1.335825(     1)
      3      3  C        1   1.454933(     2)      2  119.289(    12)
      4      4  H        1   1.083005(     3)      2  121.123(    13)      3 -175.502(    22)      0
      5      5  H        2   1.081852(     4)      1  122.674(    14)      3  175.251(    23)      0
      6      6  H        3   1.080452(     5)      1  121.644(    15)      2  173.252(    24)      0
      7      7  C        3   1.341736(     6)      1  118.094(    16)      6  172.495(    25)      0
      8      8  C        2   1.501513(     7)      1  118.501(    17)      5  179.086(    26)      0
      9      9  H        7   1.083113(     8)      3  124.288(    18)      1 -169.385(    27)      0
     10     10  O        7   1.348964(     9)      3  123.451(    19)      9  174.586(    28)      0
     11     11  H        8   1.087925(    10)      2  112.436(    20)      1  150.677(    29)      0
     12     12  H        8   1.100824(    11)      2  111.088(    21)     11  121.318(    30)      0
 ---------------------------------------------------------------------------------------------------
                         Z-Matrix orientation:                         
 ---------------------------------------------------------------------
 Center     Atomic      Atomic             Coordinates (Angstroms)
 Number     Number       Type             X           Y           Z
 ---------------------------------------------------------------------
      1          6           0        0.000000    0.000000    0.000000
      2          6           0        0.000000    0.000000    1.335825
      3          6           0        1.268935    0.000000   -0.711781
      4          1           0       -0.924261    0.072705   -0.559782
      5          1           0       -0.907529    0.075395    1.919872
      6          1           0        1.316449   -0.108080   -1.785763
      7          6           0        2.381242    0.291427   -0.020334
      8          6           0        1.313098   -0.130208    2.052317
      9          1           0        3.347575    0.481753   -0.471013
     10          8           0        2.397843    0.484007    1.314710
     11          1           0        1.308486    0.365130    3.020924
     12          1           0        1.575163   -1.187706    2.209908
 ---------------------------------------------------------------------
                    Distance matrix (angstroms):
                    1          2          3          4          5
     1  C    0.000000
     2  C    1.335825   0.000000
     3  C    1.454933   2.408918   0.000000
     4  H    1.083005   2.110183   2.199659   0.000000
     5  H    2.124900   1.081852   3.415886   2.479712   0.000000
     6  H    2.221186   3.389547   1.080452   2.560565   4.325676
     7  C    2.399095   2.755796   1.341736   3.356366   3.824537
     8  C    2.439915   1.501513   2.767516   3.445288   2.234054
     9  H    3.414703   3.834450   2.147277   4.292293   4.897689
    10  O    2.777117   2.446295   2.369675   3.836569   3.385065
    11  H    3.312316   2.164490   3.750730   4.229909   2.491382
    12  H    2.962343   2.157732   3.168705   3.937885   2.800590
                    6          7          8          9         10
     6  H    0.000000
     7  C    2.100030   0.000000
     8  C    3.838145   2.369513   0.000000
     9  H    2.490369   1.083113   3.298604   0.000000
    10  O    3.336601   1.348964   1.448447   2.022573   0.000000
    11  H    4.829931   3.225754   1.087925   4.045381   2.027807
    12  H    4.147037   2.794920   1.100824   3.621584   2.067077
                   11         12
    11  H    0.000000
    12  H    1.772051   0.000000
 Symmetry turned off by external request.
 Stoichiometry    C5H6O
 Framework group  C1[X(C5H6O)]
 Deg. of freedom    30
 Full point group                 C1      NOp   1
 Rotational constants (GHZ):           5.5761468           5.3731895           2.8507867
 Standard basis: def2TZVP (5D, 7F)
 The following finite field(s) will be applied:
 An electric field of              0.0021 -0.0014 -0.0043
   222 basis functions,   354 primitive gaussians,   252 cartesian basis functions
    22 alpha electrons       22 beta electrons
       nuclear repulsion energy       223.5314936190 Hartrees.
 NAtoms=   12 NActive=   12 NUniq=   12 SFac= 1.00D+00 NAtFMM=   60 NAOKFM=F Big=F
 Integral buffers will be    131072 words long.
 Raffenetti 2 integral format.
 Two-electron integral symmetry is turned off.
 One-electron integrals computed using PRISM.
   1 Symmetry operations used in ECPInt.
 ECPInt:  NShTT=    4095 NPrTT=   12396 LenC2=    4075 LenP2D=   10419.
 LDataN:  DoStor=T MaxTD1= 6 Len=  172
 NBasis=   222 RedAO= T EigKep=  9.57D-05  NBF=   222
 NBsUse=   222 1.00D-06 EigRej= -1.00D+00 NBFU=   222
 The nuclear repulsion energy is now       223.4814506953 hartrees.
 Initial guess from the checkpoint file:  "checkpoint.chk"
 B after Tr=     0.000253    0.002368    0.001016
         Rot=    0.999999    0.000031    0.000123    0.001320 Ang=   0.15 deg.
 Keep R1 ints in memory in canonical form, NReq=319363885.
 Requested convergence on RMS density matrix=1.00D-08 within 128 cycles.
 Requested convergence on MAX density matrix=1.00D-06.
 Requested convergence on             energy=1.00D-06.
 No special actions if energy rises.
 SCF Done:  E(RB3LYP) =  -269.423614171     A.U. after    8 cycles
            NFock=  8  Conv=0.79D-08     -V/T= 2.0050
   1 Symmetry operations used in ECPInt.
 ECPInt:  NShTT=    4095 NPrTT=   12396 LenC2=    4075 LenP2D=   10419.
 LDataN:  DoStor=T MaxTD1= 7 Len=  274
 Calling FoFJK, ICntrl=      2127 FMM=F ISym2X=0 I1Cent= 0 IOpClX= 0 NMat=1 NMatS=1 NMatT=0.
 -------------------------------------------------------------------
 Center     Atomic                   Forces (Hartrees/Bohr)
 Number     Number              X              Y              Z
 -------------------------------------------------------------------
      1        6          -0.000382642    0.000370935    0.000049565
      2        6           0.000469471    0.000215117   -0.000006388
      3        6           0.000022703   -0.000436190   -0.000066649
      4        1          -0.000011652   -0.000059616    0.000006046
      5        1          -0.000009044   -0.000097910    0.000034759
      6        1           0.000025302   -0.000040856    0.000053932
      7        6           0.000024663    0.000239141   -0.000004027
      8        6          -0.000171044    0.000003516    0.000039149
      9        1          -0.000008034   -0.000011505   -0.000014600
     10        8           0.000104985   -0.000232298   -0.000207578
     11        1          -0.000100561    0.000006873    0.000076710
     12        1           0.000035852    0.000042793    0.000039081
 -------------------------------------------------------------------
 Cartesian Forces:  Max     0.000469471 RMS     0.000165497
 -----------------------------------------------------------------------------------------------
                       Internal Coordinate Forces (Hartree/Bohr or radian)
  Cent   Atom   N1       Length/X         N2         Alpha/Y        N3         Beta/Z          J
 -----------------------------------------------------------------------------------------------
      1  C 
      2  C        1   0.000183(     1)
      3  C        1   0.000265(     2)      2   0.001228(    12)
      4  H        1   0.000003(     3)      2  -0.000018(    13)      3  -0.000106(    22)     0
      5  H        2   0.000020(     4)      1   0.000059(    14)      3   0.000430(    23)     0
      6  H        3  -0.000048(     5)      1   0.000051(    15)      2   0.000315(    24)     0
      7  C        3  -0.000017(     6)      1   0.000895(    16)      6   0.000397(    25)     0
      8  C        2  -0.000137(     7)      1   0.000905(    17)      5   0.000261(    26)     0
      9  H        7  -0.000003(     8)      3  -0.000037(    18)      1   0.000444(    27)     0
     10  O        7  -0.000237(     9)      3   0.000185(    19)      9   0.000459(    28)     0
     11  H        8   0.000072(    10)      2  -0.000177(    20)      1   0.000078(    29)     0
     12  H        8  -0.000027(    11)      2   0.000125(    21)     11  -0.000034(    30)     0
 -----------------------------------------------------------------------------------------------
 Internal  Forces:  Max     0.001227831 RMS     0.000380391

 GradGradGradGradGradGradGradGradGradGradGradGradGradGradGradGradGradGrad
 Berny optimization.
 Search for a local minimum.
 Step number   3 out of a maximum of   40
 All quantities printed in internal units (Hartrees-Bohrs-Radians)
 Update second derivatives using D2CorN and points    1    2    3
 DE= -4.52D-06 DEPred=-3.27D-06 R= 1.38D+00
 TightC=F SS=  1.41D+00  RLast= 1.06D-02 DXNew= 1.6818D-01 3.1912D-02
 Trust test= 1.38D+00 RLast= 1.06D-02 DXMaxT set to 1.00D-01
 ITU=  1  1  0
     Eigenvalues ---    0.03465   0.03640   0.04712   0.06237   0.07152
     Eigenvalues ---    0.12753   0.16216   0.18101   0.19923   0.21650
     Eigenvalues ---    0.27332   0.30805   0.32737   0.33527   0.34609
     Eigenvalues ---    0.34974   0.35619   0.35635   0.35765   0.35982
     Eigenvalues ---    0.39051   0.41404   0.52039   0.53287   0.55768
     Eigenvalues ---    0.56872   0.58882   1.96583   4.32410  22.79184
 RFO step:  Lambda=-2.12152089D-06 EMin= 3.46524378D-02
 Quartic linear search produced a step of  0.38246.
 Variable       Old X    -DE/DX   Delta X   Delta X   Delta X     New X
                                 (Linear)    (Quad)   (Total)
    R2        2.52434   0.00018  -0.00008   0.00002  -0.00006   2.52428
    R3        2.74942   0.00026  -0.00001   0.00018   0.00017   2.74959
    R4        2.04658   0.00000  -0.00002   0.00002   0.00001   2.04659
    R5        2.04440   0.00002   0.00002   0.00004   0.00007   2.04447
    R6        2.04176  -0.00005   0.00003  -0.00015  -0.00012   2.04163
    R7        2.53551  -0.00002  -0.00002  -0.00008  -0.00010   2.53541
    R8        2.83745  -0.00014   0.00007  -0.00034  -0.00027   2.83718
    R9        2.04679  -0.00000   0.00006  -0.00001   0.00006   2.04684
   R10        2.54917  -0.00024  -0.00055   0.00013  -0.00042   2.54876
   R11        2.05588   0.00007  -0.00009   0.00029   0.00021   2.05609
   R12        2.08026  -0.00003  -0.00008  -0.00009  -0.00017   2.08009
    A3        2.08199   0.00123   0.00003   0.00042   0.00045   2.08244
    A4        2.11400  -0.00002  -0.00020  -0.00024  -0.00044   2.11356
    A5        2.14107   0.00006  -0.00013   0.00000  -0.00012   2.14094
    A6        2.12309   0.00005  -0.00002   0.00020   0.00018   2.12327
    A7        2.06112   0.00090  -0.00008   0.00006  -0.00002   2.06110
    A8        2.06824   0.00091   0.00075   0.00017   0.00092   2.06916
    A9        2.16924  -0.00004  -0.00050   0.00016  -0.00034   2.16890
   A10        2.15463   0.00018   0.00067  -0.00042   0.00025   2.15489
   A11        1.96238  -0.00018   0.00001  -0.00079  -0.00078   1.96160
   A12        1.93886   0.00012   0.00034   0.00000   0.00034   1.93920
    D4       -3.06309  -0.00011   0.00079  -0.00173  -0.00095  -3.06404
    D5        3.05871   0.00043  -0.00068   0.00177   0.00109   3.05980
    D6        3.02382   0.00031   0.00170  -0.00080   0.00090   3.02472
    D7        3.01060   0.00040  -0.00012   0.00002  -0.00010   3.01050
    D8        3.12564   0.00026   0.00055  -0.00013   0.00041   3.12606
    D9       -2.95632   0.00044  -0.00028  -0.00031  -0.00059  -2.95691
   D10        3.04710   0.00046  -0.00009   0.00116   0.00107   3.04817
   D11        2.62981   0.00008  -0.00320  -0.00153  -0.00473   2.62507
   D12        2.11739  -0.00003   0.00039  -0.00090  -0.00051   2.11688
         Item               Value     Threshold  Converged?
 Maximum Force            0.001228     0.000450     NO 
 RMS     Force            0.000380     0.000300     NO 
 Maximum Displacement     0.004734     0.001800     NO 
 RMS     Displacement     0.000997     0.001200     YES
 Predicted change in Energy=-1.168407D-06
 GradGradGradGradGradGradGradGradGradGradGradGradGradGradGradGradGradGrad

 ---------------------------------------------------------------------------------------------------
                            Z-MATRIX (ANGSTROMS AND DEGREES)
   CD    Cent   Atom    N1       Length/X        N2       Alpha/Y        N3        Beta/Z          J
 ---------------------------------------------------------------------------------------------------
      1      1  C 
      2      2  C        1   1.335793(     1)
      3      3  C        1   1.455020(     2)      2  119.315(    12)
      4      4  H        1   1.083008(     3)      2  121.098(    13)      3 -175.556(    22)      0
      5      5  H        2   1.081887(     4)      1  122.667(    14)      3  175.314(    23)      0
      6      6  H        3   1.080385(     5)      1  121.654(    15)      2  173.303(    24)      0
      7      7  C        3   1.341680(     6)      1  118.092(    16)      6  172.489(    25)      0
      8      8  C        2   1.501368(     7)      1  118.554(    17)      5  179.110(    26)      0
      9      9  H        7   1.083143(     8)      3  124.269(    18)      1 -169.419(    27)      0
     10     10  O        7   1.348743(     9)      3  123.466(    19)      9  174.647(    28)      0
     11     11  H        8   1.088034(    10)      2  112.392(    20)      1  150.406(    29)      0
     12     12  H        8   1.100737(    11)      2  111.108(    21)     11  121.288(    30)      0
 ---------------------------------------------------------------------------------------------------
                         Z-Matrix orientation:                         
 ---------------------------------------------------------------------
 Center     Atomic      Atomic             Coordinates (Angstroms)
 Number     Number       Type             X           Y           Z
 ---------------------------------------------------------------------
      1          6           0        0.000000    0.000000    0.000000
      2          6           0        0.000000    0.000000    1.335793
      3          6           0        1.268693    0.000000   -0.712392
      4          1           0       -0.924575    0.071849   -0.559380
      5          1           0       -0.907711    0.074410    1.919747
      6          1           0        1.315866   -0.107242   -1.786406
      7          6           0        2.381360    0.290500   -0.021243
      8          6           0        1.312510   -0.128151    2.053429
      9          1           0        3.347571    0.480207   -0.472516
     10          8           0        2.399028    0.481638    1.313771
     11          1           0        1.306976    0.371572    3.019899
     12          1           0        1.573746   -1.184971    2.216244
 ---------------------------------------------------------------------
                    Distance matrix (angstroms):
                    1          2          3          4          5
     1  C    0.000000
     2  C    1.335793   0.000000
     3  C    1.455020   2.409282   0.000000
     4  H    1.083008   2.109900   2.199772   0.000000
     5  H    2.124830   1.081887   3.416200   2.479185   0.000000
     6  H    2.221318   3.389857   1.080385   2.560712   4.325837
     7  C    2.399108   2.756232   1.341680   3.356576   3.825196
     8  C    2.440425   1.501368   2.769135   3.445478   2.233446
     9  H    3.414689   3.834946   2.147062   4.292497   4.898470
    10  O    2.777284   2.446997   2.369593   3.837050   3.386379
    11  H    3.311501   2.163900   3.750937   4.228580   2.490678
    12  H    2.965227   2.157783   3.173976   3.940215   2.798496
                    6          7          8          9         10
     6  H    0.000000
     7  C    2.099828   0.000000
     8  C    3.839894   2.371071   0.000000
     9  H    2.489825   1.083143   3.300299   0.000000
    10  O    3.336333   1.348743   1.448951   2.022512   0.000000
    11  H    4.830105   3.226363   1.088034   4.046331   2.028686
    12  H    4.153217   2.799215   1.100737   3.626114   2.067156
                   11         12
    11  H    0.000000
    12  H    1.771963   0.000000
 Symmetry turned off by external request.
 Stoichiometry    C5H6O
 Framework group  C1[X(C5H6O)]
 Deg. of freedom    30
 Full point group                 C1      NOp   1
 Rotational constants (GHZ):           5.5730627           5.3739359           2.8491032
 Standard basis: def2TZVP (5D, 7F)
 The following finite field(s) will be applied:
 An electric field of              0.0021 -0.0014 -0.0043
   222 basis functions,   354 primitive gaussians,   252 cartesian basis functions
    22 alpha electrons       22 beta electrons
       nuclear repulsion energy       223.5070218365 Hartrees.
 NAtoms=   12 NActive=   12 NUniq=   12 SFac= 1.00D+00 NAtFMM=   60 NAOKFM=F Big=F
 Integral buffers will be    131072 words long.
 Raffenetti 2 integral format.
 Two-electron integral symmetry is turned off.
 One-electron integrals computed using PRISM.
   1 Symmetry operations used in ECPInt.
 ECPInt:  NShTT=    4095 NPrTT=   12396 LenC2=    4075 LenP2D=   10419.
 LDataN:  DoStor=T MaxTD1= 6 Len=  172
 NBasis=   222 RedAO= T EigKep=  9.56D-05  NBF=   222
 NBsUse=   222 1.00D-06 EigRej= -1.00D+00 NBFU=   222
 The nuclear repulsion energy is now       223.4570535191 hartrees.
 Initial guess from the checkpoint file:  "checkpoint.chk"
 B after Tr=    -0.000194    0.000157    0.000089
         Rot=    1.000000    0.000361   -0.000050    0.000287 Ang=   0.05 deg.
 Keep R1 ints in memory in canonical form, NReq=319363885.
 Requested convergence on RMS density matrix=1.00D-08 within 128 cycles.
 Requested convergence on MAX density matrix=1.00D-06.
 Requested convergence on             energy=1.00D-06.
 No special actions if energy rises.
 SCF Done:  E(RB3LYP) =  -269.423615920     A.U. after    8 cycles
            NFock=  8  Conv=0.50D-08     -V/T= 2.0050
   1 Symmetry operations used in ECPInt.
 ECPInt:  NShTT=    4095 NPrTT=   12396 LenC2=    4075 LenP2D=   10419.
 LDataN:  DoStor=T MaxTD1= 7 Len=  274
 Calling FoFJK, ICntrl=      2127 FMM=F ISym2X=0 I1Cent= 0 IOpClX= 0 NMat=1 NMatS=1 NMatT=0.
 -------------------------------------------------------------------
 Center     Atomic                   Forces (Hartrees/Bohr)
 Number     Number              X              Y              Z
 -------------------------------------------------------------------
      1        6          -0.000396457    0.000284858    0.000033645
      2        6           0.000454727    0.000275527   -0.000056169
      3        6          -0.000015812   -0.000356285   -0.000021321
      4        1          -0.000002396   -0.000065948   -0.000008000
      5        1          -0.000004806   -0.000081269    0.000012570
      6        1          -0.000002121   -0.000041118    0.000013609
      7        6          -0.000060241    0.000097343   -0.000040997
      8        6          -0.000033190   -0.000006500   -0.000098571
      9        1          -0.000004428   -0.000014633    0.000041158
     10        8           0.000043871   -0.000106753    0.000055574
     11        1          -0.000007235    0.000003289    0.000019622
     12        1           0.000028087    0.000011487    0.000048879
 -------------------------------------------------------------------
 Cartesian Forces:  Max     0.000454727 RMS     0.000140808
 -----------------------------------------------------------------------------------------------
                       Internal Coordinate Forces (Hartree/Bohr or radian)
  Cent   Atom   N1       Length/X         N2         Alpha/Y        N3         Beta/Z          J
 -----------------------------------------------------------------------------------------------
      1  C 
      2  C        1  -0.000074(     1)
      3  C        1  -0.000057(     2)      2  -0.000167(    12)
      4  H        1   0.000002(     3)      2   0.000017(    13)      3  -0.000116(    22)     0
      5  H        2   0.000005(     4)      1   0.000024(    14)      3   0.000226(    23)     0
      6  H        3  -0.000010(     5)      1  -0.000008(    15)      2   0.000276(    24)     0
      7  C        3   0.000006(     6)      1  -0.000128(    16)      6   0.000349(    25)     0
      8  C        2  -0.000026(     7)      1  -0.000020(    17)      5   0.000086(    26)     0
      9  H        7  -0.000024(     8)      3   0.000069(    18)      1   0.000227(    27)     0
     10  O        7   0.000040(     9)      3   0.000060(    19)      9   0.000254(    28)     0
     11  H        8   0.000019(    10)      2  -0.000010(    20)      1  -0.000042(    29)     0
     12  H        8   0.000003(    11)      2   0.000102(    21)     11  -0.000058(    30)     0
 -----------------------------------------------------------------------------------------------
 Internal  Forces:  Max     0.000349345 RMS     0.000124865

 GradGradGradGradGradGradGradGradGradGradGradGradGradGradGradGradGradGrad
 Berny optimization.
 Search for a local minimum.
 Step number   4 out of a maximum of   40
 All quantities printed in internal units (Hartrees-Bohrs-Radians)
 Update second derivatives using D2CorN and points    1    2    3    4
 DE= -1.75D-06 DEPred=-1.17D-06 R= 1.50D+00
 TightC=F SS=  1.41D+00  RLast= 5.46D-03 DXNew= 1.6818D-01 1.6379D-02
 Trust test= 1.50D+00 RLast= 5.46D-03 DXMaxT set to 1.00D-01
 ITU=  1  1  1  0
     Eigenvalues ---    0.02361   0.03860   0.04769   0.06056   0.07159
     Eigenvalues ---    0.12646   0.16119   0.18132   0.19937   0.21654
     Eigenvalues ---    0.27335   0.30794   0.32728   0.33522   0.34612
     Eigenvalues ---    0.34973   0.35617   0.35635   0.35766   0.35982
     Eigenvalues ---    0.39032   0.40784   0.52068   0.53270   0.55803
     Eigenvalues ---    0.56867   0.58892   1.96632   4.31683  22.79239
 RFO step:  Lambda=-8.44660615D-07 EMin= 2.36122177D-02
 Quartic linear search produced a step of  0.52310.
 Variable       Old X    -DE/DX   Delta X   Delta X   Delta X     New X
                                 (Linear)    (Quad)   (Total)
    R2        2.52428  -0.00007  -0.00003  -0.00013  -0.00016   2.52412
    R3        2.74959  -0.00006   0.00009  -0.00017  -0.00008   2.74951
    R4        2.04659   0.00000   0.00000   0.00001   0.00001   2.04660
    R5        2.04447   0.00001   0.00003  -0.00001   0.00003   2.04450
    R6        2.04163  -0.00001  -0.00007   0.00003  -0.00003   2.04160
    R7        2.53541   0.00001  -0.00005   0.00004  -0.00001   2.53540
    R8        2.83718  -0.00003  -0.00014   0.00006  -0.00008   2.83709
    R9        2.04684  -0.00002   0.00003  -0.00009  -0.00006   2.04679
   R10        2.54876   0.00004  -0.00022   0.00001  -0.00021   2.54855
   R11        2.05609   0.00002   0.00011  -0.00001   0.00010   2.05618
   R12        2.08009   0.00000  -0.00009   0.00003  -0.00006   2.08004
    A3        2.08244  -0.00017   0.00023  -0.00018   0.00005   2.08249
    A4        2.11356   0.00002  -0.00023   0.00018  -0.00005   2.11351
    A5        2.14094   0.00002  -0.00006  -0.00018  -0.00024   2.14070
    A6        2.12327  -0.00001   0.00009  -0.00004   0.00005   2.12332
    A7        2.06110  -0.00013  -0.00001  -0.00008  -0.00009   2.06101
    A8        2.06916  -0.00002   0.00048   0.00045   0.00093   2.07009
    A9        2.16890   0.00007  -0.00018   0.00019   0.00001   2.16891
   A10        2.15489   0.00006   0.00013   0.00051   0.00064   2.15553
   A11        1.96160  -0.00001  -0.00041  -0.00006  -0.00047   1.96113
   A12        1.93920   0.00010   0.00018   0.00052   0.00070   1.93990
    D4       -3.06404  -0.00012  -0.00050  -0.00145  -0.00195  -3.06598
    D5        3.05980   0.00023   0.00057   0.00127   0.00185   3.06165
    D6        3.02472   0.00028   0.00047  -0.00025   0.00022   3.02494
    D7        3.01050   0.00035  -0.00005   0.00072   0.00067   3.01117
    D8        3.12606   0.00009   0.00022  -0.00098  -0.00076   3.12529
    D9       -2.95691   0.00023  -0.00031  -0.00104  -0.00135  -2.95827
   D10        3.04817   0.00025   0.00056   0.00086   0.00142   3.04959
   D11        2.62507  -0.00004  -0.00248  -0.00195  -0.00442   2.62065
   D12        2.11688  -0.00006  -0.00027   0.00004  -0.00023   2.11666
         Item               Value     Threshold  Converged?
 Maximum Force            0.000349     0.000450     YES
 RMS     Force            0.000125     0.000300     YES
 Maximum Displacement     0.004422     0.001800     NO 
 RMS     Displacement     0.001063     0.001200     YES
 Predicted change in Energy=-5.746258D-07
 GradGradGradGradGradGradGradGradGradGradGradGradGradGradGradGradGradGrad

 ---------------------------------------------------------------------------------------------------
                            Z-MATRIX (ANGSTROMS AND DEGREES)
   CD    Cent   Atom    N1       Length/X        N2       Alpha/Y        N3        Beta/Z          J
 ---------------------------------------------------------------------------------------------------
      1      1  C 
      2      2  C        1   1.335708(     1)
      3      3  C        1   1.454977(     2)      2  119.318(    12)
      4      4  H        1   1.083012(     3)      2  121.095(    13)      3 -175.668(    22)      0
      5      5  H        2   1.081902(     4)      1  122.653(    14)      3  175.419(    23)      0
      6      6  H        3   1.080368(     5)      1  121.657(    15)      2  173.316(    24)      0
      7      7  C        3   1.341675(     6)      1  118.087(    16)      6  172.527(    25)      0
      8      8  C        2   1.501324(     7)      1  118.607(    17)      5  179.066(    26)      0
      9      9  H        7   1.083112(     8)      3  124.270(    18)      1 -169.496(    27)      0
     10     10  O        7   1.348632(     9)      3  123.503(    19)      9  174.729(    28)      0
     11     11  H        8   1.088085(    10)      2  112.364(    20)      1  150.152(    29)      0
     12     12  H        8   1.100707(    11)      2  111.148(    21)     11  121.275(    30)      0
 ---------------------------------------------------------------------------------------------------
                         Z-Matrix orientation:                         
 ---------------------------------------------------------------------
 Center     Atomic      Atomic             Coordinates (Angstroms)
 Number     Number       Type             X           Y           Z
 ---------------------------------------------------------------------
      1          6           0        0.000000    0.000000    0.000000
      2          6           0        0.000000    0.000000    1.335708
      3          6           0        1.268618    0.000000   -0.712437
      4          1           0       -0.924745    0.070053   -0.559333
      5          1           0       -0.908001    0.072746    1.919449
      6          1           0        1.315777   -0.107034   -1.786455
      7          6           0        2.381376    0.289493   -0.021021
      8          6           0        1.311943   -0.126660    2.054551
      9          1           0        3.347923    0.477969   -0.472016
     10          8           0        2.399936    0.479623    1.314012
     11          1           0        1.305906    0.377056    3.019001
     12          1           0        1.572535   -1.182846    2.222239
 ---------------------------------------------------------------------
                    Distance matrix (angstroms):
                    1          2          3          4          5
     1  C    0.000000
     2  C    1.335708   0.000000
     3  C    1.454977   2.409209   0.000000
     4  H    1.083012   2.109797   2.199816   0.000000
     5  H    2.124628   1.081902   3.416107   2.478841   0.000000
     6  H    2.221294   3.389783   1.080368   2.560689   4.325649
     7  C    2.398999   2.755988   1.341675   3.356839   3.825233
     8  C    2.440987   1.501324   2.770225   3.445848   2.232973
     9  H    3.414651   3.834698   2.147036   4.292984   4.898592
    10  O    2.777834   2.447489   2.369898   3.838057   3.387411
    11  H    3.310880   2.163570   3.750625   4.227828   2.490583
    12  H    2.968222   2.158224   3.178650   3.942501   2.796651
                    6          7          8          9         10
     6  H    0.000000
     7  C    2.099879   0.000000
     8  C    3.841059   2.371681   0.000000
     9  H    2.489899   1.083112   3.300656   0.000000
    10  O    3.336535   1.348632   1.449036   2.022023   0.000000
    11  H    4.829788   3.225839   1.088085   4.045641   2.028400
    12  H    4.158477   2.802539   1.100707   3.628955   2.067189
                   11         12
    11  H    0.000000
    12  H    1.771782   0.000000
 Symmetry turned off by external request.
 Stoichiometry    C5H6O
 Framework group  C1[X(C5H6O)]
 Deg. of freedom    30
 Full point group                 C1      NOp   1
 Rotational constants (GHZ):           5.5723964           5.3735556           2.8479463
 Standard basis: def2TZVP (5D, 7F)
 The following finite field(s) will be applied:
 An electric field of              0.0021 -0.0014 -0.0043
   222 basis functions,   354 primitive gaussians,   252 cartesian basis functions
    22 alpha electrons       22 beta electrons
       nuclear repulsion energy       223.4950476929 Hartrees.
 NAtoms=   12 NActive=   12 NUniq=   12 SFac= 1.00D+00 NAtFMM=   60 NAOKFM=F Big=F
 Integral buffers will be    131072 words long.
 Raffenetti 2 integral format.
 Two-electron integral symmetry is turned off.
 One-electron integrals computed using PRISM.
   1 Symmetry operations used in ECPInt.
 ECPInt:  NShTT=    4095 NPrTT=   12396 LenC2=    4075 LenP2D=   10419.
 LDataN:  DoStor=T MaxTD1= 6 Len=  172
 NBasis=   222 RedAO= T EigKep=  9.55D-05  NBF=   222
 NBsUse=   222 1.00D-06 EigRej= -1.00D+00 NBFU=   222
 The nuclear repulsion energy is now       223.4449953995 hartrees.
 Initial guess from the checkpoint file:  "checkpoint.chk"
 B after Tr=     0.000158   -0.000166    0.000376
         Rot=    1.000000    0.000301    0.000077    0.000235 Ang=   0.04 deg.
 Keep R1 ints in memory in canonical form, NReq=319363885.
 Requested convergence on RMS density matrix=1.00D-08 within 128 cycles.
 Requested convergence on MAX density matrix=1.00D-06.
 Requested convergence on             energy=1.00D-06.
 No special actions if energy rises.
 SCF Done:  E(RB3LYP) =  -269.423616613     A.U. after    8 cycles
            NFock=  8  Conv=0.54D-08     -V/T= 2.0050
   1 Symmetry operations used in ECPInt.
 ECPInt:  NShTT=    4095 NPrTT=   12396 LenC2=    4075 LenP2D=   10419.
 LDataN:  DoStor=T MaxTD1= 7 Len=  274
 Calling FoFJK, ICntrl=      2127 FMM=F ISym2X=0 I1Cent= 0 IOpClX= 0 NMat=1 NMatS=1 NMatT=0.
 -------------------------------------------------------------------
 Center     Atomic                   Forces (Hartrees/Bohr)
 Number     Number              X              Y              Z
 -------------------------------------------------------------------
      1        6          -0.000406975    0.000167029    0.000006359
      2        6           0.000404593    0.000243903    0.000003034
      3        6           0.000036673   -0.000282523    0.000024195
      4        1           0.000003363   -0.000027599    0.000001798
      5        1          -0.000001892   -0.000051433    0.000015001
      6        1           0.000005720   -0.000023160    0.000009097
      7        6           0.000013106   -0.000009267   -0.000123402
      8        6           0.000037205    0.000077104   -0.000031157
      9        1           0.000004919   -0.000005523   -0.000002022
     10        8          -0.000050234   -0.000040460    0.000042458
     11        1          -0.000031811   -0.000039006    0.000041300
     12        1          -0.000014667   -0.000009065    0.000013339
 -------------------------------------------------------------------
 Cartesian Forces:  Max     0.000406975 RMS     0.000122172
 -----------------------------------------------------------------------------------------------
                       Internal Coordinate Forces (Hartree/Bohr or radian)
  Cent   Atom   N1       Length/X         N2         Alpha/Y        N3         Beta/Z          J
 -----------------------------------------------------------------------------------------------
      1  C 
      2  C        1   0.000042(     1)
      3  C        1   0.000033(     2)      2   0.000097(    12)
      4  H        1  -0.000006(     3)      2   0.000003(    13)      3  -0.000048(    22)     0
      5  H        2   0.000006(     4)      1   0.000028(    14)      3   0.000155(    23)     0
      6  H        3  -0.000006(     5)      1   0.000009(    15)      2   0.000125(    24)     0
      7  C        3  -0.000081(     6)      1   0.000007(    16)      6   0.000167(    25)     0
      8  C        2   0.000001(     7)      1   0.000135(    17)      5   0.000067(    26)     0
      9  H        7   0.000004(     8)      3  -0.000001(    18)      1   0.000068(    27)     0
     10  O        7   0.000036(     9)      3  -0.000147(    19)      9   0.000078(    28)     0
     11  H        8   0.000019(    10)      2  -0.000026(    20)      1   0.000080(    29)     0
     12  H        8   0.000007(    11)      2  -0.000018(    21)     11  -0.000036(    30)     0
 -----------------------------------------------------------------------------------------------
 Internal  Forces:  Max     0.000166854 RMS     0.000071896

 GradGradGradGradGradGradGradGradGradGradGradGradGradGradGradGradGradGrad
 Berny optimization.
 Search for a local minimum.
 Step number   5 out of a maximum of   40
 All quantities printed in internal units (Hartrees-Bohrs-Radians)
 Update second derivatives using D2CorN and points    1    2    3    4    5

 DE= -6.92D-07 DEPred=-5.75D-07 R= 1.20D+00
 Trust test= 1.20D+00 RLast= 5.82D-03 DXMaxT set to 1.00D-01
 ITU=  0  1  1  1  0
     Eigenvalues ---    0.02194   0.04045   0.04803   0.06009   0.07145
     Eigenvalues ---    0.12611   0.16114   0.18093   0.19941   0.21664
     Eigenvalues ---    0.27338   0.30793   0.32725   0.33523   0.34614
     Eigenvalues ---    0.34972   0.35615   0.35635   0.35766   0.35984
     Eigenvalues ---    0.39020   0.40570   0.52059   0.53317   0.55787
     Eigenvalues ---    0.56872   0.58878   1.96647   4.31463  22.79230
 RFO step:  Lambda=-2.47570724D-07 EMin= 2.19420651D-02
 Quartic linear search produced a step of  0.14641.
 Variable       Old X    -DE/DX   Delta X   Delta X   Delta X     New X
                                 (Linear)    (Quad)   (Total)
    R2        2.52412   0.00004  -0.00002   0.00003   0.00000   2.52413
    R3        2.74951   0.00003  -0.00001   0.00009   0.00008   2.74959
    R4        2.04660  -0.00001   0.00000  -0.00002  -0.00002   2.04658
    R5        2.04450   0.00001   0.00000   0.00002   0.00002   2.04452
    R6        2.04160  -0.00001  -0.00000  -0.00001  -0.00002   2.04158
    R7        2.53540  -0.00008  -0.00000  -0.00010  -0.00010   2.53529
    R8        2.83709   0.00000  -0.00001  -0.00007  -0.00008   2.83701
    R9        2.04679   0.00000  -0.00001   0.00002   0.00001   2.04680
   R10        2.54855   0.00004  -0.00003   0.00017   0.00014   2.54869
   R11        2.05618   0.00002   0.00001   0.00005   0.00007   2.05625
   R12        2.08004   0.00001  -0.00001   0.00003   0.00002   2.08005
    A3        2.08249   0.00010   0.00001   0.00008   0.00009   2.08258
    A4        2.11351   0.00000  -0.00001  -0.00003  -0.00004   2.11347
    A5        2.14070   0.00003  -0.00004   0.00006   0.00002   2.14072
    A6        2.12332   0.00001   0.00001   0.00001   0.00002   2.12334
    A7        2.06101   0.00001  -0.00001   0.00011   0.00009   2.06110
    A8        2.07009   0.00013   0.00014   0.00001   0.00014   2.07023
    A9        2.16891  -0.00000   0.00000   0.00008   0.00008   2.16900
   A10        2.15553  -0.00015   0.00009  -0.00024  -0.00014   2.15538
   A11        1.96113  -0.00003  -0.00007  -0.00002  -0.00009   1.96104
   A12        1.93990  -0.00002   0.00010  -0.00030  -0.00020   1.93970
    D4       -3.06598  -0.00005  -0.00028  -0.00067  -0.00095  -3.06694
    D5        3.06165   0.00016   0.00027   0.00090   0.00117   3.06282
    D6        3.02494   0.00012   0.00003  -0.00039  -0.00036   3.02458
    D7        3.01117   0.00017   0.00010   0.00057   0.00067   3.01184
    D8        3.12529   0.00007  -0.00011  -0.00060  -0.00071   3.12458
    D9       -2.95827   0.00007  -0.00020  -0.00063  -0.00083  -2.95909
   D10        3.04959   0.00008   0.00021   0.00009   0.00030   3.04989
   D11        2.62065   0.00008  -0.00065   0.00006  -0.00059   2.62006
   D12        2.11666  -0.00004  -0.00003  -0.00043  -0.00047   2.11619
         Item               Value     Threshold  Converged?
 Maximum Force            0.000167     0.000450     YES
 RMS     Force            0.000072     0.000300     YES
 Maximum Displacement     0.001170     0.001800     YES
 RMS     Displacement     0.000403     0.001200     YES
 Predicted change in Energy=-1.238196D-07
 Optimization completed.
    -- Stationary point found.
                       ----------------------------
                       !   Optimized Parameters   !
                       ! (Angstroms and Degrees)  !
 ----------------------                            ----------------------
 !      Name          Value   Derivative information (Atomic Units)     !
 ------------------------------------------------------------------------
 !       R2          1.3357   -DE/DX =    0.0                           !
 !       R3          1.455    -DE/DX =    0.0                           !
 !       R4          1.083    -DE/DX =    0.0                           !
 !       R5          1.0819   -DE/DX =    0.0                           !
 !       R6          1.0804   -DE/DX =    0.0                           !
 !       R7          1.3417   -DE/DX =   -0.0001                        !
 !       R8          1.5013   -DE/DX =    0.0                           !
 !       R9          1.0831   -DE/DX =    0.0                           !
 !       R10         1.3486   -DE/DX =    0.0                           !
 !       R11         1.0881   -DE/DX =    0.0                           !
 !       R12         1.1007   -DE/DX =    0.0                           !
 !       A3        119.3179   -DE/DX =    0.0001                        !
 !       A4        121.0952   -DE/DX =    0.0                           !
 !       A5        122.6531   -DE/DX =    0.0                           !
 !       A6        121.6573   -DE/DX =    0.0                           !
 !       A7        118.087    -DE/DX =    0.0                           !
 !       A8        118.6075   -DE/DX =    0.0001                        !
 !       A9        124.2696   -DE/DX =    0.0                           !
 !       A10       123.5026   -DE/DX =   -0.0001                        !
 !       A11       112.3645   -DE/DX =    0.0                           !
 !       A12       111.1483   -DE/DX =    0.0                           !
 !       D4       -175.6679   -DE/DX =    0.0                           !
 !       D5        175.4194   -DE/DX =    0.0002                        !
 !       D6        173.3162   -DE/DX =    0.0001                        !
 !       D7        172.5273   -DE/DX =    0.0002                        !
 !       D8        179.0661   -DE/DX =    0.0001                        !
 !       D9       -169.4961   -DE/DX =    0.0001                        !
 !       D10       174.7286   -DE/DX =    0.0001                        !
 !       D11       150.1522   -DE/DX =    0.0001                        !
 !       D12       121.2754   -DE/DX =    0.0                           !
 ------------------------------------------------------------------------
 GradGradGradGradGradGradGradGradGradGradGradGradGradGradGradGradGradGrad

 ---------------------------------------------------------------------------------------------------
                            Z-MATRIX (ANGSTROMS AND DEGREES)
   CD    Cent   Atom    N1       Length/X        N2       Alpha/Y        N3        Beta/Z          J
 ---------------------------------------------------------------------------------------------------
      1      1  C 
      2      2  C        1   1.335708(     1)
      3      3  C        1   1.454977(     2)      2  119.318(    12)
      4      4  H        1   1.083012(     3)      2  121.095(    13)      3 -175.668(    22)      0
      5      5  H        2   1.081902(     4)      1  122.653(    14)      3  175.419(    23)      0
      6      6  H        3   1.080368(     5)      1  121.657(    15)      2  173.316(    24)      0
      7      7  C        3   1.341675(     6)      1  118.087(    16)      6  172.527(    25)      0
      8      8  C        2   1.501324(     7)      1  118.607(    17)      5  179.066(    26)      0
      9      9  H        7   1.083112(     8)      3  124.270(    18)      1 -169.496(    27)      0
     10     10  O        7   1.348632(     9)      3  123.503(    19)      9  174.729(    28)      0
     11     11  H        8   1.088085(    10)      2  112.364(    20)      1  150.152(    29)      0
     12     12  H        8   1.100707(    11)      2  111.148(    21)     11  121.275(    30)      0
 ---------------------------------------------------------------------------------------------------
                         Z-Matrix orientation:                         
 ---------------------------------------------------------------------
 Center     Atomic      Atomic             Coordinates (Angstroms)
 Number     Number       Type             X           Y           Z
 ---------------------------------------------------------------------
      1          6           0        0.000000    0.000000    0.000000
      2          6           0        0.000000    0.000000    1.335708
      3          6           0        1.268618    0.000000   -0.712437
      4          1           0       -0.924745    0.070053   -0.559333
      5          1           0       -0.908001    0.072746    1.919449
      6          1           0        1.315777   -0.107034   -1.786455
      7          6           0        2.381376    0.289493   -0.021021
      8          6           0        1.311943   -0.126660    2.054551
      9          1           0        3.347923    0.477969   -0.472016
     10          8           0        2.399936    0.479623    1.314012
     11          1           0        1.305906    0.377056    3.019001
     12          1           0        1.572535   -1.182846    2.222239
 ---------------------------------------------------------------------
                    Distance matrix (angstroms):
                    1          2          3          4          5
     1  C    0.000000
     2  C    1.335708   0.000000
     3  C    1.454977   2.409209   0.000000
     4  H    1.083012   2.109797   2.199816   0.000000
     5  H    2.124628   1.081902   3.416107   2.478841   0.000000
     6  H    2.221294   3.389783   1.080368   2.560689   4.325649
     7  C    2.398999   2.755988   1.341675   3.356839   3.825233
     8  C    2.440987   1.501324   2.770225   3.445848   2.232973
     9  H    3.414651   3.834698   2.147036   4.292984   4.898592
    10  O    2.777834   2.447489   2.369898   3.838057   3.387411
    11  H    3.310880   2.163570   3.750625   4.227828   2.490583
    12  H    2.968222   2.158224   3.178650   3.942501   2.796651
                    6          7          8          9         10
     6  H    0.000000
     7  C    2.099879   0.000000
     8  C    3.841059   2.371681   0.000000
     9  H    2.489899   1.083112   3.300656   0.000000
    10  O    3.336535   1.348632   1.449036   2.022023   0.000000
    11  H    4.829788   3.225839   1.088085   4.045641   2.028400
    12  H    4.158477   2.802539   1.100707   3.628955   2.067189
                   11         12
    11  H    0.000000
    12  H    1.771782   0.000000
 Symmetry turned off by external request.
 Stoichiometry    C5H6O
 Framework group  C1[X(C5H6O)]
 Deg. of freedom    30
 Full point group                 C1      NOp   1
 Rotational constants (GHZ):           5.5723964           5.3735556           2.8479463
 1\1\GINC-BHC0029\FOpt\RB3LYP\def2TZVP\C5H6O1\DHANAWAY\10-Jun-2022\1\\#
  Opt=(Z-matrix, MaxStep=10) B3LYP/Def2TZVP geom=allcheckpoint guess=re
 ad Field=read NoSymm freq=noraman pop=none\\int_zmat_initalOpt\\0,1\C\
 C,1,R2\C,1,R3,2,A3\H,1,R4,2,A4,3,D4,0\H,2,R5,1,A5,3,D5,0\H,3,R6,1,A6,2
 ,D6,0\C,3,R7,1,A7,6,D7,0\C,2,R8,1,A8,5,D8,0\H,7,R9,3,A9,1,D9,0\O,7,R10
 ,3,A10,9,D10,0\H,8,R11,2,A11,1,D11,0\H,8,R12,2,A12,11,D12,0\\R2=1.3357
 0795\R3=1.45497697\R4=1.08301218\R5=1.08190209\R6=1.08036845\R7=1.3416
 747\R8=1.50132388\R9=1.0831124\R10=1.34863212\R11=1.08808459\R12=1.100
 70728\A3=119.31791663\A4=121.09515283\A5=122.65307249\A6=121.657272\A7
 =118.08700657\A8=118.60747351\A9=124.26962066\A10=123.50260402\A11=112
 .36446829\A12=111.14827008\D4=-175.66787705\D5=175.41942278\D6=173.316
 17806\D7=172.52727364\D8=179.06613043\D9=-169.49610349\D10=174.7285857
 1\D11=150.15218824\D12=121.27542077\\Version=ES64L-G16RevA.03\HF=-269.
 4236166\RMSD=5.421e-09\RMSF=1.222e-04\Dipole=-0.3792934,-0.0954814,0.3
 1875\PG=C01 [X(C5H6O1)]\\@


 EDUCATION IS NOT TRAINING BUT RATHER THE PROCESS THAT EQUIPS YOU TO
 ENTERTAIN YOURSELF, A FRIEND, OR AN IDEA.  -- WALLACE STERLING
 Job cpu time:       0 days  0 hours 17 minutes 50.6 seconds.
 Elapsed time:       0 days  0 hours  1 minutes 51.8 seconds.
 File lengths (MBytes):  RWF=     24 Int=      0 D2E=      0 Chk=     32 Scr=      1
 Normal termination of Gaussian 16 at Fri Jun 10 11:19:56 2022.
 Link1:  Proceeding to internal job step number  2.
 --------------------------------------------------------------------
 #N Geom=AllCheck Guess=TCheck SCRF=Check GenChk RB3LYP/def2TZVP Freq
 --------------------------------------------------------------------
 1/8=10,10=4,29=7,30=1,38=1,40=1/1,3;
 2/12=2,15=1,40=1/2;
 3/5=44,7=101,11=2,14=-4,25=1,30=1,70=2,71=2,74=-5,116=1,140=1/1,2,3;
 4/5=101/1;
 5/5=2,38=6,98=1/2;
 8/6=4,10=90,11=11/1;
[...]
    R9        2.04679   0.00000   0.00000  -0.00001  -0.00001   2.04677
   R10        2.54855   0.00004   0.00000   0.00031   0.00031   2.54885
   R11        2.05618   0.00002   0.00000   0.00008   0.00008   2.05627
   R12        2.08004   0.00001   0.00000   0.00009   0.00009   2.08012
    A3        2.08249   0.00010   0.00000   0.00000   0.00000   2.08249
    A4        2.11351   0.00000   0.00000   0.00004   0.00004   2.11354
    A5        2.14070   0.00003   0.00000   0.00008   0.00008   2.14078
    A6        2.12332   0.00001   0.00000  -0.00005  -0.00005   2.12327
    A7        2.06101   0.00001   0.00000   0.00020   0.00020   2.06121
    A8        2.07009   0.00013   0.00000   0.00019   0.00019   2.07028
    A9        2.16891  -0.00000   0.00000   0.00020   0.00020   2.16911
   A10        2.15553  -0.00015   0.00000  -0.00017  -0.00017   2.15535
   A11        1.96113  -0.00003   0.00000  -0.00007  -0.00007   1.96106
   A12        1.93990  -0.00002   0.00000  -0.00036  -0.00036   1.93955
    D4       -3.06598  -0.00005   0.00000  -0.00143  -0.00143  -3.06741
    D5        3.06165   0.00016   0.00000   0.00222   0.00222   3.06387
    D6        3.02494   0.00012   0.00000  -0.00087  -0.00087   3.02407
    D7        3.01117   0.00017   0.00000   0.00161   0.00161   3.01277
    D8        3.12529   0.00007   0.00000  -0.00197  -0.00197   3.12332
    D9       -2.95827   0.00007   0.00000  -0.00121  -0.00121  -2.95947
   D10        3.04959   0.00008   0.00000   0.00030   0.00030   3.04989
   D11        2.62065   0.00008   0.00000  -0.00032  -0.00032   2.62033
   D12        2.11666  -0.00004   0.00000  -0.00090  -0.00090   2.11576
         Item               Value     Threshold  Converged?
 Maximum Force            0.000167     0.000450     YES
 RMS     Force            0.000072     0.000300     YES
 Maximum Displacement     0.002222     0.001800     NO 
 RMS     Displacement     0.000755     0.001200     YES
 Predicted change in Energy=-2.399243D-07
                       ----------------------------
                       ! Non-Optimized Parameters !
                       ! (Angstroms and Degrees)  !
 ----------------------                            ----------------------
 !      Name          Value   Derivative information (Atomic Units)     !
 ------------------------------------------------------------------------
 !       R2          1.3357   -DE/DX =    0.0                           !
 !       R3          1.455    -DE/DX =    0.0                           !
 !       R4          1.083    -DE/DX =    0.0                           !
 !       R5          1.0819   -DE/DX =    0.0                           !
 !       R6          1.0804   -DE/DX =    0.0                           !
 !       R7          1.3416   -DE/DX =   -0.0001                        !
 !       R8          1.5013   -DE/DX =    0.0                           !
 !       R9          1.0831   -DE/DX =    0.0                           !
 !       R10         1.3488   -DE/DX =    0.0                           !
 !       R11         1.0881   -DE/DX =    0.0                           !
 !       R12         1.1008   -DE/DX =    0.0                           !
 !       A3        119.318    -DE/DX =    0.0001                        !
 !       A4        121.0972   -DE/DX =    0.0                           !
 !       A5        122.6579   -DE/DX =    0.0                           !
 !       A6        121.6545   -DE/DX =    0.0                           !
 !       A7        118.0984   -DE/DX =    0.0                           !
 !       A8        118.6181   -DE/DX =    0.0001                        !
 !       A9        124.2811   -DE/DX =    0.0                           !
 !       A10       123.4926   -DE/DX =   -0.0001                        !
 !       A11       112.3602   -DE/DX =    0.0                           !
 !       A12       111.1278   -DE/DX =    0.0                           !
 !       D4       -175.7497   -DE/DX =    0.0                           !
 !       D5        175.5467   -DE/DX =    0.0002                        !
 !       D6        173.2662   -DE/DX =    0.0001                        !
 !       D7        172.6193   -DE/DX =    0.0002                        !
 !       D8        178.953    -DE/DX =    0.0001                        !
 !       D9       -169.5654   -DE/DX =    0.0001                        !
 !       D10       174.7458   -DE/DX =    0.0001                        !
 !       D11       150.1339   -DE/DX =    0.0001                        !
 !       D12       121.224    -DE/DX =    0.0                           !
 ------------------------------------------------------------------------
 GradGradGradGradGradGradGradGradGradGradGradGradGradGradGradGradGradGrad


 ----------------------------------------------------------------------

 Electric dipole moment (input orientation):
 (Debye = 10**-18 statcoulomb cm , SI units = C m)
                  (au)            (Debye)         (10**-30 SI)
   Tot        0.504557D+00      0.128246D+01      0.427781D+01
   x         -0.379290D+00     -0.964059D+00     -0.321576D+01
   y         -0.954797D-01     -0.242685D+00     -0.809511D+00
   z          0.318748D+00      0.810176D+00      0.270246D+01

 Dipole polarizability, Alpha (input orientation).
 (esu units = cm**3 , SI units = C**2 m**2 J**-1)
 Alpha(0;0):
               (au)            (10**-24 esu)      (10**-40 SI)
   iso        0.594913D+02      0.881570D+01      0.980879D+01
   aniso      0.283500D+02      0.420103D+01      0.467428D+01
   xx         0.666051D+02      0.986986D+01      0.109817D+02
   yx         0.234774D+01      0.347899D+00      0.387090D+00
   yy         0.410877D+02      0.608858D+01      0.677445D+01
   zx        -0.180633D+01     -0.267671D+00     -0.297824D+00
   zy        -0.869144D+00     -0.128794D+00     -0.143302D+00
   zz         0.707809D+02      0.104887D+02      0.116702D+02

 ----------------------------------------------------------------------

 Dipole orientation:
     6          0.00000000          0.00000000          0.00000000
     6          1.89745712          0.47765185          1.59458400
     6          0.55504135         -0.46376680         -2.65266727
     1         -1.94843188          0.08180447          0.62086884
     1          1.59307481          0.97044077          3.55531988
     1         -0.89478147         -1.05343321         -3.96356005
     6          2.86411920          0.13522038         -3.51151274
     6          4.56010756          0.28447696          0.63434385
     1          3.38636257          0.16306224         -5.49035553
     8          4.75222290          0.96098224         -2.01209111
     1          5.83972655          1.56135496          1.61416105
     1          5.29422526         -1.65058920          0.84203830

 Electric dipole moment (dipole orientation):
 (Debye = 10**-18 statcoulomb cm , SI units = C m)
                  (au)            (Debye)         (10**-30 SI)
   Tot        0.504557D+00      0.128246D+01      0.427781D+01
   x          0.000000D+00      0.000000D+00      0.000000D+00
   y          0.000000D+00      0.000000D+00      0.000000D+00
   z          0.504557D+00      0.128246D+01      0.427781D+01

 Dipole polarizability, Alpha (dipole orientation).
 (esu units = cm**3 , SI units = C**2 m**2 J**-1)
 Alpha(0;0):
               (au)            (10**-24 esu)      (10**-40 SI)
   iso        0.594913D+02      0.881570D+01      0.980879D+01
   aniso      0.283500D+02      0.420103D+01      0.467428D+01
   xx         0.668420D+02      0.990497D+01      0.110208D+02
   yx         0.355888D+01      0.527371D+00      0.586780D+00
   yy         0.416825D+02      0.617671D+01      0.687252D+01
   zx         0.187186D+01      0.277382D+00      0.308629D+00
   zy         0.338515D+01      0.501627D+00      0.558136D+00
   zz         0.699493D+02      0.103654D+02      0.115331D+02

 ----------------------------------------------------------------------
 1\1\GINC-BHC0029\Freq\RB3LYP\def2TZVP\C5H6O1\DHANAWAY\10-Jun-2022\1\\#
 N Geom=AllCheck Guess=TCheck SCRF=Check GenChk RB3LYP/def2TZVP Freq\\i
 nt_zmat_initalOpt\\0,1\C\C,1,R2\C,1,R3,2,A3\H,1,R4,2,A4,3,D4,0\H,2,R5,
 1,A5,3,D5,0\H,3,R6,1,A6,2,D6,0\C,3,R7,1,A7,6,D7,0\C,2,R8,1,A8,5,D8,0\H
 ,7,R9,3,A9,1,D9,0\O,7,R10,3,A10,9,D10,0\H,8,R11,2,A11,1,D11,0\H,8,R12,
 2,A12,11,D12,0\\R2=1.33570795\R3=1.45497697\R4=1.08301218\R5=1.0819020
 9\R6=1.08036845\R7=1.3416747\R8=1.50132388\R9=1.0831124\R10=1.34863212
 \R11=1.08808459\R12=1.10070728\A3=119.31791663\A4=121.09515283\A5=122.
 65307249\A6=121.657272\A7=118.08700657\A8=118.60747351\A9=124.26962066
 \A10=123.50260402\A11=112.36446829\A12=111.14827008\D4=-175.66787705\D
 5=175.41942278\D6=173.31617806\D7=172.52727364\D8=179.06613043\D9=-169
 .49610349\D10=174.72858571\D11=150.15218824\D12=121.27542077\\Version=
 ES64L-G16RevA.03\HF=-269.4236166\RMSD=4.067e-09\RMSF=1.222e-04\ZeroPoi
 nt=0.0982232\Thermal=0.1032011\Dipole=-0.3792901,-0.0954797,0.3187476\
 DipoleDeriv=0.2883724,0.0109183,-0.1476015,-0.033983,-0.1317585,-0.029
 8947,-0.0526845,-0.0453902,0.0718298,-0.0801384,-0.0334846,0.0243354,0
 .0033311,-0.2315982,-0.009031,0.0790799,0.0473043,-0.1479498,-0.368986
 2,-0.0785758,-0.0491006,-0.1174656,-0.2841789,-0.012181,-0.1728722,0.0
 261422,-0.0415958,-0.0658714,0.0064822,-0.0701925,0.0254535,0.1423501,
 0.0102695,-0.0685296,0.0057162,0.0148071,-0.0182017,0.0059906,0.046271
 3,0.0339985,0.151615,-0.0162555,0.0385488,-0.0015187,0.0315055,0.04988
 16,-0.0055655,0.0319444,0.0102441,0.1580697,-0.0077385,0.0310545,-0.02
 55421,-0.1208714,0.3314894,0.1281509,0.1471671,0.2285985,-0.0090685,0.
 1760754,0.4680699,0.1855962,0.8089407,0.2574611,0.0537443,-0.1473323,0
 .0079192,0.5315141,-0.1801908,-0.0309023,-0.1386783,0.5163519,-0.06700
 59,-0.041787,0.0866399,-0.0108777,0.1419274,-0.0135169,0.0705433,0.004
 9611,0.0036781,-0.3994419,-0.1198301,0.1574738,-0.204382,-0.3308767,0.
 0034286,-0.3695137,-0.0263085,-1.0836044,0.0540593,-0.0029676,0.001549
 2,-0.012783,0.0363039,-0.0662672,0.0066903,-0.0266933,-0.0662301,0.018
 3816,0.0769244,-0.0811541,0.0699464,-0.1742994,0.1453021,0.0005155,-0.
 0055887,0.0131384\Polar=66.6051388,2.347741,41.0877486,-1.8063332,-0.8
 691441,70.7809263\PG=C01 [X(C5H6O1)]\NImag=0\\0.62847271,-0.01877905,0
 .12942339,0.06892477,-0.01130279,0.79843554,-0.11303681,0.00390437,0.0
 0054255,0.58984185,0.00039324,-0.05725563,0.00539092,-0.03951086,0.139
 92067,-0.01167720,0.00321891,-0.50448538,-0.07909320,-0.00526146,0.816
 78776,-0.20977051,0.00471840,0.04039359,-0.00071618,0.00452516,0.03704
 292,0.66305275,0.00181741,-0.05635721,-0.00012295,-0.00114074,0.010027
 58,0.00208770,0.08623016,0.12941406,0.06970229,-0.00460788,-0.13945663
 ,0.03536466,-0.00160824,-0.02690283,0.07653796,0.09104374,0.73506788,-
 0.26045647,0.01661527,-0.12272095,0.00383720,0.00010681,0.00084446,-0.
 01816764,0.00131412,-0.01495369,0.27434384,0.01875609,-0.03754523,0.00
 795996,0.00054709,0.00531738,-0.00021789,-0.00203561,0.00167099,0.0016
 8767,-0.01782459,0.02578366,-0.12041934,0.00793888,-0.12964923,-0.0304
 5321,0.00312794,-0.01345753,0.01479047,-0.00097740,0.01136665,0.132014
 01,-0.01032950,0.13662267,0.00436076,0.00060046,-0.00231760,-0.2587889
 4,0.01697056,0.12911132,0.00235091,0.00156802,-0.00009290,0.00086589,-
 0.00070802,0.00039698,0.26910053,-0.00106288,0.00585092,0.00119071,0.0
 2049836,-0.03329277,-0.01249078,0.00194643,0.01097634,0.00059993,-0.00
 048373,-0.00717820,0.00002900,-0.01913401,0.02240274,0.02890472,-0.002
 02877,-0.01255684,0.12542688,-0.01081074,-0.13736000,-0.00189912,-0.00
 008499,-0.00449714,-0.00021400,0.00010754,0.00126025,-0.13752457,0.012
 10486,0.14376556,0.00489626,0.00248658,0.02712264,-0.00550460,0.000334
 59,0.00147989,-0.05663472,-0.00091316,0.01347931,0.00099649,-0.0000688
 7,-0.00092372,0.00015596,-0.00034874,0.00138963,0.05437434,0.00020304,
 -0.00099744,0.00234801,-0.00032063,0.00134372,0.00018226,-0.00206621,-
 0.02774529,-0.02907888,-0.00016860,-0.00048822,-0.00015031,-0.00025737
 ,0.00066659,0.00015122,0.00228555,0.02452012,-0.00263496,-0.00074649,-
 0.00910540,0.00274845,-0.00036385,0.00047455,0.01066969,-0.03184020,-0
 .33727390,0.00037983,0.00014788,0.00060472,-0.00023129,0.00011261,-0.0
 0055587,-0.01236248,0.03439787,0.35756714,-0.05421413,-0.01019087,0.00
 928088,-0.00333169,-0.00241091,-0.01061372,-0.36564644,-0.07560553,-0.
 15325204,-0.00270035,0.00098175,0.00289495,0.00018650,0.00000848,-0.00
 062544,0.00619844,0.00230996,0.00465578,0.80959756,-0.00556055,0.00848
 171,-0.00369501,0.00381737,0.00147194,0.00052947,-0.08491273,-0.075575
 05,-0.04284135,0.00076036,0.00143552,-0.00003404,-0.00056789,-0.001276
 27,-0.00044519,-0.00145150,-0.00300021,-0.00042461,0.16109414,0.175990
 17,-0.00855625,0.00183859,0.02795552,0.00549943,-0.00498789,-0.0100033
 4,-0.13331482,-0.03354399,-0.19580833,0.00482876,-0.00116372,-0.002711
 43,-0.00329744,-0.00222419,-0.00219895,-0.02802729,-0.00631218,-0.0143
 1760,0.03251372,0.05348565,0.61001488,0.00732267,0.00022635,-0.0187247
 7,-0.17246086,0.02041509,-0.04984077,-0.01195801,-0.00677586,-0.010329
 07,0.00114886,0.00053580,0.00288445,-0.01299278,0.00048422,-0.01113605
 ,-0.00133855,-0.00034722,-0.00002350,0.00007172,0.00850923,0.04016363,
 0.41120681,0.00826257,0.00445179,-0.00459642,0.01026482,-0.07483775,0.
 00801655,-0.00752457,-0.00869286,-0.00378624,0.00013852,0.01180077,-0.
 00028355,0.00120652,0.00259103,0.00088159,-0.00042440,-0.00019442,-0.0
 0036309,0.00788854,0.00237587,0.00618769,-0.03674928,0.52496037,-0.040
 15921,0.00693894,-0.02144267,-0.04206504,0.00430355,-0.12475495,0.0028
 9489,0.00122116,0.00687445,0.00111604,0.00123141,-0.00519171,0.0141483
 4,-0.00215653,0.01007797,0.00075099,-0.00059003,0.00091390,0.03516476,
 0.01017929,-0.04272079,0.03705286,0.06439482,0.58542733,-0.00075393,-0
 .00331865,-0.00436910,0.00068107,0.00026849,0.00061661,-0.01734296,-0.
 00382238,0.01271016,-0.00071813,0.00004235,0.00059787,0.00003937,0.000
 57387,0.00008935,0.00041587,0.00144645,-0.00063341,-0.28267429,-0.0508
 6866,0.09958306,0.00134545,0.00056062,-0.00154616,0.29453973,-0.003875
 32,0.00826849,-0.00196483,-0.00041283,-0.00100403,-0.00201981,-0.00170
 721,0.00754710,0.00583607,-0.00083131,0.00018713,0.00073407,-0.0002520
 0,-0.00182487,-0.00001538,0.00080353,-0.00459569,0.00033511,-0.0550739
 0,-0.05003307,0.01310834,0.00234435,0.00408291,-0.00150414,0.05483692,
 0.03368971,-0.00202350,-0.00159957,-0.00175880,0.00004090,0.00012805,-
 0.00027167,-0.01495684,-0.00179985,0.01167936,-0.00076032,0.00009064,0
 .00044663,0.00022647,0.00019680,0.00029288,0.00045198,0.00057376,0.000
 55067,0.09569277,0.01481817,-0.09212322,-0.00250579,-0.00500091,-0.002
 67870,-0.11008594,-0.01783021,0.11403716,0.00324539,0.00351202,0.00059
 198,-0.03491876,-0.01317731,0.01958802,0.01047957,-0.00576948,-0.03163
 007,0.00080807,0.00039675,-0.00026876,-0.00503927,-0.00197652,-0.00485
 528,-0.00393396,-0.00311139,-0.00251695,-0.10142561,-0.02586013,0.0024
 3421,-0.11231586,-0.04808534,0.01042295,0.00441149,0.00449588,0.032467
 65,0.24848974,-0.00163303,-0.00600921,0.00869419,-0.00777930,0.0026126
 8,-0.00384334,0.00340603,0.00865898,-0.02019132,0.00021365,-0.00036109
 ,-0.00020342,0.00064611,0.00207981,-0.00028892,-0.00278942,0.01055367,
 -0.00126713,-0.02691141,-0.05815526,-0.02621260,-0.04667141,-0.0921103
 8,0.01577015,0.00044034,0.00353208,0.00934490,0.10587307,0.13603768,0.
 02191963,0.00055930,-0.01017850,-0.00559646,0.00031295,0.01462396,-0.0
 3178394,-0.02385380,-0.06079174,-0.00063345,0.00074318,0.00133804,0.00
 046120,0.00107878,0.00149231,-0.00329338,-0.00127494,0.00119435,-0.019
 53238,-0.03409113,-0.28464872,0.02199033,0.02543482,-0.09794231,0.0030
 7313,0.00324646,-0.02925824,-0.04025939,-0.00507306,0.49380111,-0.0056
 6665,0.00021015,-0.00143446,0.00240004,-0.01374175,-0.02729478,0.00051
 310,-0.00030441,0.00075071,0.00003250,0.00139814,-0.00131788,0.0009442
 7,0.00025522,0.00060945,0.00018004,-0.00004204,0.00000395,-0.00496754,
 -0.00139747,-0.00111329,-0.04819977,-0.00208920,-0.00846263,-0.0001913
 9,0.00026471,0.00130201,-0.00551566,0.00661472,0.03370048,0.05853797,0
 .00074177,0.00028675,-0.00044992,0.00134908,0.00359315,0.00672385,-0.0
 0045608,-0.00001486,0.00050952,0.00006202,-0.00017021,0.00018760,-0.00
 058272,0.00033858,-0.00054898,0.00006957,-0.00003180,-0.00000354,-0.00
 330514,-0.00020874,0.00207486,0.00159905,-0.11451568,-0.12214261,-0.00
 015393,0.00041641,0.00082789,-0.00305828,0.00697652,0.02082359,0.00339
 852,0.11833964,-0.00253655,-0.00049916,0.00100099,-0.00212626,-0.00609
 536,-0.01262415,-0.00001266,-0.00027674,0.00013597,0.00010367,0.000587
 46,-0.00051244,-0.00008729,0.00059124,0.00084872,-0.00005205,-0.000028
 71,-0.00002774,0.00352589,0.00028606,0.00158001,-0.00110448,-0.1123241
 9,-0.25273014,0.00008843,-0.00035304,-0.00083712,0.00618201,-0.0013749
 0,-0.02108296,-0.00342735,0.11891944,0.27889018,-0.00439929,0.00001498
 ,0.00271046,-0.00800233,0.02582690,-0.01016355,0.00384013,0.00340184,0
 .00171267,0.00000973,-0.00202088,-0.00019582,-0.00118320,-0.00076069,-
 0.00016557,0.00019444,0.00006845,-0.00005511,-0.00109418,-0.00356217,-
 0.01071371,-0.06182969,0.06655120,-0.00931779,0.00024771,-0.00059282,0
 .00015061,-0.00428514,-0.03140935,0.01995424,0.00193310,0.00033613,-0.
 00055338,0.07456872,0.00073671,0.00140168,-0.00345188,0.00878327,0.002
 10307,0.00307453,-0.00212376,0.00009021,0.00243698,0.00009748,-0.00045
 250,-0.00003926,0.00051034,-0.00133392,0.00097776,0.00001627,-0.000031
 04,0.00001543,0.00121490,-0.00150663,-0.00225055,0.05642969,-0.2599116
 5,0.02235397,-0.00000541,-0.00026617,0.00025033,-0.01323928,-0.0138154
 9,0.01209386,0.00543340,-0.01500976,0.00056791,-0.05785360,0.28873219,
 -0.00144441,0.00029003,0.00124140,-0.01028869,0.01586414,-0.00202643,-
 0.00036214,-0.00185266,-0.00039373,-0.00000436,-0.00084463,-0.00011660
 ,-0.00079322,0.00096756,-0.00056890,-0.00001551,-0.00021806,-0.0000248
 3,0.00029483,0.00223267,0.00498197,-0.00842687,0.02143893,-0.05583239,
 -0.00012401,0.00042736,-0.00007896,0.00784363,0.02464544,-0.00854730,0
 .00668380,-0.02692170,0.00535868,0.00663695,-0.03602908,0.05600709\\0.
 00040699,-0.00016702,-0.00000621,-0.00040463,-0.00024390,-0.00000304,-
 0.00003673,0.00028250,-0.00002423,-0.00000337,0.00002760,-0.00000182,0
 .00000199,0.00005142,-0.00001506,-0.00000571,0.00002315,-0.00000910,-0
 .00001311,0.00000926,0.00012326,-0.00003735,-0.00007716,0.00003120,-0.
 00000484,0.00000554,0.00000199,0.00005025,0.00004049,-0.00004230,0.000
 03183,0.00003900,-0.00004134,0.00001468,0.00000910,-0.00001334\\\@


 EXPERIMENTALISTS THINK SILICON IS REALLY FUN TO USE
     ITS PLACE IN NOVEL COMPOUNDS IS CERTAIN TO AMUSE
 THEY SIT ALL DAY IN LABORATORIES MAKING ALL THIS SLUDGE
     "LOADED WITH THE SILICON THEY SAY", TO ME IT LOOKS LIKE FUDGE.
 FOR HAPPY THOUGH THEY BE WITH CRUD, I'D LIKE TO KNOW A LITTLE
      ABOUT THE PI BONDS ON THE EDGE AND SIGMAS IN THE MIDDLE.

 SO LETS DERIVE A WAVEFUNCTION.....6-31G*
     USE AN OPTIMAL GEOMETRY AND SEE WHERE ELECTRONS ARE.
 BUT WHAT OF CORRELATION?  ASKS THE WIRY LITTLE SKEPTIC.
     WE'LL THROW IN PERTURBATION AS AN ELECTRON ANTISEPTIC.
 AND WHEN THE PROGRAM GIVES US ANSWERS IN THEM WE CAN TRUST
     SINCE NOBODY CAN MAKE THE STUFF, WE HAVE NO CHOICE, WE MUST.

 SO THEORY GUYS HAVE GOT IT MADE, IN ROOMS FREE OF POLLUTION.
     INSTEAD OF PROBLEMS WITH THE REFLUX, THEY HAVE ONLY SOLUTIONS.
 AND WHEN THE FEDS ANNOUNCE THE LIST OF CARCINOGENIC TERRORS,
     THE THEORISTS SIT SAFELY AT THEIR TERMINALS FIXING ERRORS.
 IN OTHER WORDS, EXPERIMENTALISTS WILL LIKELY DIE OF CANCER
     FROM WORKING HARD YET FRUITLESSLY...TILL THEORY GIVES THE ANSWER.
          -- THOMAS A. HOLME, 1983
 Job cpu time:       0 days  0 hours 31 minutes  5.3 seconds.
 Elapsed time:       0 days  0 hours  2 minutes 36.4 seconds.
 File lengths (MBytes):  RWF=     54 Int=      0 D2E=      0 Chk=     32 Scr=      1
 Normal termination of Gaussian 16 at Fri Jun 10 11:22:33 2022.
