 Entering Gaussian System, Link 0=g16
 Input=int_initalOptXYZ_aligned_sp.gjf
 Output=int_initalOptXYZ_aligned_sp.out
 Initial command:
 /software/gaussian/g16-a03/l1.exe "/local_scratch/11171638/Gau-7762.inp" -scrdir="/local_scratch/11171638/"
 Entering Link 1 = /software/gaussian/g16-a03/l1.exe PID=      7763.
  
 Copyright (c) 1988,1990,1992,1993,1995,1998,2003,2009,2016,
            Gaussian, Inc.  All Rights Reserved.
  
 This is part of the Gaussian(R) 16 program.  It is based on
 the Gaussian(R) 09 system (copyright 2009, Gaussian, Inc.),
 the Gaussian(R) 03 system (copyright 2003, Gaussian, Inc.),
 the Gaussian(R) 98 system (copyright 1998, Gaussian, Inc.),
 the Gaussian(R) 94 system (copyright 1995, Gaussian, Inc.),
 the Gaussian 92(TM) system (copyright 1992, Gaussian, Inc.),
 the Gaussian 90(TM) system (copyright 1990, Gaussian, Inc.),
 the Gaussian 88(TM) system (copyright 1988, Gaussian, Inc.),
 the Gaussian 86(TM) system (copyright 1986, Carnegie Mellon
 University), and the Gaussian 82(TM) system (copyright 1983,
 Carnegie Mellon University). Gaussian is a federally registered
 trademark of Gaussian, Inc.
  
 This software contains proprietary and confidential information,
 including trade secrets, belonging to Gaussian, Inc.
  
 This software is provided under written license and may be
 used, copied, transmitted, or stored only in accord with that
 written license.
  
 The following legend is applicable only to US Government
 contracts under FAR:
  
                    RESTRICTED RIGHTS LEGEND
  
 Use, reproduction and disclosure by the US Government is
 subject to restrictions as set forth in subparagraphs (a)
 and (c) of the Commercial Computer Software - Restricted
 Rights clause in FAR 52.227-19.
  
 Gaussian, Inc.
 340 Quinnipiac St., Bldg. 40, Wallingford CT 06492
  
  
 ---------------------------------------------------------------
 Warning -- This program may not be used in any manner that
 competes with the business of Gaussian, Inc. or will provide
 assistance to any competitor of Gaussian, Inc.  The licensee
 of this program is prohibited from giving any competitor of
 Gaussian, Inc. access to this program.  By using this program,
 the user acknowledges that Gaussian, Inc. is engaged in the
 business of creating and licensing software in the field of
 computational chemistry and represents and warrants to the
 licensee that it is not a competitor of Gaussian, Inc. and that
 it will not use this program in any manner prohibited above.
 ---------------------------------------------------------------
  

 Cite this work as:
 Gaussian 16, Revision A.03,
 M. J. Frisch, G. W. Trucks, H. B. Schlegel, G. E. Scuseria, 
 M. A. Robb, J. R. Cheeseman, G. Scalmani, V. Barone, 
 G. A. Petersson, H. Nakatsuji, X. Li, M. Caricato, A. V. Marenich, 
 J. Bloino, B. G. Janesko, R. Gomperts, B. Mennucci, H. P. Hratchian, 
 J. V. Ortiz, A. F. Izmaylov, J. L. Sonnenberg, D. Williams-Young, 
 F. Ding, F. Lipparini, F. Egidi, J. Goings, B. Peng, A. Petrone, 
 T. Henderson, D. Ranasinghe, V. G. Zakrzewski, J. Gao, N. Rega, 
 G. Zheng, W. Liang, M. Hada, M. Ehara, K. Toyota, R. Fukuda, 
 J. Hasegawa, M. Ishida, T. Nakajima, Y. Honda, O. Kitao, H. Nakai, 
 T. Vreven, K. Throssell, J. A. Montgomery, Jr., J. E. Peralta, 
 F. Ogliaro, M. J. Bearpark, J. J. Heyd, E. N. Brothers, K. N. Kudin, 
 V. N. Staroverov, T. A. Keith, R. Kobayashi, J. Normand, 
 K. Raghavachari, A. P. Rendell, J. C. Burant, S. S. Iyengar, 
 J. Tomasi, M. Cossi, J. M. Millam, M. Klene, C. Adamo, R. Cammi, 
 J. W. Ochterski, R. L. Martin, K. Morokuma, O. Farkas, 
 J. B. Foresman, and D. J. Fox, Gaussian, Inc., Wallingford CT, 2016.
 
 ******************************************
 Gaussian 16:  ES64L-G16RevA.03 25-Dec-2016
                10-Jun-2022 
 ******************************************
 %nprocshared=12
 Will use up to   12 processors via shared memory.
 %chk=checkpoint.chk
 %mem=12GB
 --------------------------
 # sp B3LYP/Def2TZVP NoSymm
 --------------------------
 1/38=1,172=1/1;
 2/12=2,15=1,17=6,18=5,40=1/2;
 3/5=44,7=101,11=2,25=1,30=1,74=-5/1,2,3;
 4//1;
 5/5=2,38=5/2;
 6/7=2,8=2,9=2,10=2,28=1/1;
 99/5=1,9=1/99;
 ----------------------------------
 int_initalOptXYZ_aligned_AlignedSp
 ----------------------------------
 Symbolic Z-matrix:
 Charge =  0 Multiplicity = 1
 7                     0.47742   0.2098    0.09633 
 6                    -0.89345   0.39721  -0.54227 
 8                     0.42695   0.49147   1.42488 
 6                    -1.97256  -0.41826   0.13816 
 1                    -1.90454  -0.27012   1.21482 
 1                    -1.89829  -1.48332  -0.08518 
 1                    -2.9495   -0.07697  -0.20817 
 1                    -1.09593   1.46001  -0.42298 
 1                    -0.81136   0.16801  -1.60818 
 6                     1.43254   1.14941  -0.57251 
 1                     2.39859   1.0134   -0.09522 
 1                     1.07518   2.15645  -0.37929 
 1                     1.4959    0.95623  -1.64562 
 6                     0.96309  -1.19433  -0.10384 
 1                     0.29366  -1.85306   0.4382 
 1                     1.95223  -1.24962   0.34087 
 1                     0.99726  -1.4563   -1.16343 
 
                          Input orientation:                          
 ---------------------------------------------------------------------
 Center     Atomic      Atomic             Coordinates (Angstroms)
 Number     Number       Type             X           Y           Z
 ---------------------------------------------------------------------
      1          7           0        0.477415    0.209801    0.096326
      2          6           0       -0.893445    0.397214   -0.542272
      3          8           0        0.426951    0.491469    1.424881
      4          6           0       -1.972561   -0.418263    0.138155
      5          1           0       -1.904541   -0.270119    1.214815
      6          1           0       -1.898291   -1.483316   -0.085176
      7          1           0       -2.949500   -0.076971   -0.208170
      8          1           0       -1.095929    1.460014   -0.422982
      9          1           0       -0.811360    0.168009   -1.608176
     10          6           0        1.432544    1.149408   -0.572507
     11          1           0        2.398587    1.013404   -0.095215
     12          1           0        1.075177    2.156445   -0.379292
     13          1           0        1.495903    0.956228   -1.645620
     14          6           0        0.963092   -1.194333   -0.103841
     15          1           0        0.293659   -1.853061    0.438195
     16          1           0        1.952233   -1.249618    0.340867
     17          1           0        0.997260   -1.456299   -1.163427
 ---------------------------------------------------------------------
                    Distance matrix (angstroms):
                    1          2          3          4          5
     1  N    0.000000
     2  C    1.523873   0.000000
     3  O    1.359022   2.371080   0.000000
     4  C    2.529545   1.514092   2.870703   0.000000
     5  H    2.674893   2.134245   2.461707   1.088931   0.000000
     6  H    2.922938   2.180607   3.403939   1.090748   1.778163
     7  H    3.452347   2.136314   3.793468   1.091252   1.775988
     8  H    2.075602   1.088473   2.582991   2.147390   2.515868
     9  H    2.137291   1.093355   3.292032   2.177562   3.058804
    10  C    1.497488   2.444777   2.331021   3.815413   4.042983
    11  H    2.091260   3.378909   2.543709   4.605547   4.677662
    12  H    2.091161   2.645171   2.539170   4.023131   4.160302
    13  H    2.151476   2.690512   3.284301   4.135374   4.609668
    14  C    1.499180   2.484346   2.338026   3.046130   3.288821
    15  H    2.099057   2.726586   2.547182   2.698967   2.817965
    16  H    2.089209   3.404390   2.555965   4.016995   4.074053
    17  H    2.152465   2.719579   3.289132   3.404625   3.934909
                    6          7          8          9         10
     6  H    0.000000
     7  H    1.760106   0.000000
     8  H    3.069379   2.417476   0.000000
     9  H    2.495561   2.567426   1.776215   0.000000
    10  C    4.273545   4.564982   2.551864   2.659109   0.000000
    11  H    4.969595   5.459278   3.538154   3.647945   1.086068
    12  H    4.709127   4.606024   2.280488   3.003840   1.085894
    13  H    4.461716   4.784911   2.909680   2.438474   1.092202
    14  C    2.875999   4.070351   3.374459   2.695863   2.435807
    15  H    2.283697   3.753713   3.694462   3.081140   3.366511
    16  H    3.881065   5.069865   4.149321   3.666863   2.619094
    17  H    3.089914   4.288587   3.665321   2.471292   2.707096
                   11         12         13         14         15
    11  H    0.000000
    12  H    1.771625   0.000000
    13  H    1.794955   1.794747   0.000000
    14  C    2.633405   3.363948   2.699237   0.000000
    15  H    3.596091   4.165957   3.698619   1.084374   0.000000
    16  H    2.347481   3.590142   3.003352   1.085920   1.767621
    17  H    3.033847   3.697683   2.510267   1.092024   1.793786
                   16         17
    16  H    0.000000
    17  H    1.793764   0.000000
 Symmetry turned off by external request.
 Stoichiometry    C4H11NO
 Framework group  C1[X(C4H11NO)]
 Deg. of freedom    45
 Full point group                 C1      NOp   1
 Rotational constants (GHZ):           4.9308556           2.7662964           2.6762148
 Standard basis: def2TZVP (5D, 7F)
   252 basis functions,   394 primitive gaussians,   282 cartesian basis functions
    25 alpha electrons       25 beta electrons
       nuclear repulsion energy       274.8054052988 Hartrees.
 NAtoms=   17 NActive=   17 NUniq=   17 SFac= 1.00D+00 NAtFMM=   60 NAOKFM=F Big=F
 Integral buffers will be    131072 words long.
 Raffenetti 2 integral format.
 Two-electron integral symmetry is turned off.
 One-electron integrals computed using PRISM.
   1 Symmetry operations used in ECPInt.
 ECPInt:  NShTT=    6105 NPrTT=   17556 LenC2=    6069 LenP2D=   14639.
 LDataN:  DoStor=T MaxTD1= 6 Len=  172
 NBasis=   252 RedAO= T EigKep=  3.09D-04  NBF=   252
 NBsUse=   252 1.00D-06 EigRej= -1.00D+00 NBFU=   252
 ExpMin= 9.52D-02 ExpMax= 2.70D+04 ExpMxC= 9.22D+02 IAcc=3 IRadAn=         5 AccDes= 0.00D+00
 Harris functional with IExCor=  402 and IRadAn=       5 diagonalized for initial guess.
 HarFok:  IExCor=  402 AccDes= 0.00D+00 IRadAn=         5 IDoV= 1 UseB2=F ITyADJ=14
 ICtDFT=  3500011 ScaDFX=  1.000000  1.000000  1.000000  1.000000
 FoFCou: FMM=F IPFlag=           0 FMFlag=      100000 FMFlg1=           0
         NFxFlg=           0 DoJE=T BraDBF=F KetDBF=T FulRan=T
         wScrn=  0.000000 ICntrl=       500 IOpCl=  0 I1Cent=   200000004 NGrid=           0
         NMat0=    1 NMatS0=      1 NMatT0=    0 NMatD0=    1 NMtDS0=    0 NMtDT0=    0
 Symmetry not used in FoFCou.
 Requested convergence on RMS density matrix=1.00D-08 within 128 cycles.
 Requested convergence on MAX density matrix=1.00D-06.
 Requested convergence on             energy=1.00D-06.
 No special actions if energy rises.
 Integral accuracy reduced to 1.0D-05 until final iterations.
 Initial convergence to 1.0D-05 achieved.  Increase integral accuracy.
 SCF Done:  E(RB3LYP) =  -289.055060850     A.U. after   14 cycles
            NFock= 14  Conv=0.22D-08     -V/T= 2.0051

 **********************************************************************

            Population analysis using the SCF density.

 **********************************************************************

 Alpha  occ. eigenvalues --  -19.03522 -14.44917 -10.21460 -10.20814 -10.20792
 Alpha  occ. eigenvalues --  -10.16602  -1.05048  -0.82893  -0.77400  -0.73827
 Alpha  occ. eigenvalues --   -0.66879  -0.59423  -0.51491  -0.50265  -0.48070
 Alpha  occ. eigenvalues --   -0.45346  -0.43060  -0.41428  -0.39619  -0.39314
 Alpha  occ. eigenvalues --   -0.37908  -0.36887  -0.35857  -0.20540  -0.20407
 Alpha virt. eigenvalues --    0.01807   0.05308   0.06447   0.06523   0.07643
 Alpha virt. eigenvalues --    0.08735   0.08947   0.10771   0.11731   0.12988
 Alpha virt. eigenvalues --    0.13659   0.14187   0.15180   0.15823   0.18556
 Alpha virt. eigenvalues --    0.19371   0.20475   0.21282   0.23803   0.24854
 Alpha virt. eigenvalues --    0.27802   0.29659   0.29920   0.31555   0.32191
 Alpha virt. eigenvalues --    0.35056   0.37504   0.38174   0.40727   0.40935
 Alpha virt. eigenvalues --    0.41763   0.42463   0.43172   0.44101   0.44142
 Alpha virt. eigenvalues --    0.45473   0.46239   0.46833   0.47312   0.48701
 Alpha virt. eigenvalues --    0.52109   0.54170   0.56670   0.57337   0.58217
 Alpha virt. eigenvalues --    0.59286   0.62994   0.68797   0.70680   0.72091
 Alpha virt. eigenvalues --    0.74205   0.74965   0.80465   0.82549   0.85767
 Alpha virt. eigenvalues --    0.87456   0.90076   0.90760   0.91667   0.97437
 Alpha virt. eigenvalues --    0.97783   0.99478   1.01100   1.03606   1.06788
 Alpha virt. eigenvalues --    1.09772   1.10585   1.13969   1.15718   1.18436
 Alpha virt. eigenvalues --    1.20140   1.36449   1.38251   1.40267   1.42900
 Alpha virt. eigenvalues --    1.44647   1.48099   1.49474   1.50306   1.50968
 Alpha virt. eigenvalues --    1.52431   1.54193   1.55723   1.57566   1.58128
 Alpha virt. eigenvalues --    1.58700   1.59319   1.61137   1.62056   1.62245
 Alpha virt. eigenvalues --    1.64664   1.67875   1.74572   1.76038   1.77620
 Alpha virt. eigenvalues --    1.79241   1.84410   1.85661   1.88455   1.92518
 Alpha virt. eigenvalues --    1.94760   1.98368   2.00735   2.04232   2.08082
 Alpha virt. eigenvalues --    2.08716   2.13274   2.14285   2.17325   2.19005
 Alpha virt. eigenvalues --    2.22784   2.26096   2.26202   2.26365   2.30040
 Alpha virt. eigenvalues --    2.32409   2.34948   2.36822   2.38970   2.39769
 Alpha virt. eigenvalues --    2.41298   2.43651   2.44973   2.47244   2.48576
 Alpha virt. eigenvalues --    2.52549   2.54964   2.56051   2.56813   2.57836
 Alpha virt. eigenvalues --    2.59103   2.60788   2.63597   2.64152   2.66665
 Alpha virt. eigenvalues --    2.68669   2.72074   2.76195   2.77427   2.79699
 Alpha virt. eigenvalues --    2.83622   2.89564   2.90856   2.92959   2.97535
 Alpha virt. eigenvalues --    2.99974   3.02840   3.03143   3.06726   3.08616
 Alpha virt. eigenvalues --    3.11494   3.14113   3.15998   3.16496   3.20152
 Alpha virt. eigenvalues --    3.22939   3.25166   3.25565   3.28281   3.30583
 Alpha virt. eigenvalues --    3.33976   3.36971   3.38907   3.40859   3.42921
 Alpha virt. eigenvalues --    3.44213   3.44926   3.49731   3.51553   3.53713
 Alpha virt. eigenvalues --    3.58537   3.59634   3.63371   3.66082   3.66855
 Alpha virt. eigenvalues --    3.67766   3.75624   3.77501   3.81009   3.85786
 Alpha virt. eigenvalues --    3.92197   4.00045   4.13474   4.14192   4.16129
 Alpha virt. eigenvalues --    4.20733   4.25290   4.26951   4.33500   4.36267
 Alpha virt. eigenvalues --    4.40344   4.44158   4.44740   4.48218   4.54766
 Alpha virt. eigenvalues --    4.60011   4.72095   4.77016   4.81134   4.82243
 Alpha virt. eigenvalues --    5.06235   5.10723   5.20030   5.24324   5.27485
 Alpha virt. eigenvalues --    5.31604   5.32273   5.53198   5.56422   5.58481
 Alpha virt. eigenvalues --    5.64812   5.69901   5.73700   6.17279   6.19486
 Alpha virt. eigenvalues --    6.45040   6.46419   6.94653   6.95459   6.96755
 Alpha virt. eigenvalues --    7.70606  22.30966  22.36383  22.39430  22.43999
 Alpha virt. eigenvalues --   32.42241  43.96921
          Condensed to atoms (all electrons):
               1          2          3          4          5          6
     1  N    5.957759   0.252794   0.192124  -0.018649  -0.003520  -0.004480
     2  C    0.252794   5.129035  -0.056844   0.270213  -0.052236  -0.045724
     3  O    0.192124  -0.056844   8.543078  -0.027244   0.037758  -0.000543
     4  C   -0.018649   0.270213  -0.027244   5.008891   0.393964   0.409029
     5  H   -0.003520  -0.052236   0.037758   0.393964   0.495613  -0.022051
     6  H   -0.004480  -0.045724  -0.000543   0.409029  -0.022051   0.587508
     7  H    0.005649  -0.039197   0.001866   0.396044  -0.016234  -0.029108
     8  H   -0.027844   0.397368   0.002019  -0.019564  -0.002606   0.006908
     9  H   -0.020523   0.355542   0.011088  -0.042593   0.010410  -0.005160
    10  C    0.279331  -0.091385  -0.059993   0.014053   0.002078  -0.000759
    11  H   -0.022373   0.014173   0.006628  -0.000178  -0.000240  -0.000009
    12  H   -0.026549  -0.012384   0.006338  -0.001284   0.000356   0.000069
    13  H   -0.026822   0.005799   0.012834  -0.002698  -0.000513   0.000057
    14  C    0.262258  -0.037950  -0.064643  -0.018352  -0.001167   0.004976
    15  H   -0.025400  -0.015994   0.003930   0.000859   0.002640  -0.002314
    16  H   -0.023552   0.014207   0.005297  -0.000093  -0.000760   0.000060
    17  H   -0.020740  -0.004086   0.013787   0.006022  -0.000476  -0.001868
               7          8          9         10         11         12
     1  N    0.005649  -0.027844  -0.020523   0.279331  -0.022373  -0.026549
     2  C   -0.039197   0.397368   0.355542  -0.091385   0.014173  -0.012384
     3  O    0.001866   0.002019   0.011088  -0.059993   0.006628   0.006338
     4  C    0.396044  -0.019564  -0.042593   0.014053  -0.000178  -0.001284
     5  H   -0.016234  -0.002606   0.010410   0.002078  -0.000240   0.000356
     6  H   -0.029108   0.006908  -0.005160  -0.000759  -0.000009   0.000069
     7  H    0.578429  -0.009148  -0.000182   0.000265   0.000008  -0.000094
     8  H   -0.009148   0.577285  -0.032508  -0.015448  -0.000177   0.006696
     9  H   -0.000182  -0.032508   0.643439  -0.002905  -0.001863   0.002723
    10  C    0.000265  -0.015448  -0.002905   5.052126   0.393429   0.397532
    11  H    0.000008  -0.000177  -0.001863   0.393429   0.526246  -0.016323
    12  H   -0.000094   0.006696   0.002723   0.397532  -0.016323   0.525117
    13  H   -0.000199   0.000808  -0.002398   0.336497  -0.026261  -0.026295
    14  C   -0.000691   0.011944   0.001235  -0.057966  -0.014652   0.013916
    15  H    0.000577  -0.000447   0.002026   0.012511  -0.000310  -0.000346
    16  H   -0.000018  -0.000374  -0.001394  -0.015927   0.005901  -0.000358
    17  H    0.000183  -0.001123  -0.009098  -0.001421   0.002773  -0.001923
              13         14         15         16         17
     1  N   -0.026822   0.262258  -0.025400  -0.023552  -0.020740
     2  C    0.005799  -0.037950  -0.015994   0.014207  -0.004086
     3  O    0.012834  -0.064643   0.003930   0.005297   0.013787
     4  C   -0.002698  -0.018352   0.000859  -0.000093   0.006022
     5  H   -0.000513  -0.001167   0.002640  -0.000760  -0.000476
     6  H    0.000057   0.004976  -0.002314   0.000060  -0.001868
     7  H   -0.000199  -0.000691   0.000577  -0.000018   0.000183
     8  H    0.000808   0.011944  -0.000447  -0.000374  -0.001123
     9  H   -0.002398   0.001235   0.002026  -0.001394  -0.009098
    10  C    0.336497  -0.057966   0.012511  -0.015927  -0.001421
    11  H   -0.026261  -0.014652  -0.000310   0.005901   0.002773
    12  H   -0.026295   0.013916  -0.000346  -0.000358  -0.001923
    13  H    0.633970  -0.001722  -0.001425   0.002508  -0.006923
    14  C   -0.001722   5.029770   0.406039   0.397591   0.341386
    15  H   -0.001425   0.406039   0.516693  -0.015853  -0.027471
    16  H    0.002508   0.397591  -0.015853   0.525542  -0.026511
    17  H   -0.006923   0.341386  -0.027471  -0.026511   0.632254
 Mulliken charges:
               1
     1  N    0.270536
     2  C   -0.083332
     3  O   -0.627480
     4  C   -0.368421
     5  H    0.156985
     6  H    0.103410
     7  H    0.111851
     8  H    0.106209
     9  H    0.092158
    10  C   -0.242019
    11  H    0.133229
    12  H    0.132808
    13  H    0.102784
    14  C   -0.271973
    15  H    0.144284
    16  H    0.133735
    17  H    0.105234
 Sum of Mulliken charges =  -0.00000
 Mulliken charges with hydrogens summed into heavy atoms:
               1
     1  N    0.270536
     2  C    0.115036
     3  O   -0.627480
     4  C    0.003825
    10  C    0.126803
    14  C    0.111280
 Electronic spatial extent (au):  <R**2>=            620.0352
 Charge=              0.0000 electrons
 Dipole moment (field-independent basis, Debye):
    X=              0.0451    Y=             -0.9521    Z=             -4.3799  Tot=              4.4825
 Quadrupole moment (field-independent basis, Debye-Ang):
   XX=            -36.2071   YY=            -37.4784   ZZ=            -45.5813
   XY=             -0.5864   XZ=             -2.0736   YZ=             -2.7460
 Traceless Quadrupole moment (field-independent basis, Debye-Ang):
   XX=              3.5485   YY=              2.2772   ZZ=             -5.8257
   XY=             -0.5864   XZ=             -2.0736   YZ=             -2.7460
 Octapole moment (field-independent basis, Debye-Ang**2):
  XXX=             -2.3502  YYY=             -8.3016  ZZZ=            -12.5063  XYY=             -0.5548
  XXY=             -1.4440  XXZ=             -1.1341  XZZ=             -5.0348  YZZ=             -6.8112
  YYZ=             -2.0930  XYZ=             -1.2542
 Hexadecapole moment (field-independent basis, Debye-Ang**3):
 XXXX=           -418.3922 YYYY=           -216.8342 ZZZZ=           -183.8676 XXXY=            -31.2772
 XXXZ=             10.8713 YYYX=            -27.5695 YYYZ=              3.2997 ZZZX=             -0.7510
 ZZZY=              3.9828 XXYY=           -108.5757 XXZZ=           -104.8224 YYZZ=            -71.1433
 XXYZ=             -0.0450 YYXZ=              1.7274 ZZXY=            -11.3220
 N-N= 2.748054052988D+02 E-N=-1.223178116511D+03  KE= 2.875844712776D+02
 1\1\GINC-BHC0026\SP\RB3LYP\def2TZVP\C4H11N1O1\DHANAWAY\10-Jun-2022\0\\
 # sp B3LYP/Def2TZVP NoSymm\\int_initalOptXYZ_aligned_AlignedSp\\0,1\N,
 0,0.477415,0.209801,0.096326\C,0,-0.893445,0.397214,-0.542272\O,0,0.42
 6951,0.491469,1.424881\C,0,-1.972561,-0.418263,0.138155\H,0,-1.904541,
 -0.270119,1.214815\H,0,-1.898291,-1.483316,-0.085176\H,0,-2.9495,-0.07
 6971,-0.20817\H,0,-1.095929,1.460014,-0.422982\H,0,-0.81136,0.168009,-
 1.608176\C,0,1.432544,1.149408,-0.572507\H,0,2.398587,1.013404,-0.0952
 15\H,0,1.075177,2.156445,-0.379292\H,0,1.495903,0.956228,-1.64562\C,0,
 0.963092,-1.194333,-0.103841\H,0,0.293659,-1.853061,0.438195\H,0,1.952
 233,-1.249618,0.340867\H,0,0.99726,-1.456299,-1.163427\\Version=ES64L-
 G16RevA.03\HF=-289.0550608\RMSD=2.240e-09\Dipole=0.017725,-0.3745862,-
 1.7232049\Quadrupole=2.6381994,1.693072,-4.3312714,-0.436001,-1.541636
 ,-2.0415905\PG=C01 [X(C4H11N1O1)]\\@


 The chemist is a guest at the physicist's table and
 frequently dines well.
                   -- Richard Bersohn
 Job cpu time:       0 days  0 hours  7 minutes 14.7 seconds.
 Elapsed time:       0 days  0 hours  0 minutes 36.4 seconds.
 File lengths (MBytes):  RWF=     40 Int=      0 D2E=      0 Chk=     32 Scr=      1
 Normal termination of Gaussian 16 at Fri Jun 10 10:52:41 2022.
