 Entering Gaussian System, Link 0=g16
 Input=int_initalOpt_zmat_sp.gjf
 Output=int_initalOpt_zmat_sp.out
 Initial command:
 /software/gaussian/g16-a03/l1.exe "/local_scratch/11171699/Gau-14884.inp" -scrdir="/local_scratch/11171699/"
 Entering Link 1 = /software/gaussian/g16-a03/l1.exe PID=     14885.
  
 Copyright (c) 1988,1990,1992,1993,1995,1998,2003,2009,2016,
            Gaussian, Inc.  All Rights Reserved.
  
 This is part of the Gaussian(R) 16 program.  It is based on
 the Gaussian(R) 09 system (copyright 2009, Gaussian, Inc.),
 the Gaussian(R) 03 system (copyright 2003, Gaussian, Inc.),
 the Gaussian(R) 98 system (copyright 1998, Gaussian, Inc.),
 the Gaussian(R) 94 system (copyright 1995, Gaussian, Inc.),
 the Gaussian 92(TM) system (copyright 1992, Gaussian, Inc.),
 the Gaussian 90(TM) system (copyright 1990, Gaussian, Inc.),
 the Gaussian 88(TM) system (copyright 1988, Gaussian, Inc.),
 the Gaussian 86(TM) system (copyright 1986, Carnegie Mellon
 University), and the Gaussian 82(TM) system (copyright 1983,
 Carnegie Mellon University). Gaussian is a federally registered
 trademark of Gaussian, Inc.
  
 This software contains proprietary and confidential information,
 including trade secrets, belonging to Gaussian, Inc.
  
 This software is provided under written license and may be
 used, copied, transmitted, or stored only in accord with that
 written license.
  
 The following legend is applicable only to US Government
 contracts under FAR:
  
                    RESTRICTED RIGHTS LEGEND
  
 Use, reproduction and disclosure by the US Government is
 subject to restrictions as set forth in subparagraphs (a)
 and (c) of the Commercial Computer Software - Restricted
 Rights clause in FAR 52.227-19.
  
 Gaussian, Inc.
 340 Quinnipiac St., Bldg. 40, Wallingford CT 06492
  
  
 ---------------------------------------------------------------
 Warning -- This program may not be used in any manner that
 competes with the business of Gaussian, Inc. or will provide
 assistance to any competitor of Gaussian, Inc.  The licensee
 of this program is prohibited from giving any competitor of
 Gaussian, Inc. access to this program.  By using this program,
 the user acknowledges that Gaussian, Inc. is engaged in the
 business of creating and licensing software in the field of
 computational chemistry and represents and warrants to the
 licensee that it is not a competitor of Gaussian, Inc. and that
 it will not use this program in any manner prohibited above.
 ---------------------------------------------------------------
  

 Cite this work as:
 Gaussian 16, Revision A.03,
 M. J. Frisch, G. W. Trucks, H. B. Schlegel, G. E. Scuseria, 
 M. A. Robb, J. R. Cheeseman, G. Scalmani, V. Barone, 
 G. A. Petersson, H. Nakatsuji, X. Li, M. Caricato, A. V. Marenich, 
 J. Bloino, B. G. Janesko, R. Gomperts, B. Mennucci, H. P. Hratchian, 
 J. V. Ortiz, A. F. Izmaylov, J. L. Sonnenberg, D. Williams-Young, 
 F. Ding, F. Lipparini, F. Egidi, J. Goings, B. Peng, A. Petrone, 
 T. Henderson, D. Ranasinghe, V. G. Zakrzewski, J. Gao, N. Rega, 
 G. Zheng, W. Liang, M. Hada, M. Ehara, K. Toyota, R. Fukuda, 
 J. Hasegawa, M. Ishida, T. Nakajima, Y. Honda, O. Kitao, H. Nakai, 
 T. Vreven, K. Throssell, J. A. Montgomery, Jr., J. E. Peralta, 
 F. Ogliaro, M. J. Bearpark, J. J. Heyd, E. N. Brothers, K. N. Kudin, 
 V. N. Staroverov, T. A. Keith, R. Kobayashi, J. Normand, 
 K. Raghavachari, A. P. Rendell, J. C. Burant, S. S. Iyengar, 
 J. Tomasi, M. Cossi, J. M. Millam, M. Klene, C. Adamo, R. Cammi, 
 J. W. Ochterski, R. L. Martin, K. Morokuma, O. Farkas, 
 J. B. Foresman, and D. J. Fox, Gaussian, Inc., Wallingford CT, 2016.
 
 ******************************************
 Gaussian 16:  ES64L-G16RevA.03 25-Dec-2016
                10-Jun-2022 
 ******************************************
 %nprocshared=12
 Will use up to   12 processors via shared memory.
 %chk=checkpoint.chk
 %mem=12GB
 --------------------------
 # sp B3LYP/Def2TZVP NoSymm
 --------------------------
 1/38=1,172=1/1;
 2/12=2,15=1,17=6,18=5,40=1/2;
 3/5=44,7=101,11=2,25=1,30=1,74=-5/1,2,3;
 4//1;
 5/5=2,38=5/2;
 6/7=2,8=2,9=2,10=2,28=1/1;
 99/5=1,9=1/99;
 ----------------------------
 int_initalOpt_zmat_AlignedSp
 ----------------------------
 Symbolic Z-matrix:
 Charge =  0 Multiplicity = 1
 N
 C                    1    R2
 O                    1    R3       2    A3
 C                    1    R4       2    A4       3    D4       0
 C                    1    R5       2    A5       3    D5       0
 C                    2    R6       1    A6       3    D6       0
 H                    2    R7       1    A7       6    D7       0
 H                    2    R8       1    A8       6    D8       0
 H                    4    R9       1    A9       2    D9       0
 H                    4    R10      1    A10      9    D10      0
 H                    4    R11      1    A11      9    D11      0
 H                    5    R12      1    A12      2    D12      0
 H                    5    R13      1    A13      12   D13      0
 H                    5    R14      1    A14      12   D14      0
 H                    6    R15      2    A15      1    D15      0
 H                    6    R16      2    A16      15   D16      0
 H                    6    R17      2    A17      15   D17      0
       Variables:
  R2                    1.52387                  
  R3                    1.35902                  
  R4                    1.49749                  
  R5                    1.49918                  
  R6                    1.51409                  
  R7                    1.08847                  
  R8                    1.09335                  
  R9                    1.08607                  
  R10                   1.08589                  
  R11                   1.0922                   
  R12                   1.08437                  
  R13                   1.08592                  
  R14                   1.09202                  
  R15                   1.08893                  
  R16                   1.09075                  
  R17                   1.09125                  
  A3                  110.53467                  
  A4                  108.02554                  
  A5                  110.52817                  
  A6                  112.74232                  
  A7                  103.97533                  
  A8                  108.37419                  
  A9                  107.0063                   
  A10                 107.00844                  
  A11                 111.39845                  
  A12                 107.59121                  
  A13                 106.74391                  
  A14                 111.36879                  
  A15                 109.05887                  
  A16                 112.66612                  
  A17                 109.08598                  
  D4                 -119.52251                  
  D5                  121.61106                  
  D6                  -55.45287                  
  D7                  119.25899                  
  D8                 -124.88504                  
  D9                  179.13547                  
  D10                -117.07522                  
  D11                 121.4654                   
  D12                 -65.00845                  
  D13                -116.95438                  
  D14                 121.87149                  
  D15                  48.28613                  
  D16                -121.58873                  
  D17                 119.06537                  
 
                          Input orientation:                          
 ---------------------------------------------------------------------
 Center     Atomic      Atomic             Coordinates (Angstroms)
 Number     Number       Type             X           Y           Z
 ---------------------------------------------------------------------
      1          7           0        0.000000    0.000000    0.000000
      2          6           0        0.000000    0.000000    1.523873
      3          8           0        1.272670    0.000000   -0.476710
      4          6           0       -0.701693    1.239102   -0.463384
      5          6           0       -0.735898   -1.195667   -0.525714
      6          6           0        0.791862   -1.150139    2.109202
      7          1           0        0.466241    0.947783    1.786743
      8          1           0       -1.037595    0.006119    1.868522
      9          1           0       -0.678555    1.230045   -1.549168
     10          1           0       -0.126463    2.084984   -0.099019
     11          1           0       -1.728997    1.276910   -0.094438
     12          1           0       -0.179160   -2.078527   -0.231660
     13          1           0       -0.728776   -1.116144   -1.608695
     14          1           0       -1.758603   -1.232681   -0.144637
     15          1           0        1.760791   -1.202625    1.615043
     16          1           0        0.281028   -2.108220    2.004994
     17          1           0        0.943880   -0.972732    3.175151
 ---------------------------------------------------------------------
                    Distance matrix (angstroms):
                    1          2          3          4          5
     1  N    0.000000
     2  C    1.523873   0.000000
     3  O    1.359022   2.371080   0.000000
     4  C    1.497488   2.444777   2.331021   0.000000
     5  C    1.499180   2.484346   2.338026   2.435807   0.000000
     6  C    2.529545   1.514092   2.870703   3.815413   3.046130
     7  H    2.075602   1.088473   2.582991   2.551864   3.374459
     8  H    2.137291   1.093355   3.292032   2.659109   2.695863
     9  H    2.091260   3.378909   2.543709   1.086068   2.633405
    10  H    2.091161   2.645171   2.539170   1.085894   3.363949
    11  H    2.151476   2.690512   3.284301   1.092202   2.699237
    12  H    2.099057   2.726586   2.547182   3.366511   1.084374
    13  H    2.089209   3.404390   2.555965   2.619094   1.085920
    14  H    2.152465   2.719579   3.289132   2.707096   1.092024
    15  H    2.674893   2.134245   2.461707   4.042983   3.288821
    16  H    2.922938   2.180607   3.403939   4.273545   2.875999
    17  H    3.452347   2.136314   3.793468   4.564982   4.070351
                    6          7          8          9         10
     6  C    0.000000
     7  H    2.147390   0.000000
     8  H    2.177562   1.776215   0.000000
     9  H    4.605547   3.538154   3.647945   0.000000
    10  H    4.023131   2.280488   3.003840   1.771625   0.000000
    11  H    4.135374   2.909680   2.438474   1.794955   1.794747
    12  H    2.698967   3.694462   3.081140   3.596091   4.165957
    13  H    4.016995   4.149321   3.666863   2.347481   3.590142
    14  H    3.404625   3.665321   2.471292   3.033847   3.697683
    15  H    1.088931   2.515868   3.058804   4.677662   4.160302
    16  H    1.090748   3.069379   2.495561   4.969595   4.709127
    17  H    1.091252   2.417476   2.567426   5.459278   4.606024
                   11         12         13         14         15
    11  H    0.000000
    12  H    3.698619   0.000000
    13  H    3.003352   1.767621   0.000000
    14  H    2.510267   1.793786   1.793764   0.000000
    15  H    4.609668   2.817965   4.074053   3.934909   0.000000
    16  H    4.461716   2.283697   3.881065   3.089914   1.778163
    17  H    4.784911   3.753713   5.069865   4.288587   1.775988
                   16         17
    16  H    0.000000
    17  H    1.760106   0.000000
 Symmetry turned off by external request.
 Stoichiometry    C4H11NO
 Framework group  C1[X(C4H11NO)]
 Deg. of freedom    45
 Full point group                 C1      NOp   1
 Rotational constants (GHZ):           4.9308556           2.7662964           2.6762148
 Standard basis: def2TZVP (5D, 7F)
   252 basis functions,   394 primitive gaussians,   282 cartesian basis functions
    25 alpha electrons       25 beta electrons
       nuclear repulsion energy       274.8054052358 Hartrees.
 NAtoms=   17 NActive=   17 NUniq=   17 SFac= 1.00D+00 NAtFMM=   60 NAOKFM=F Big=F
 Integral buffers will be    131072 words long.
 Raffenetti 2 integral format.
 Two-electron integral symmetry is turned off.
 One-electron integrals computed using PRISM.
   1 Symmetry operations used in ECPInt.
 ECPInt:  NShTT=    6105 NPrTT=   17556 LenC2=    6069 LenP2D=   14639.
 LDataN:  DoStor=T MaxTD1= 6 Len=  172
 NBasis=   252 RedAO= T EigKep=  3.09D-04  NBF=   252
 NBsUse=   252 1.00D-06 EigRej= -1.00D+00 NBFU=   252
 ExpMin= 9.52D-02 ExpMax= 2.70D+04 ExpMxC= 9.22D+02 IAcc=3 IRadAn=         5 AccDes= 0.00D+00
 Harris functional with IExCor=  402 and IRadAn=       5 diagonalized for initial guess.
 HarFok:  IExCor=  402 AccDes= 0.00D+00 IRadAn=         5 IDoV= 1 UseB2=F ITyADJ=14
 ICtDFT=  3500011 ScaDFX=  1.000000  1.000000  1.000000  1.000000
 FoFCou: FMM=F IPFlag=           0 FMFlag=      100000 FMFlg1=           0
         NFxFlg=           0 DoJE=T BraDBF=F KetDBF=T FulRan=T
         wScrn=  0.000000 ICntrl=       500 IOpCl=  0 I1Cent=   200000004 NGrid=           0
         NMat0=    1 NMatS0=      1 NMatT0=    0 NMatD0=    1 NMtDS0=    0 NMtDT0=    0
 Symmetry not used in FoFCou.
 Requested convergence on RMS density matrix=1.00D-08 within 128 cycles.
 Requested convergence on MAX density matrix=1.00D-06.
 Requested convergence on             energy=1.00D-06.
 No special actions if energy rises.
 Integral accuracy reduced to 1.0D-05 until final iterations.
 Initial convergence to 1.0D-05 achieved.  Increase integral accuracy.
 SCF Done:  E(RB3LYP) =  -289.055059528     A.U. after   14 cycles
            NFock= 14  Conv=0.21D-08     -V/T= 2.0051

 **********************************************************************

            Population analysis using the SCF density.

 **********************************************************************

 Alpha  occ. eigenvalues --  -19.03522 -14.44916 -10.21460 -10.20814 -10.20792
 Alpha  occ. eigenvalues --  -10.16602  -1.05048  -0.82893  -0.77400  -0.73827
 Alpha  occ. eigenvalues --   -0.66879  -0.59423  -0.51491  -0.50265  -0.48070
 Alpha  occ. eigenvalues --   -0.45346  -0.43060  -0.41428  -0.39619  -0.39314
 Alpha  occ. eigenvalues --   -0.37908  -0.36887  -0.35857  -0.20540  -0.20407
 Alpha virt. eigenvalues --    0.01807   0.05308   0.06447   0.06523   0.07643
 Alpha virt. eigenvalues --    0.08735   0.08947   0.10771   0.11731   0.12988
 Alpha virt. eigenvalues --    0.13659   0.14187   0.15180   0.15823   0.18556
 Alpha virt. eigenvalues --    0.19371   0.20475   0.21282   0.23803   0.24854
 Alpha virt. eigenvalues --    0.27802   0.29659   0.29920   0.31555   0.32191
 Alpha virt. eigenvalues --    0.35056   0.37504   0.38174   0.40727   0.40935
 Alpha virt. eigenvalues --    0.41763   0.42463   0.43172   0.44101   0.44142
 Alpha virt. eigenvalues --    0.45473   0.46239   0.46833   0.47312   0.48701
 Alpha virt. eigenvalues --    0.52109   0.54170   0.56670   0.57337   0.58217
 Alpha virt. eigenvalues --    0.59286   0.62994   0.68797   0.70680   0.72091
 Alpha virt. eigenvalues --    0.74205   0.74965   0.80465   0.82549   0.85767
 Alpha virt. eigenvalues --    0.87456   0.90076   0.90760   0.91667   0.97437
 Alpha virt. eigenvalues --    0.97783   0.99478   1.01100   1.03606   1.06788
 Alpha virt. eigenvalues --    1.09771   1.10585   1.13969   1.15718   1.18436
 Alpha virt. eigenvalues --    1.20140   1.36449   1.38251   1.40267   1.42900
 Alpha virt. eigenvalues --    1.44647   1.48099   1.49474   1.50306   1.50968
 Alpha virt. eigenvalues --    1.52431   1.54193   1.55723   1.57566   1.58128
 Alpha virt. eigenvalues --    1.58700   1.59319   1.61137   1.62056   1.62245
 Alpha virt. eigenvalues --    1.64664   1.67875   1.74572   1.76038   1.77620
 Alpha virt. eigenvalues --    1.79241   1.84410   1.85661   1.88455   1.92518
 Alpha virt. eigenvalues --    1.94760   1.98368   2.00735   2.04232   2.08082
 Alpha virt. eigenvalues --    2.08716   2.13274   2.14285   2.17325   2.19005
 Alpha virt. eigenvalues --    2.22784   2.26096   2.26202   2.26365   2.30040
 Alpha virt. eigenvalues --    2.32409   2.34948   2.36822   2.38970   2.39769
 Alpha virt. eigenvalues --    2.41298   2.43651   2.44973   2.47244   2.48575
 Alpha virt. eigenvalues --    2.52549   2.54964   2.56051   2.56813   2.57836
 Alpha virt. eigenvalues --    2.59103   2.60788   2.63597   2.64152   2.66665
 Alpha virt. eigenvalues --    2.68669   2.72074   2.76195   2.77427   2.79699
 Alpha virt. eigenvalues --    2.83622   2.89564   2.90856   2.92959   2.97535
 Alpha virt. eigenvalues --    2.99974   3.02840   3.03143   3.06726   3.08616
 Alpha virt. eigenvalues --    3.11494   3.14113   3.15998   3.16496   3.20152
 Alpha virt. eigenvalues --    3.22939   3.25166   3.25565   3.28281   3.30583
 Alpha virt. eigenvalues --    3.33976   3.36971   3.38907   3.40859   3.42921
 Alpha virt. eigenvalues --    3.44213   3.44926   3.49731   3.51553   3.53713
 Alpha virt. eigenvalues --    3.58537   3.59634   3.63371   3.66082   3.66855
 Alpha virt. eigenvalues --    3.67766   3.75624   3.77501   3.81009   3.85786
 Alpha virt. eigenvalues --    3.92197   4.00045   4.13474   4.14192   4.16129
 Alpha virt. eigenvalues --    4.20733   4.25290   4.26951   4.33500   4.36267
 Alpha virt. eigenvalues --    4.40344   4.44158   4.44740   4.48218   4.54766
 Alpha virt. eigenvalues --    4.60011   4.72095   4.77016   4.81134   4.82243
 Alpha virt. eigenvalues --    5.06235   5.10723   5.20030   5.24324   5.27485
 Alpha virt. eigenvalues --    5.31604   5.32273   5.53198   5.56422   5.58481
 Alpha virt. eigenvalues --    5.64812   5.69901   5.73700   6.17279   6.19486
 Alpha virt. eigenvalues --    6.45040   6.46419   6.94653   6.95459   6.96755
 Alpha virt. eigenvalues --    7.70606  22.30966  22.36383  22.39430  22.43999
 Alpha virt. eigenvalues --   32.42241  43.96921
          Condensed to atoms (all electrons):
               1          2          3          4          5          6
     1  N    5.957755   0.252792   0.192126   0.279330   0.262262  -0.018644
     2  C    0.252792   5.129020  -0.056846  -0.091381  -0.037951   0.270212
     3  O    0.192126  -0.056846   8.543080  -0.059994  -0.064644  -0.027245
     4  C    0.279330  -0.091381  -0.059994   5.052129  -0.057970   0.014052
     5  C    0.262262  -0.037951  -0.064644  -0.057970   5.029789  -0.018353
     6  C   -0.018644   0.270212  -0.027245   0.014052  -0.018353   5.008896
     7  H   -0.027842   0.397365   0.002019  -0.015448   0.011945  -0.019563
     8  H   -0.020525   0.355549   0.011088  -0.002904   0.001235  -0.042596
     9  H   -0.022373   0.014173   0.006628   0.393428  -0.014652  -0.000178
    10  H   -0.026549  -0.012384   0.006338   0.397532   0.013916  -0.001284
    11  H   -0.026822   0.005798   0.012834   0.336497  -0.001721  -0.002698
    12  H   -0.025400  -0.015994   0.003930   0.012511   0.406039   0.000859
    13  H   -0.023552   0.014207   0.005297  -0.015927   0.397589  -0.000093
    14  H   -0.020740  -0.004085   0.013787  -0.001422   0.341385   0.006022
    15  H   -0.003519  -0.052238   0.037758   0.002078  -0.001168   0.393964
    16  H   -0.004479  -0.045724  -0.000543  -0.000759   0.004975   0.409027
    17  H    0.005648  -0.039196   0.001866   0.000265  -0.000691   0.396043
               7          8          9         10         11         12
     1  N   -0.027842  -0.020525  -0.022373  -0.026549  -0.026822  -0.025400
     2  C    0.397365   0.355549   0.014173  -0.012384   0.005798  -0.015994
     3  O    0.002019   0.011088   0.006628   0.006338   0.012834   0.003930
     4  C   -0.015448  -0.002904   0.393428   0.397532   0.336497   0.012511
     5  C    0.011945   0.001235  -0.014652   0.013916  -0.001721   0.406039
     6  C   -0.019563  -0.042596  -0.000178  -0.001284  -0.002698   0.000859
     7  H    0.577285  -0.032508  -0.000177   0.006696   0.000808  -0.000447
     8  H   -0.032508   0.643441  -0.001863   0.002723  -0.002398   0.002026
     9  H   -0.000177  -0.001863   0.526248  -0.016323  -0.026261  -0.000310
    10  H    0.006696   0.002723  -0.016323   0.525117  -0.026295  -0.000346
    11  H    0.000808  -0.002398  -0.026261  -0.026295   0.633971  -0.001425
    12  H   -0.000447   0.002026  -0.000310  -0.000346  -0.001425   0.516692
    13  H   -0.000374  -0.001394   0.005901  -0.000358   0.002508  -0.015853
    14  H   -0.001123  -0.009098   0.002773  -0.001923  -0.006923  -0.027471
    15  H   -0.002605   0.010410  -0.000240   0.000356  -0.000513   0.002641
    16  H    0.006909  -0.005159  -0.000009   0.000069   0.000057  -0.002314
    17  H   -0.009148  -0.000182   0.000008  -0.000094  -0.000199   0.000577
              13         14         15         16         17
     1  N   -0.023552  -0.020740  -0.003519  -0.004479   0.005648
     2  C    0.014207  -0.004085  -0.052238  -0.045724  -0.039196
     3  O    0.005297   0.013787   0.037758  -0.000543   0.001866
     4  C   -0.015927  -0.001422   0.002078  -0.000759   0.000265
     5  C    0.397589   0.341385  -0.001168   0.004975  -0.000691
     6  C   -0.000093   0.006022   0.393964   0.409027   0.396043
     7  H   -0.000374  -0.001123  -0.002605   0.006909  -0.009148
     8  H   -0.001394  -0.009098   0.010410  -0.005159  -0.000182
     9  H    0.005901   0.002773  -0.000240  -0.000009   0.000008
    10  H   -0.000358  -0.001923   0.000356   0.000069  -0.000094
    11  H    0.002508  -0.006923  -0.000513   0.000057  -0.000199
    12  H   -0.015853  -0.027471   0.002641  -0.002314   0.000577
    13  H    0.525542  -0.026510  -0.000761   0.000060  -0.000018
    14  H   -0.026510   0.632250  -0.000476  -0.001868   0.000183
    15  H   -0.000761  -0.000476   0.495614  -0.022050  -0.016234
    16  H    0.000060  -0.001868  -0.022050   0.587508  -0.029108
    17  H   -0.000018   0.000183  -0.016234  -0.029108   0.578431
 Mulliken charges:
               1
     1  N    0.270534
     2  C   -0.083315
     3  O   -0.627480
     4  C   -0.242018
     5  C   -0.271986
     6  C   -0.368421
     7  H    0.106209
     8  H    0.092156
     9  H    0.133227
    10  H    0.132808
    11  H    0.102783
    12  H    0.144284
    13  H    0.133736
    14  H    0.105239
    15  H    0.156984
    16  H    0.103410
    17  H    0.111850
 Sum of Mulliken charges =  -0.00000
 Mulliken charges with hydrogens summed into heavy atoms:
               1
     1  N    0.270534
     2  C    0.115049
     3  O   -0.627480
     4  C    0.126800
     5  C    0.111274
     6  C    0.003822
 Electronic spatial extent (au):  <R**2>=            649.5541
 Charge=             -0.0000 electrons
 Dipole moment (field-independent basis, Debye):
    X=             -4.1563    Y=             -0.0493    Z=              1.6778  Tot=              4.4825
 Quadrupole moment (field-independent basis, Debye-Ang):
   XX=            -43.7895   YY=            -36.7439   ZZ=            -37.5331
   XY=             -0.0845   XZ=              3.1646   YZ=              0.0670
 Traceless Quadrupole moment (field-independent basis, Debye-Ang):
   XX=             -4.4340   YY=              2.6116   ZZ=              1.8224
   XY=             -0.0845   XZ=              3.1646   YZ=              0.0670
 Octapole moment (field-independent basis, Debye-Ang**2):
  XXX=            -13.8648  YYY=             24.5630  ZZZ=            -45.9944  XYY=             -2.6402
  XXY=              7.5993  XXZ=            -12.2440  XZZ=             -2.7742  YZZ=              8.7733
  YYZ=            -16.6224  XYZ=              0.1329
 Hexadecapole moment (field-independent basis, Debye-Ang**3):
 XXXX=           -211.0843 YYYY=           -264.0530 ZZZZ=           -387.8405 XXXY=             19.8729
 XXXZ=            -43.7113 YYYX=             23.1079 YYYZ=             55.2938 ZZZX=            -36.5452
 ZZZY=             55.6411 XXYY=            -82.1394 XXZZ=           -103.4998 YYZZ=           -114.0922
 XXYZ=             17.9128 YYXZ=            -13.3467 ZZXY=              7.7611
 N-N= 2.748054052358D+02 E-N=-1.223178123060D+03  KE= 2.875844760081D+02
 1\1\GINC-BHC0021\SP\RB3LYP\def2TZVP\C4H11N1O1\DHANAWAY\10-Jun-2022\0\\
 # sp B3LYP/Def2TZVP NoSymm\\int_initalOpt_zmat_AlignedSp\\0,1\N\C,1,1.
 52387276\O,1,1.35902239,2,110.53467215\C,1,1.497488,2,108.0255359,3,-1
 19.52251189,0\C,1,1.4991802,2,110.52817452,3,121.61105846,0\C,2,1.5140
 9213,1,112.74231861,3,-55.45287196,0\H,2,1.08847311,1,103.97532594,6,1
 19.25898976,0\H,2,1.09335457,1,108.37418979,6,-124.88503697,0\H,4,1.08
 606805,1,107.0063007,2,179.13547068,0\H,4,1.08589444,1,107.00844397,9,
 -117.07521601,0\H,4,1.09220162,1,111.39844539,9,121.46539599,0\H,5,1.0
 8437362,1,107.59121306,2,-65.00845016,0\H,5,1.08591968,1,106.74390927,
 12,-116.95438107,0\H,5,1.09202387,1,111.36878743,12,121.87148956,0\H,6
 ,1.08893072,2,109.05886512,1,48.28613409,0\H,6,1.09074775,2,112.666115
 87,15,-121.58873333,0\H,6,1.09125205,2,109.08598447,15,119.06537131,0\
 \Version=ES64L-G16RevA.03\HF=-289.0550595\RMSD=2.060e-09\Dipole=-1.635
 2199,-0.019397,0.6601125\Quadrupole=-3.296594,1.9416878,1.3549062,-0.0
 628493,2.3528345,0.049839\PG=C01 [X(C4H11N1O1)]\\@


 KNOWING HOW CONTENTED, FREE, AND JOYFUL IS LIFE IN
 THE REALMS OF SCIENCE, ONE FERVENTLY WISHES THAT
 MANY WOULD ENTER HER PORTALS.
   --  DMITRI IVANOVICH MENDELEEV
 "FIRST PRINCIPLES OF CHEMISTRY", LONGMANS, GREEN,
 AND CO.  LONDON, 1891
 Job cpu time:       0 days  0 hours  7 minutes 13.6 seconds.
 Elapsed time:       0 days  0 hours  0 minutes 36.4 seconds.
 File lengths (MBytes):  RWF=     40 Int=      0 D2E=      0 Chk=     32 Scr=      1
 Normal termination of Gaussian 16 at Fri Jun 10 10:59:41 2022.
