 Entering Gaussian System, Link 0=g16
 Input=ts.gjf
 Output=ts.out
 Initial command:
 /software/gaussian/g16-a03/l1.exe "/local_scratch/11176880/Gau-24834.inp" -scrdir="/local_scratch/11176880/"
 Entering Link 1 = /software/gaussian/g16-a03/l1.exe PID=     24835.
  
 Copyright (c) 1988,1990,1992,1993,1995,1998,2003,2009,2016,
            Gaussian, Inc.  All Rights Reserved.
  
 This is part of the Gaussian(R) 16 program.  It is based on
 the Gaussian(R) 09 system (copyright 2009, Gaussian, Inc.),
 the Gaussian(R) 03 system (copyright 2003, Gaussian, Inc.),
 the Gaussian(R) 98 system (copyright 1998, Gaussian, Inc.),
 the Gaussian(R) 94 system (copyright 1995, Gaussian, Inc.),
 the Gaussian 92(TM) system (copyright 1992, Gaussian, Inc.),
 the Gaussian 90(TM) system (copyright 1990, Gaussian, Inc.),
 the Gaussian 88(TM) system (copyright 1988, Gaussian, Inc.),
 the Gaussian 86(TM) system (copyright 1986, Carnegie Mellon
 University), and the Gaussian 82(TM) system (copyright 1983,
 Carnegie Mellon University). Gaussian is a federally registered
 trademark of Gaussian, Inc.
  
 This software contains proprietary and confidential information,
 including trade secrets, belonging to Gaussian, Inc.
  
 This software is provided under written license and may be
 used, copied, transmitted, or stored only in accord with that
 written license.
  
 The following legend is applicable only to US Government
 contracts under FAR:
  
                    RESTRICTED RIGHTS LEGEND
  
 Use, reproduction and disclosure by the US Government is
 subject to restrictions as set forth in subparagraphs (a)
 and (c) of the Commercial Computer Software - Restricted
 Rights clause in FAR 52.227-19.
  
 Gaussian, Inc.
 340 Quinnipiac St., Bldg. 40, Wallingford CT 06492
  
  
 ---------------------------------------------------------------
 Warning -- This program may not be used in any manner that
 competes with the business of Gaussian, Inc. or will provide
 assistance to any competitor of Gaussian, Inc.  The licensee
 of this program is prohibited from giving any competitor of
 Gaussian, Inc. access to this program.  By using this program,
 the user acknowledges that Gaussian, Inc. is engaged in the
 business of creating and licensing software in the field of
 computational chemistry and represents and warrants to the
 licensee that it is not a competitor of Gaussian, Inc. and that
 it will not use this program in any manner prohibited above.
 ---------------------------------------------------------------
  

 Cite this work as:
 Gaussian 16, Revision A.03,
 M. J. Frisch, G. W. Trucks, H. B. Schlegel, G. E. Scuseria, 
 M. A. Robb, J. R. Cheeseman, G. Scalmani, V. Barone, 
 G. A. Petersson, H. Nakatsuji, X. Li, M. Caricato, A. V. Marenich, 
 J. Bloino, B. G. Janesko, R. Gomperts, B. Mennucci, H. P. Hratchian, 
 J. V. Ortiz, A. F. Izmaylov, J. L. Sonnenberg, D. Williams-Young, 
 F. Ding, F. Lipparini, F. Egidi, J. Goings, B. Peng, A. Petrone, 
 T. Henderson, D. Ranasinghe, V. G. Zakrzewski, J. Gao, N. Rega, 
 G. Zheng, W. Liang, M. Hada, M. Ehara, K. Toyota, R. Fukuda, 
 J. Hasegawa, M. Ishida, T. Nakajima, Y. Honda, O. Kitao, H. Nakai, 
 T. Vreven, K. Throssell, J. A. Montgomery, Jr., J. E. Peralta, 
 F. Ogliaro, M. J. Bearpark, J. J. Heyd, E. N. Brothers, K. N. Kudin, 
 V. N. Staroverov, T. A. Keith, R. Kobayashi, J. Normand, 
 K. Raghavachari, A. P. Rendell, J. C. Burant, S. S. Iyengar, 
 J. Tomasi, M. Cossi, J. M. Millam, M. Klene, C. Adamo, R. Cammi, 
 J. W. Ochterski, R. L. Martin, K. Morokuma, O. Farkas, 
 J. B. Foresman, and D. J. Fox, Gaussian, Inc., Wallingford CT, 2016.
 
 ******************************************
 Gaussian 16:  ES64L-G16RevA.03 25-Dec-2016
                11-Jun-2022 
 ******************************************
 %nprocshared=12
 Will use up to   12 processors via shared memory.
 %chk=checkpoint.chk
 %mem=12GB
 --------------------------------------------------------------------
 # Opt=(TS, CalcFC, noeigentest) B3LYP/Def2TZVP freq=noraman pop=none
 --------------------------------------------------------------------
 1/5=1,10=4,11=1,18=20,26=3,38=1/1,3;
 2/9=110,12=2,17=6,18=5,40=1/2;
 3/5=44,7=101,11=2,25=1,30=1,71=2,74=-5,140=1/1,2,3;
 4//1;
 5/5=2,38=5/2;
 8/6=4,10=90,11=11/1;
 11/6=1,8=1,9=11,15=111,16=1/1,2,10;
 10/6=1,13=1/2;
 7/10=1,18=20,25=1/1,2,3,16;
 1/5=1,10=4,11=1,18=20,26=3/3(2);
 2/9=110/2;
 99//99;
 2/9=110/2;
 3/5=44,7=101,11=2,25=1,30=1,71=1,74=-5/1,2,3;
 4/5=5,16=3,69=1/1;
 5/5=2,38=5/2;
 7//1,2,3,16;
 1/5=1,11=1,18=20,26=3/3(-5);
 2/9=110/2;
 99/9=1/99;
 ------------
 ts_initalOpt
 ------------
 Symbolic Z-matrix:
 Charge =  0 Multiplicity = 1
 6                    -1.08026  -0.25622   0.69946 
 6                    -0.03119   1.60839   1.15103 
 6                     1.26032   1.30726  -0.69584 
 6                     1.26032   1.30726   0.69584 
 1                     2.08376   0.9971   -1.32235 
 1                     2.08376   0.9971    1.32235 
 6                    -0.75164   2.26098   0. 
 1                    -1.83546   2.17468   0. 
 1                    -0.49885   3.33013   0. 
 1                    -0.28159   1.7782   -2.18839 
 1                    -0.28159   1.7782    2.18839 
 8                     0.15445  -1.68308  -2.23096 
 8                     0.15445  -1.68308   2.23096 
 6                    -0.11451  -1.28138  -1.14021 
 6                    -0.11451  -1.28138   1.14021 
 1                    -1.91303  -0.00868  -1.33782 
 6                    -0.03119   1.60839  -1.15103 
 6                    -1.08026  -0.25622  -0.69946 
 1                    -1.91303  -0.00868   1.33782 
 8                     0.52278  -1.7764    0. 
 
 Add virtual bond connecting atoms C2         and C1         Dist= 4.13D+00.
 Add virtual bond connecting atoms C17        and C18        Dist= 4.13D+00.

 GradGradGradGradGradGradGradGradGradGradGradGradGradGradGradGradGradGrad
 Berny optimization.
 Initialization pass.
                           ----------------------------
                           !    Initial Parameters    !
                           ! (Angstroms and Degrees)  !
 --------------------------                            --------------------------
 ! Name  Definition              Value          Derivative Info.                !
 --------------------------------------------------------------------------------
 ! R1    R(1,2)                  2.1866         calculate D2E/DX2 analytically  !
 ! R2    R(1,15)                 1.4758         calculate D2E/DX2 analytically  !
 ! R3    R(1,18)                 1.3989         calculate D2E/DX2 analytically  !
 ! R4    R(1,19)                 1.0781         calculate D2E/DX2 analytically  !
 ! R5    R(2,4)                  1.4021         calculate D2E/DX2 analytically  !
 ! R6    R(2,7)                  1.5066         calculate D2E/DX2 analytically  !
 ! R7    R(2,11)                 1.0806         calculate D2E/DX2 analytically  !
 ! R8    R(3,4)                  1.3917         calculate D2E/DX2 analytically  !
 ! R9    R(3,5)                  1.0802         calculate D2E/DX2 analytically  !
 ! R10   R(3,17)                 1.4021         calculate D2E/DX2 analytically  !
 ! R11   R(4,6)                  1.0802         calculate D2E/DX2 analytically  !
 ! R12   R(7,8)                  1.0873         calculate D2E/DX2 analytically  !
 ! R13   R(7,9)                  1.0986         calculate D2E/DX2 analytically  !
 ! R14   R(7,17)                 1.5066         calculate D2E/DX2 analytically  !
 ! R15   R(10,17)                1.0806         calculate D2E/DX2 analytically  !
 ! R16   R(12,14)                1.1931         calculate D2E/DX2 analytically  !
 ! R17   R(13,15)                1.1931         calculate D2E/DX2 analytically  !
 ! R18   R(14,18)                1.4758         calculate D2E/DX2 analytically  !
 ! R19   R(14,20)                1.3969         calculate D2E/DX2 analytically  !
 ! R20   R(15,20)                1.3969         calculate D2E/DX2 analytically  !
 ! R21   R(16,18)                1.0781         calculate D2E/DX2 analytically  !
 ! R22   R(17,18)                2.1866         calculate D2E/DX2 analytically  !
 ! A1    A(2,1,15)             102.5169         calculate D2E/DX2 analytically  !
 ! A2    A(2,1,18)             101.9184         calculate D2E/DX2 analytically  !
 ! A3    A(2,1,19)              93.0104         calculate D2E/DX2 analytically  !
 ! A4    A(15,1,18)            107.3771         calculate D2E/DX2 analytically  !
 ! A5    A(15,1,19)            119.2195         calculate D2E/DX2 analytically  !
 ! A6    A(18,1,19)            126.3071         calculate D2E/DX2 analytically  !
 ! A7    A(1,2,4)              101.0543         calculate D2E/DX2 analytically  !
 ! A8    A(1,2,7)               88.9784         calculate D2E/DX2 analytically  !
 ! A9    A(1,2,11)             102.7731         calculate D2E/DX2 analytically  !
 ! A10   A(4,2,7)              106.5877         calculate D2E/DX2 analytically  !
 ! A11   A(4,2,11)             123.9771         calculate D2E/DX2 analytically  !
 ! A12   A(7,2,11)             123.6806         calculate D2E/DX2 analytically  !
 ! A13   A(4,3,5)              125.4512         calculate D2E/DX2 analytically  !
 ! A14   A(4,3,17)             108.9443         calculate D2E/DX2 analytically  !
 ! A15   A(5,3,17)             125.1395         calculate D2E/DX2 analytically  !
 ! A16   A(2,4,3)              108.9443         calculate D2E/DX2 analytically  !
 ! A17   A(2,4,6)              125.1395         calculate D2E/DX2 analytically  !
 ! A18   A(3,4,6)              125.4512         calculate D2E/DX2 analytically  !
 ! A19   A(2,7,8)              116.2513         calculate D2E/DX2 analytically  !
 ! A20   A(2,7,9)              108.1499         calculate D2E/DX2 analytically  !
 ! A21   A(2,7,17)              99.6363         calculate D2E/DX2 analytically  !
 ! A22   A(8,7,9)              107.8554         calculate D2E/DX2 analytically  !
 ! A23   A(8,7,17)             116.2513         calculate D2E/DX2 analytically  !
 ! A24   A(9,7,17)             108.1499         calculate D2E/DX2 analytically  !
 ! A25   A(12,14,18)           130.8788         calculate D2E/DX2 analytically  !
 ! A26   A(12,14,20)           121.606          calculate D2E/DX2 analytically  !
 ! A27   A(18,14,20)           107.5145         calculate D2E/DX2 analytically  !
 ! A28   A(1,15,13)            130.8788         calculate D2E/DX2 analytically  !
 ! A29   A(1,15,20)            107.5145         calculate D2E/DX2 analytically  !
 ! A30   A(13,15,20)           121.606          calculate D2E/DX2 analytically  !
 ! A31   A(3,17,7)             106.5877         calculate D2E/DX2 analytically  !
 ! A32   A(3,17,10)            123.9771         calculate D2E/DX2 analytically  !
 ! A33   A(3,17,18)            101.0543         calculate D2E/DX2 analytically  !
 ! A34   A(7,17,10)            123.6806         calculate D2E/DX2 analytically  !
 ! A35   A(7,17,18)             88.9784         calculate D2E/DX2 analytically  !
 ! A36   A(10,17,18)           102.7731         calculate D2E/DX2 analytically  !
 ! A37   A(1,18,14)            107.3771         calculate D2E/DX2 analytically  !
 ! A38   A(1,18,16)            126.3071         calculate D2E/DX2 analytically  !
 ! A39   A(1,18,17)            101.9184         calculate D2E/DX2 analytically  !
 ! A40   A(14,18,16)           119.2195         calculate D2E/DX2 analytically  !
 ! A41   A(14,18,17)           102.5169         calculate D2E/DX2 analytically  !
 ! A42   A(16,18,17)            93.0104         calculate D2E/DX2 analytically  !
 ! A43   A(14,20,15)           109.4233         calculate D2E/DX2 analytically  !
 ! D1    D(15,1,2,4)            43.3621         calculate D2E/DX2 analytically  !
 ! D2    D(15,1,2,7)           150.067          calculate D2E/DX2 analytically  !
 ! D3    D(15,1,2,11)          -85.5527         calculate D2E/DX2 analytically  !
 ! D4    D(18,1,2,4)           -67.7092         calculate D2E/DX2 analytically  !
 ! D5    D(18,1,2,7)            38.9957         calculate D2E/DX2 analytically  !
 ! D6    D(18,1,2,11)          163.376          calculate D2E/DX2 analytically  !
 ! D7    D(19,1,2,4)           164.1865         calculate D2E/DX2 analytically  !
 ! D8    D(19,1,2,7)           -89.1086         calculate D2E/DX2 analytically  !
 ! D9    D(19,1,2,11)           35.2716         calculate D2E/DX2 analytically  !
 ! D10   D(2,1,15,13)           78.1412         calculate D2E/DX2 analytically  !
 ! D11   D(2,1,15,20)         -101.566          calculate D2E/DX2 analytically  !
 ! D12   D(18,1,15,13)        -174.9328         calculate D2E/DX2 analytically  !
 ! D13   D(18,1,15,20)           5.3601         calculate D2E/DX2 analytically  !
 ! D14   D(19,1,15,13)         -22.5672         calculate D2E/DX2 analytically  !
 ! D15   D(19,1,15,20)         157.7256         calculate D2E/DX2 analytically  !
 ! D16   D(2,1,18,14)          107.3463         calculate D2E/DX2 analytically  !
 ! D17   D(2,1,18,16)         -102.8083         calculate D2E/DX2 analytically  !
 ! D18   D(2,1,18,17)            0.0            calculate D2E/DX2 analytically  !
 ! D19   D(15,1,18,14)           0.0            calculate D2E/DX2 analytically  !
 ! D20   D(15,1,18,16)         149.8454         calculate D2E/DX2 analytically  !
 ! D21   D(15,1,18,17)        -107.3463         calculate D2E/DX2 analytically  !
 ! D22   D(19,1,18,14)        -149.8454         calculate D2E/DX2 analytically  !
 ! D23   D(19,1,18,16)           0.0            calculate D2E/DX2 analytically  !
 ! D24   D(19,1,18,17)         102.8083         calculate D2E/DX2 analytically  !
 ! D25   D(1,2,4,3)             73.1703         calculate D2E/DX2 analytically  !
 ! D26   D(1,2,4,6)            -99.3437         calculate D2E/DX2 analytically  !
 ! D27   D(7,2,4,3)            -19.0785         calculate D2E/DX2 analytically  !
 ! D28   D(7,2,4,6)            168.4075         calculate D2E/DX2 analytically  !
 ! D29   D(11,2,4,3)          -173.0443         calculate D2E/DX2 analytically  !
 ! D30   D(11,2,4,6)            14.4418         calculate D2E/DX2 analytically  !
 ! D31   D(1,2,7,8)             53.1283         calculate D2E/DX2 analytically  !
 ! D32   D(1,2,7,9)            174.5577         calculate D2E/DX2 analytically  !
 ! D33   D(1,2,7,17)           -72.6018         calculate D2E/DX2 analytically  !
 ! D34   D(4,2,7,8)            154.3604         calculate D2E/DX2 analytically  !
 ! D35   D(4,2,7,9)            -84.2102         calculate D2E/DX2 analytically  !
 ! D36   D(4,2,7,17)            28.6303         calculate D2E/DX2 analytically  !
 ! D37   D(11,2,7,8)           -51.577          calculate D2E/DX2 analytically  !
 ! D38   D(11,2,7,9)            69.8524         calculate D2E/DX2 analytically  !
 ! D39   D(11,2,7,17)         -177.3071         calculate D2E/DX2 analytically  !
 ! D40   D(5,3,4,2)           -172.4849         calculate D2E/DX2 analytically  !
 ! D41   D(5,3,4,6)              0.0            calculate D2E/DX2 analytically  !
 ! D42   D(17,3,4,2)             0.0            calculate D2E/DX2 analytically  !
 ! D43   D(17,3,4,6)           172.4849         calculate D2E/DX2 analytically  !
 ! D44   D(4,3,17,7)            19.0785         calculate D2E/DX2 analytically  !
 ! D45   D(4,3,17,10)          173.0443         calculate D2E/DX2 analytically  !
 ! D46   D(4,3,17,18)          -73.1703         calculate D2E/DX2 analytically  !
 ! D47   D(5,3,17,7)          -168.4075         calculate D2E/DX2 analytically  !
 ! D48   D(5,3,17,10)          -14.4418         calculate D2E/DX2 analytically  !
 ! D49   D(5,3,17,18)           99.3437         calculate D2E/DX2 analytically  !
 ! D50   D(2,7,17,3)           -28.6303         calculate D2E/DX2 analytically  !
 ! D51   D(2,7,17,10)          177.3071         calculate D2E/DX2 analytically  !
 ! D52   D(2,7,17,18)           72.6018         calculate D2E/DX2 analytically  !
 ! D53   D(8,7,17,3)          -154.3604         calculate D2E/DX2 analytically  !
 ! D54   D(8,7,17,10)           51.577          calculate D2E/DX2 analytically  !
 ! D55   D(8,7,17,18)          -53.1283         calculate D2E/DX2 analytically  !
 ! D56   D(9,7,17,3)            84.2102         calculate D2E/DX2 analytically  !
 ! D57   D(9,7,17,10)          -69.8524         calculate D2E/DX2 analytically  !
 ! D58   D(9,7,17,18)         -174.5577         calculate D2E/DX2 analytically  !
 ! D59   D(12,14,18,1)         174.9328         calculate D2E/DX2 analytically  !
 ! D60   D(12,14,18,16)         22.5672         calculate D2E/DX2 analytically  !
 ! D61   D(12,14,18,17)        -78.1412         calculate D2E/DX2 analytically  !
 ! D62   D(20,14,18,1)          -5.3601         calculate D2E/DX2 analytically  !
 ! D63   D(20,14,18,16)       -157.7256         calculate D2E/DX2 analytically  !
 ! D64   D(20,14,18,17)        101.566          calculate D2E/DX2 analytically  !
 ! D65   D(12,14,20,15)       -171.3825         calculate D2E/DX2 analytically  !
 ! D66   D(18,14,20,15)          8.8775         calculate D2E/DX2 analytically  !
 ! D67   D(1,15,20,14)          -8.8775         calculate D2E/DX2 analytically  !
 ! D68   D(13,15,20,14)        171.3825         calculate D2E/DX2 analytically  !
 ! D69   D(3,17,18,1)           67.7092         calculate D2E/DX2 analytically  !
 ! D70   D(3,17,18,14)         -43.3621         calculate D2E/DX2 analytically  !
 ! D71   D(3,17,18,16)        -164.1865         calculate D2E/DX2 analytically  !
 ! D72   D(7,17,18,1)          -38.9957         calculate D2E/DX2 analytically  !
 ! D73   D(7,17,18,14)        -150.067          calculate D2E/DX2 analytically  !
 ! D74   D(7,17,18,16)          89.1086         calculate D2E/DX2 analytically  !
 ! D75   D(10,17,18,1)        -163.376          calculate D2E/DX2 analytically  !
 ! D76   D(10,17,18,14)         85.5527         calculate D2E/DX2 analytically  !
 ! D77   D(10,17,18,16)        -35.2716         calculate D2E/DX2 analytically  !
 --------------------------------------------------------------------------------
 Trust Radius=3.00D-01 FncErr=1.00D-07 GrdErr=1.00D-06 EigMax=2.50D+02 EigMin=1.00D-04
 Number of steps in this run=    120 maximum allowed number of steps=    120.
 Search for a saddle point of order  1.
 GradGradGradGradGradGradGradGradGradGradGradGradGradGradGradGradGradGrad

                          Input orientation:                          
 ---------------------------------------------------------------------
 Center     Atomic      Atomic             Coordinates (Angstroms)
 Number     Number       Type             X           Y           Z
 ---------------------------------------------------------------------
      1          6           0       -1.080256   -0.256222    0.699459
      2          6           0       -0.031193    1.608388    1.151031
      3          6           0        1.260323    1.307257   -0.695841
      4          6           0        1.260323    1.307257    0.695841
      5          1           0        2.083760    0.997095   -1.322348
      6          1           0        2.083760    0.997095    1.322348
      7          6           0       -0.751641    2.260981    0.000000
      8          1           0       -1.835463    2.174682    0.000000
      9          1           0       -0.498847    3.330134    0.000000
     10          1           0       -0.281589    1.778199   -2.188392
     11          1           0       -0.281589    1.778199    2.188392
     12          8           0        0.154454   -1.683084   -2.230963
     13          8           0        0.154454   -1.683084    2.230963
     14          6           0       -0.114512   -1.281375   -1.140209
     15          6           0       -0.114512   -1.281375    1.140209
     16          1           0       -1.913033   -0.008679   -1.337815
     17          6           0       -0.031193    1.608388   -1.151031
     18          6           0       -1.080256   -0.256222   -0.699459
     19          1           0       -1.913033   -0.008679    1.337815
     20          8           0        0.522783   -1.776397    0.000000
 ---------------------------------------------------------------------
                    Distance matrix (angstroms):
                    1          2          3          4          5
     1  C    0.000000
     2  C    2.186600   0.000000
     3  C    3.141598   2.273682   0.000000
     4  C    2.814745   1.402102   1.391682   0.000000
     5  H    3.958472   3.311240   1.080167   2.201667   0.000000
     6  H    3.459739   2.208179   2.201667   1.080167   2.644696
     7  C    2.633162   1.506584   2.332763   2.332763   3.374242
     8  H    2.639863   2.213809   3.289455   3.289455   4.300654
     9  H    3.699896   2.123201   2.769640   2.769640   3.723108
    10  H    3.621660   3.353100   2.197041   3.304252   2.637239
    11  H    2.644553   1.080579   3.304252   2.197041   4.304683
    12  O    3.485372   4.722937   3.538599   4.327963   3.425078
    13  O    2.430216   3.469079   4.327963   3.538599   4.850938
    14  C    2.316890   3.688828   2.964566   3.458651   3.171277
    15  C    1.475758   2.890984   3.458651   2.964566   4.010986
    16  H    2.214787   3.514339   3.494854   3.992196   4.121429
    17  C    2.828713   2.302062   1.402102   2.273682   2.208179
    18  C    1.398918   2.828713   2.814745   3.141598   3.459739
    19  H    1.078097   2.488195   3.992196   3.494854   4.905344
    20  O    2.317306   3.617808   3.246087   3.246087   3.446377
                    6          7          8          9         10
     6  H    0.000000
     7  C    3.374242   0.000000
     8  H    4.300654   1.087252   0.000000
     9  H    3.723108   1.098632   1.766808   0.000000
    10  H    4.304683   2.289779   2.713076   2.691610   0.000000
    11  H    2.637239   2.289779   2.713076   2.691610   4.376784
    12  O    4.850938   4.621023   4.880504   5.525971   3.488900
    13  O    3.425078   4.621023   4.880504   5.525971   5.630392
    14  C    4.010986   3.775486   4.025677   4.765900   3.238456
    15  C    3.171277   3.775486   4.025677   4.765900   4.524212
    16  H    4.905344   2.879225   2.561802   3.864886   2.564766
    17  C    3.311240   1.506584   2.213809   2.123201   1.080579
    18  C    3.958472   2.633162   2.639863   3.699896   2.644553
    19  H    4.121429   2.879225   2.561802   3.864886   4.276526
    20  O    3.446377   4.233743   4.601342   5.207724   4.251027
                   11         12         13         14         15
    11  H    0.000000
    12  O    5.630392   0.000000
    13  O    3.488900   4.461926   0.000000
    14  C    4.524212   1.193087   3.405659   0.000000
    15  C    3.238456   3.405659   1.193087   2.280418   0.000000
    16  H    4.276526   2.806394   4.451327   2.212121   3.315876
    17  C    3.353100   3.469079   4.722937   2.890984   3.688828
    18  C    3.621660   2.430216   3.485372   1.475758   2.316890
    19  H    2.564766   4.451327   2.806394   3.315876   2.212121
    20  O    4.251027   2.263088   2.263088   1.396878   1.396878
                   16         17         18         19         20
    16  H    0.000000
    17  C    2.488195   0.000000
    18  C    1.078097   2.186600   0.000000
    19  H    2.675630   3.514339   2.214787   0.000000
    20  O    3.293596   3.617808   2.317306   3.293596   0.000000
 Stoichiometry    C9H8O3
 Framework group  CS[SG(CH2O),X(C8H6O2)]
 Deg. of freedom    29
 Full point group                 CS      NOp   2
 Largest Abelian subgroup         CS      NOp   2
 Largest concise Abelian subgroup CS      NOp   2
                         Standard orientation:                         
 ---------------------------------------------------------------------
 Center     Atomic      Atomic             Coordinates (Angstroms)
 Number     Number       Type             X           Y           Z
 ---------------------------------------------------------------------
      1          6           0       -1.080256   -0.256222    0.699459
      2          6           0       -0.031193    1.608388    1.151031
      3          6           0        1.260323    1.307257   -0.695841
      4          6           0        1.260323    1.307257    0.695841
      5          1           0        2.083760    0.997095   -1.322348
      6          1           0        2.083760    0.997095    1.322348
      7          6           0       -0.751641    2.260981    0.000000
      8          1           0       -1.835463    2.174682    0.000000
      9          1           0       -0.498847    3.330134    0.000000
     10          1           0       -0.281589    1.778199   -2.188392
     11          1           0       -0.281589    1.778199    2.188392
     12          8           0        0.154454   -1.683084   -2.230963
     13          8           0        0.154454   -1.683084    2.230963
     14          6           0       -0.114512   -1.281375   -1.140209
     15          6           0       -0.114512   -1.281375    1.140209
     16          1           0       -1.913033   -0.008679   -1.337815
     17          6           0       -0.031193    1.608388   -1.151031
     18          6           0       -1.080256   -0.256222   -0.699459
     19          1           0       -1.913033   -0.008679    1.337815
     20          8           0        0.522783   -1.776397   -0.000000
 ---------------------------------------------------------------------
 Rotational constants (GHZ):           1.4014272           1.0789735           0.7990138
 Standard basis: def2TZVP (5D, 7F)
 There are   258 symmetry adapted cartesian basis functions of A'  symmetry.
 There are   222 symmetry adapted cartesian basis functions of A"  symmetry.
 There are   225 symmetry adapted basis functions of A'  symmetry.
 There are   195 symmetry adapted basis functions of A"  symmetry.
   420 basis functions,   676 primitive gaussians,   480 cartesian basis functions
    43 alpha electrons       43 beta electrons
       nuclear repulsion energy       708.6752207395 Hartrees.
 NAtoms=   20 NActive=   20 NUniq=   12 SFac= 2.78D+00 NAtFMM=   60 NAOKFM=F Big=F
 Integral buffers will be    131072 words long.
 Raffenetti 2 integral format.
 Two-electron integral symmetry is turned on.
 One-electron integrals computed using PRISM.
   2 Symmetry operations used in ECPInt.
 ECPInt:  NShTT=   13530 NPrTT=   41904 LenC2=   13163 LenP2D=   31870.
 LDataN:  DoStor=T MaxTD1= 6 Len=  172
 NBasis=   420 RedAO= T EigKep=  2.05D-05  NBF=   225   195
 NBsUse=   420 1.00D-06 EigRej= -1.00D+00 NBFU=   225   195
 ExpMin= 9.52D-02 ExpMax= 2.70D+04 ExpMxC= 9.22D+02 IAcc=3 IRadAn=         5 AccDes= 0.00D+00
 Harris functional with IExCor=  402 and IRadAn=       5 diagonalized for initial guess.
 HarFok:  IExCor=  402 AccDes= 0.00D+00 IRadAn=         5 IDoV= 1 UseB2=F ITyADJ=14
 ICtDFT=  3500011 ScaDFX=  1.000000  1.000000  1.000000  1.000000
 FoFCou: FMM=F IPFlag=           0 FMFlag=      100000 FMFlg1=           0
         NFxFlg=           0 DoJE=T BraDBF=F KetDBF=T FulRan=T
         wScrn=  0.000000 ICntrl=       500 IOpCl=  0 I1Cent=   200000004 NGrid=           0
         NMat0=    1 NMatS0=      1 NMatT0=    0 NMatD0=    1 NMtDS0=    0 NMtDT0=    0
 Petite list used in FoFCou.
 Initial guess orbital symmetries:
       Occupied  (A") (A') (A') (A') (A') (A") (A') (A") (A") (A')
                 (A") (A') (A') (A") (A') (A') (A') (A') (A") (A")
                 (A') (A") (A') (A") (A') (A') (A') (A") (A') (A')
                 (A") (A') (A") (A') (A") (A") (A') (A') (A') (A')
                 (A") (A') (A")
       Virtual   (A") (A') (A") (A') (A') (A") (A') (A") (A') (A')
                 (A') (A") (A") (A') (A") (A') (A") (A') (A") (A')
                 (A') (A") (A') (A') (A") (A') (A') (A') (A") (A")
                 (A') (A") (A') (A") (A') (A") (A") (A') (A") (A')
                 (A') (A") (A") (A') (A') (A") (A") (A') (A') (A')
                 (A") (A") (A') (A') (A') (A') (A") (A') (A") (A')
                 (A") (A") (A") (A') (A') (A") (A') (A") (A") (A")
                 (A') (A') (A") (A') (A") (A') (A') (A') (A") (A')
                 (A") (A') (A") (A') (A") (A') (A') (A") (A') (A')
                 (A") (A') (A') (A") (A") (A') (A') (A") (A') (A")
                 (A') (A') (A") (A') (A') (A") (A') (A") (A") (A')
                 (A') (A") (A") (A") (A') (A") (A") (A') (A') (A")
                 (A") (A') (A') (A") (A') (A") (A") (A') (A") (A')
                 (A') (A") (A") (A') (A') (A") (A') (A') (A") (A")
                 (A') (A') (A") (A') (A') (A") (A') (A") (A') (A")
                 (A') (A') (A') (A") (A") (A") (A') (A") (A') (A')
                 (A') (A") (A') (A") (A') (A") (A") (A') (A') (A")
                 (A') (A') (A") (A') (A") (A") (A') (A") (A") (A')
                 (A') (A") (A') (A") (A') (A') (A") (A') (A") (A')
                 (A") (A') (A') (A") (A') (A") (A') (A") (A') (A")
                 (A') (A') (A") (A') (A') (A') (A") (A") (A') (A")
                 (A') (A") (A') (A") (A') (A') (A') (A") (A') (A")
                 (A') (A") (A") (A') (A") (A') (A") (A') (A") (A')
                 (A') (A') (A") (A") (A") (A') (A') (A') (A") (A")
                 (A') (A") (A') (A') (A") (A") (A') (A') (A") (A")
                 (A") (A') (A') (A") (A') (A") (A') (A") (A') (A")
                 (A") (A') (A') (A") (A") (A') (A') (A") (A') (A")
                 (A") (A') (A') (A") (A') (A") (A') (A") (A') (A")
                 (A') (A") (A') (A") (A') (A") (A') (A') (A') (A")
                 (A') (A') (A") (A') (A") (A") (A") (A') (A') (A')
                 (A") (A') (A") (A") (A') (A") (A') (A") (A') (A")
                 (A") (A') (A") (A') (A") (A') (A") (A') (A') (A")
                 (A') (A') (A") (A") (A") (A") (A") (A") (A') (A")
                 (A') (A") (A") (A') (A") (A') (A') (A") (A') (A")
                 (A') (A") (A') (A") (A') (A") (A") (A') (A') (A')
                 (A") (A") (A') (A') (A') (A') (A") (A") (A") (A')
                 (A") (A') (A") (A") (A') (A') (A') (A') (A") (A')
                 (A") (A") (A') (A") (A') (A") (A')
 The electronic state of the initial guess is 1-A'.
 Requested convergence on RMS density matrix=1.00D-08 within 128 cycles.
 Requested convergence on MAX density matrix=1.00D-06.
 Requested convergence on             energy=1.00D-06.
 No special actions if energy rises.
 Integral accuracy reduced to 1.0D-05 until final iterations.
 Initial convergence to 1.0D-05 achieved.  Increase integral accuracy.
 SCF Done:  E(RB3LYP) =  -573.600468276     A.U. after   15 cycles
            NFock= 15  Conv=0.23D-08     -V/T= 2.0047
 DoSCS=F DFT=T ScalE2(SS,OS)=  1.000000  1.000000
 Range of M.O.s used for correlation:     1   420
 NBasis=   420 NAE=    43 NBE=    43 NFC=     0 NFV=     0
 NROrb=    420 NOA=    43 NOB=    43 NVA=   377 NVB=   377

 **** Warning!!: The largest alpha MO coefficient is  0.45201308D+02

   2 Symmetry operations used in ECPInt.
 ECPInt:  NShTT=   13530 NPrTT=   41904 LenC2=   13163 LenP2D=   31870.
 LDataN:  DoStor=T MaxTD1= 7 Len=  274
 Symmetrizing basis deriv contribution to polar:
 IMax=3 JMax=2 DiffMx= 0.00D+00
 G2DrvN: will do    21 centers at a time, making    1 passes.
 Calling FoFCou, ICntrl=  3107 FMM=F I1Cent=   0 AccDes= 0.00D+00.
 End of G2Drv F.D. properties file   721 does not exist.
 End of G2Drv F.D. properties file   722 does not exist.
 End of G2Drv F.D. properties file   788 does not exist.
          IDoAtm=11111111111111111111
          Differentiating once with respect to nuclear coordinates.
 CalDSu exits because no D1Ps are significant.
          There are    39 degrees of freedom in the 1st order CPHF.  IDoFFX=4 NUNeed=    39.
     36 vectors produced by pass  0 Test12= 4.16D-14 2.56D-09 XBig12= 1.18D-01 1.16D-01.
 AX will form    36 AO Fock derivatives at one time.
     36 vectors produced by pass  1 Test12= 4.16D-14 2.56D-09 XBig12= 2.76D-02 5.66D-02.
     36 vectors produced by pass  2 Test12= 4.16D-14 2.56D-09 XBig12= 1.56D-03 1.02D-02.
     36 vectors produced by pass  3 Test12= 4.16D-14 2.56D-09 XBig12= 2.58D-05 8.21D-04.
     36 vectors produced by pass  4 Test12= 4.16D-14 2.56D-09 XBig12= 2.63D-07 5.19D-05.
     36 vectors produced by pass  5 Test12= 4.16D-14 2.56D-09 XBig12= 1.32D-09 4.84D-06.
     27 vectors produced by pass  6 Test12= 4.16D-14 2.56D-09 XBig12= 4.69D-12 2.30D-07.
      5 vectors produced by pass  7 Test12= 4.16D-14 2.56D-09 XBig12= 1.25D-14 1.34D-08.
 InvSVY:  IOpt=1 It=  1 EMax= 8.88D-16
 Solved reduced A of dimension   248 with    39 vectors.
 End of Minotr F.D. properties file   721 does not exist.
 End of Minotr F.D. properties file   722 does not exist.
 End of Minotr F.D. properties file   788 does not exist.
   2 Symmetry operations used in ECPInt.
 ECPInt:  NShTT=   13530 NPrTT=   41904 LenC2=   13163 LenP2D=   31870.
 LDataN:  DoStor=T MaxTD1= 8 Len=  415
 Calling FoFJK, ICntrl=    100147 FMM=F ISym2X=1 I1Cent= 0 IOpClX= 0 NMat=1 NMatS=1 NMatT=0.
 ***** Axes restored to original set *****
 -------------------------------------------------------------------
 Center     Atomic                   Forces (Hartrees/Bohr)
 Number     Number              X              Y              Z
 -------------------------------------------------------------------
      1        6          -0.000002920    0.000006473    0.000021469
      2        6          -0.000012837   -0.000003885    0.000022052
      3        6           0.000021533   -0.000002703   -0.000031857
      4        6           0.000021533   -0.000002703    0.000031857
      5        1           0.000002394   -0.000000020   -0.000001875
      6        1           0.000002394   -0.000000020    0.000001875
      7        6          -0.000015123    0.000020481    0.000000000
      8        1          -0.000005738   -0.000000419    0.000000000
      9        1          -0.000001099    0.000003023   -0.000000000
     10        1          -0.000001126    0.000001851   -0.000005266
     11        1          -0.000001126    0.000001851    0.000005266
     12        8           0.000009757   -0.000007062   -0.000029456
     13        8           0.000009757   -0.000007062    0.000029456
     14        6          -0.000007455    0.000006234    0.000009436
     15        6          -0.000007455    0.000006234   -0.000009436
     16        1          -0.000005314   -0.000003148   -0.000001371
     17        6          -0.000012837   -0.000003885   -0.000022052
     18        6          -0.000002920    0.000006473   -0.000021469
     19        1          -0.000005314   -0.000003148    0.000001371
     20        8           0.000013896   -0.000018564   -0.000000000
 -------------------------------------------------------------------
 Cartesian Forces:  Max     0.000031857 RMS     0.000012323
 FormGI is forming the generalized inverse of G from B-inverse, IUseBI=4.

 GradGradGradGradGradGradGradGradGradGradGradGradGradGradGradGradGradGrad
 Berny optimization.
 Internal  Forces:  Max     0.000037630 RMS     0.000007624
 Search for a saddle point.
 Step number   1 out of a maximum of  120
 All quantities printed in internal units (Hartrees-Bohrs-Radians)
 Swapping is turned off.
 Second derivative matrix not updated -- analytic derivatives used.
 ITU=  0
     Eigenvalues ---   -0.02481   0.00289   0.00512   0.01011   0.01220
     Eigenvalues ---    0.01247   0.01338   0.01541   0.01550   0.02015
     Eigenvalues ---    0.02404   0.02470   0.02857   0.03439   0.03706
     Eigenvalues ---    0.04014   0.04117   0.04216   0.04292   0.04673
     Eigenvalues ---    0.04740   0.05147   0.05990   0.07129   0.07439
     Eigenvalues ---    0.07849   0.10146   0.10756   0.11940   0.13510
     Eigenvalues ---    0.13709   0.16240   0.17042   0.21460   0.23839
     Eigenvalues ---    0.25150   0.25590   0.27009   0.29051   0.32067
     Eigenvalues ---    0.32907   0.32969   0.33172   0.34530   0.36315
     Eigenvalues ---    0.36359   0.36455   0.36736   0.36764   0.36833
     Eigenvalues ---    0.40633   0.43239   0.89382   0.90546
 Eigenvectors required to have negative eigenvalues:
                          R1        R22       D22       D20       D36
   1                    0.56860   0.56860  -0.14675   0.14675  -0.14577
                          D50       D14       D60       D15       D63
   1                    0.14577   0.12440  -0.12440   0.11220  -0.11220
 RFO step:  Lambda0=3.317441287D-11 Lambda=-2.25808798D-08.
 Linear search not attempted -- option 19 set.
 Iteration  1 RMS(Cart)=  0.00005174 RMS(Int)=  0.00000000
 Iteration  2 RMS(Cart)=  0.00000000 RMS(Int)=  0.00000000
 ClnCor:  largest displacement from symmetrization is 8.81D-09 for atom    19.
 Variable       Old X    -DE/DX   Delta X   Delta X   Delta X     New X
                                 (Linear)    (Quad)   (Total)
    R1        4.13208   0.00001   0.00000   0.00013   0.00013   4.13220
    R2        2.78878   0.00001   0.00000   0.00003   0.00003   2.78881
    R3        2.64357   0.00003   0.00000   0.00005   0.00005   2.64362
    R4        2.03731   0.00000   0.00000   0.00001   0.00001   2.03732
    R5        2.64959   0.00002   0.00000   0.00005   0.00005   2.64964
    R6        2.84703   0.00003   0.00000   0.00007   0.00007   2.84711
    R7        2.04200   0.00001   0.00000   0.00001   0.00001   2.04201
    R8        2.62990   0.00004   0.00000   0.00009   0.00009   2.62999
    R9        2.04122   0.00000   0.00000   0.00001   0.00001   2.04123
   R10        2.64959   0.00002   0.00000   0.00005   0.00005   2.64964
   R11        2.04122   0.00000   0.00000   0.00001   0.00001   2.04123
   R12        2.05461   0.00000   0.00000   0.00001   0.00001   2.05462
   R13        2.07611   0.00000   0.00000   0.00000   0.00000   2.07612
   R14        2.84703   0.00003   0.00000   0.00007   0.00007   2.84711
   R15        2.04200   0.00001   0.00000   0.00001   0.00001   2.04201
   R16        2.25461   0.00003   0.00000   0.00003   0.00003   2.25464
   R17        2.25461   0.00003   0.00000   0.00003   0.00003   2.25464
   R18        2.78878   0.00001   0.00000   0.00003   0.00003   2.78881
   R19        2.63972   0.00002   0.00000   0.00005   0.00005   2.63977
   R20        2.63972   0.00002   0.00000   0.00005   0.00005   2.63977
   R21        2.03731   0.00000   0.00000   0.00001   0.00001   2.03732
   R22        4.13208   0.00001   0.00000   0.00013   0.00013   4.13220
    A1        1.78926   0.00000   0.00000   0.00001   0.00001   1.78927
    A2        1.77881   0.00000   0.00000   0.00000   0.00000   1.77881
    A3        1.62334  -0.00000   0.00000   0.00003   0.00003   1.62337
    A4        1.87408  -0.00000   0.00000   0.00000   0.00000   1.87409
    A5        2.08077   0.00000   0.00000  -0.00001  -0.00001   2.08076
    A6        2.20448  -0.00000   0.00000  -0.00002  -0.00002   2.20445
    A7        1.76373   0.00000   0.00000  -0.00001  -0.00001   1.76372
    A8        1.55297  -0.00000   0.00000   0.00001   0.00001   1.55298
    A9        1.79373   0.00000   0.00000   0.00001   0.00001   1.79374
   A10        1.86031   0.00000   0.00000  -0.00000  -0.00000   1.86030
   A11        2.16381  -0.00000   0.00000  -0.00000  -0.00000   2.16380
   A12        2.15863   0.00000   0.00000  -0.00000  -0.00000   2.15863
   A13        2.18954   0.00000   0.00000  -0.00000  -0.00000   2.18953
   A14        1.90144  -0.00000   0.00000  -0.00000  -0.00000   1.90143
   A15        2.18410   0.00000   0.00000   0.00001   0.00001   2.18410
   A16        1.90144  -0.00000   0.00000  -0.00000  -0.00000   1.90143
   A17        2.18410   0.00000   0.00000   0.00001   0.00001   2.18410
   A18        2.18954   0.00000   0.00000  -0.00000  -0.00000   2.18953
   A19        2.02897  -0.00000   0.00000  -0.00001  -0.00001   2.02896
   A20        1.88757   0.00000   0.00000   0.00000   0.00000   1.88758
   A21        1.73898   0.00000   0.00000  -0.00000  -0.00000   1.73898
   A22        1.88243  -0.00000   0.00000   0.00001   0.00001   1.88244
   A23        2.02897  -0.00000   0.00000  -0.00001  -0.00001   2.02896
   A24        1.88757   0.00000   0.00000   0.00000   0.00000   1.88758
   A25        2.28427  -0.00000   0.00000  -0.00001  -0.00001   2.28426
   A26        2.12243   0.00000   0.00000  -0.00000  -0.00000   2.12242
   A27        1.87648  -0.00000   0.00000   0.00001   0.00001   1.87649
   A28        2.28427  -0.00000   0.00000  -0.00001  -0.00001   2.28426
   A29        1.87648  -0.00000   0.00000   0.00001   0.00001   1.87649
   A30        2.12243   0.00000   0.00000  -0.00000  -0.00000   2.12242
   A31        1.86031   0.00000   0.00000  -0.00000  -0.00000   1.86030
   A32        2.16381  -0.00000   0.00000  -0.00000  -0.00000   2.16380
   A33        1.76373   0.00000   0.00000  -0.00001  -0.00001   1.76372
   A34        2.15863   0.00000   0.00000  -0.00000  -0.00000   2.15863
   A35        1.55297  -0.00000   0.00000   0.00001   0.00001   1.55298
   A36        1.79373   0.00000   0.00000   0.00001   0.00001   1.79374
   A37        1.87408  -0.00000   0.00000   0.00000   0.00000   1.87409
   A38        2.20448  -0.00000   0.00000  -0.00002  -0.00002   2.20445
   A39        1.77881   0.00000   0.00000   0.00000   0.00000   1.77881
   A40        2.08077   0.00000   0.00000  -0.00001  -0.00001   2.08076
   A41        1.78926   0.00000   0.00000   0.00001   0.00001   1.78927
   A42        1.62334  -0.00000   0.00000   0.00003   0.00003   1.62337
   A43        1.90980   0.00000   0.00000   0.00000   0.00000   1.90980
    D1        0.75681  -0.00000   0.00000   0.00000   0.00000   0.75682
    D2        2.61916  -0.00000   0.00000   0.00000   0.00000   2.61917
    D3       -1.49318  -0.00000   0.00000   0.00001   0.00001  -1.49317
    D4       -1.18175  -0.00000   0.00000  -0.00000  -0.00000  -1.18175
    D5        0.68060  -0.00000   0.00000  -0.00000  -0.00000   0.68060
    D6        2.85145  -0.00000   0.00000  -0.00000  -0.00000   2.85145
    D7        2.86560  -0.00000   0.00000   0.00001   0.00001   2.86560
    D8       -1.55524  -0.00000   0.00000   0.00001   0.00001  -1.55523
    D9        0.61561  -0.00000   0.00000   0.00001   0.00001   0.61562
   D10        1.36382  -0.00000   0.00000  -0.00014  -0.00014   1.36368
   D11       -1.77266  -0.00000   0.00000  -0.00011  -0.00011  -1.77277
   D12       -3.05315  -0.00000   0.00000  -0.00013  -0.00013  -3.05329
   D13        0.09355  -0.00000   0.00000  -0.00011  -0.00011   0.09345
   D14       -0.39387  -0.00000   0.00000  -0.00019  -0.00019  -0.39406
   D15        2.75283  -0.00000   0.00000  -0.00016  -0.00016   2.75267
   D16        1.87355   0.00000   0.00000   0.00002   0.00002   1.87356
   D17       -1.79434  -0.00000   0.00000  -0.00004  -0.00004  -1.79438
   D18        0.00000  -0.00000   0.00000  -0.00000   0.00000   0.00000
   D19        0.00000   0.00000   0.00000  -0.00000   0.00000   0.00000
   D20        2.61530  -0.00000   0.00000  -0.00005  -0.00005   2.61524
   D21       -1.87355  -0.00000   0.00000  -0.00002  -0.00002  -1.87356
   D22       -2.61530   0.00000   0.00000   0.00005   0.00005  -2.61524
   D23        0.00000   0.00000   0.00000  -0.00000  -0.00000   0.00000
   D24        1.79434   0.00000   0.00000   0.00004   0.00004   1.79438
   D25        1.27706  -0.00000   0.00000   0.00000   0.00000   1.27707
   D26       -1.73387  -0.00000   0.00000   0.00001   0.00001  -1.73386
   D27       -0.33298  -0.00000   0.00000  -0.00001  -0.00001  -0.33299
   D28        2.93927  -0.00000   0.00000   0.00000   0.00000   2.93927
   D29       -3.02019   0.00000   0.00000   0.00001   0.00001  -3.02018
   D30        0.25206   0.00000   0.00000   0.00002   0.00002   0.25207
   D31        0.92726   0.00000   0.00000   0.00000   0.00000   0.92727
   D32        3.04661   0.00000   0.00000   0.00001   0.00001   3.04662
   D33       -1.26714   0.00000   0.00000   0.00002   0.00002  -1.26712
   D34        2.69410   0.00000   0.00000  -0.00000  -0.00000   2.69409
   D35       -1.46974   0.00000   0.00000   0.00000   0.00000  -1.46974
   D36        0.49969   0.00000   0.00000   0.00001   0.00001   0.49970
   D37       -0.90019  -0.00000   0.00000  -0.00002  -0.00002  -0.90021
   D38        1.21916  -0.00000   0.00000  -0.00001  -0.00001   1.21914
   D39       -3.09459   0.00000   0.00000  -0.00001  -0.00001  -3.09460
   D40       -3.01043   0.00000   0.00000   0.00001   0.00001  -3.01042
   D41        0.00000  -0.00000   0.00000  -0.00000   0.00000   0.00000
   D42       -0.00000  -0.00000   0.00000   0.00000   0.00000   0.00000
   D43        3.01043  -0.00000   0.00000  -0.00001  -0.00001   3.01042
   D44        0.33298   0.00000   0.00000   0.00001   0.00001   0.33299
   D45        3.02019  -0.00000   0.00000  -0.00001  -0.00001   3.02018
   D46       -1.27706   0.00000   0.00000  -0.00000  -0.00000  -1.27707
   D47       -2.93927   0.00000   0.00000  -0.00000  -0.00000  -2.93927
   D48       -0.25206  -0.00000   0.00000  -0.00002  -0.00002  -0.25207
   D49        1.73387   0.00000   0.00000  -0.00001  -0.00001   1.73386
   D50       -0.49969  -0.00000   0.00000  -0.00001  -0.00001  -0.49970
   D51        3.09459  -0.00000   0.00000   0.00001   0.00001   3.09460
   D52        1.26714  -0.00000   0.00000  -0.00002  -0.00002   1.26712
   D53       -2.69410  -0.00000   0.00000   0.00000   0.00000  -2.69409
   D54        0.90019   0.00000   0.00000   0.00002   0.00002   0.90021
   D55       -0.92726  -0.00000   0.00000  -0.00000  -0.00000  -0.92727
   D56        1.46974  -0.00000   0.00000  -0.00000  -0.00000   1.46974
   D57       -1.21916   0.00000   0.00000   0.00001   0.00001  -1.21914
   D58       -3.04661  -0.00000   0.00000  -0.00001  -0.00001  -3.04662
   D59        3.05315   0.00000   0.00000   0.00013   0.00013   3.05329
   D60        0.39387   0.00000   0.00000   0.00019   0.00019   0.39406
   D61       -1.36382   0.00000   0.00000   0.00014   0.00014  -1.36368
   D62       -0.09355   0.00000   0.00000   0.00011   0.00011  -0.09345
   D63       -2.75283   0.00000   0.00000   0.00016   0.00016  -2.75267
   D64        1.77266   0.00000   0.00000   0.00011   0.00011   1.77277
   D65       -2.99119  -0.00000   0.00000  -0.00020  -0.00020  -2.99139
   D66        0.15494  -0.00000   0.00000  -0.00018  -0.00018   0.15477
   D67       -0.15494   0.00000   0.00000   0.00018   0.00018  -0.15477
   D68        2.99119   0.00000   0.00000   0.00020   0.00020   2.99139
   D69        1.18175   0.00000   0.00000   0.00000   0.00000   1.18175
   D70       -0.75681   0.00000   0.00000  -0.00000  -0.00000  -0.75682
   D71       -2.86560   0.00000   0.00000  -0.00001  -0.00001  -2.86560
   D72       -0.68060   0.00000   0.00000   0.00000   0.00000  -0.68060
   D73       -2.61916   0.00000   0.00000  -0.00000  -0.00000  -2.61917
   D74        1.55524   0.00000   0.00000  -0.00001  -0.00001   1.55523
   D75       -2.85145   0.00000   0.00000   0.00000   0.00000  -2.85145
   D76        1.49318   0.00000   0.00000  -0.00001  -0.00001   1.49317
   D77       -0.61561   0.00000   0.00000  -0.00001  -0.00001  -0.61562
         Item               Value     Threshold  Converged?
 Maximum Force            0.000038     0.000450     YES
 RMS     Force            0.000008     0.000300     YES
 Maximum Displacement     0.000340     0.001800     YES
 RMS     Displacement     0.000052     0.001200     YES
 Predicted change in Energy=-1.127385D-08
 Optimization completed.
    -- Stationary point found.
                           ----------------------------
                           !   Optimized Parameters   !
                           ! (Angstroms and Degrees)  !
 --------------------------                            --------------------------
 ! Name  Definition              Value          Derivative Info.                !
 --------------------------------------------------------------------------------
 ! R1    R(1,2)                  2.1866         -DE/DX =    0.0                 !
 ! R2    R(1,15)                 1.4758         -DE/DX =    0.0                 !
 ! R3    R(1,18)                 1.3989         -DE/DX =    0.0                 !
 ! R4    R(1,19)                 1.0781         -DE/DX =    0.0                 !
 ! R5    R(2,4)                  1.4021         -DE/DX =    0.0                 !
 ! R6    R(2,7)                  1.5066         -DE/DX =    0.0                 !
 ! R7    R(2,11)                 1.0806         -DE/DX =    0.0                 !
 ! R8    R(3,4)                  1.3917         -DE/DX =    0.0                 !
 ! R9    R(3,5)                  1.0802         -DE/DX =    0.0                 !
 ! R10   R(3,17)                 1.4021         -DE/DX =    0.0                 !
 ! R11   R(4,6)                  1.0802         -DE/DX =    0.0                 !
 ! R12   R(7,8)                  1.0873         -DE/DX =    0.0                 !
 ! R13   R(7,9)                  1.0986         -DE/DX =    0.0                 !
 ! R14   R(7,17)                 1.5066         -DE/DX =    0.0                 !
 ! R15   R(10,17)                1.0806         -DE/DX =    0.0                 !
 ! R16   R(12,14)                1.1931         -DE/DX =    0.0                 !
 ! R17   R(13,15)                1.1931         -DE/DX =    0.0                 !
 ! R18   R(14,18)                1.4758         -DE/DX =    0.0                 !
 ! R19   R(14,20)                1.3969         -DE/DX =    0.0                 !
 ! R20   R(15,20)                1.3969         -DE/DX =    0.0                 !
 ! R21   R(16,18)                1.0781         -DE/DX =    0.0                 !
 ! R22   R(17,18)                2.1866         -DE/DX =    0.0                 !
 ! A1    A(2,1,15)             102.5169         -DE/DX =    0.0                 !
 ! A2    A(2,1,18)             101.9184         -DE/DX =    0.0                 !
 ! A3    A(2,1,19)              93.0104         -DE/DX =    0.0                 !
 ! A4    A(15,1,18)            107.3771         -DE/DX =    0.0                 !
 ! A5    A(15,1,19)            119.2195         -DE/DX =    0.0                 !
 ! A6    A(18,1,19)            126.3071         -DE/DX =    0.0                 !
 ! A7    A(1,2,4)              101.0543         -DE/DX =    0.0                 !
 ! A8    A(1,2,7)               88.9784         -DE/DX =    0.0                 !
 ! A9    A(1,2,11)             102.7731         -DE/DX =    0.0                 !
 ! A10   A(4,2,7)              106.5877         -DE/DX =    0.0                 !
 ! A11   A(4,2,11)             123.9771         -DE/DX =    0.0                 !
 ! A12   A(7,2,11)             123.6806         -DE/DX =    0.0                 !
 ! A13   A(4,3,5)              125.4512         -DE/DX =    0.0                 !
 ! A14   A(4,3,17)             108.9443         -DE/DX =    0.0                 !
 ! A15   A(5,3,17)             125.1395         -DE/DX =    0.0                 !
 ! A16   A(2,4,3)              108.9443         -DE/DX =    0.0                 !
 ! A17   A(2,4,6)              125.1395         -DE/DX =    0.0                 !
 ! A18   A(3,4,6)              125.4512         -DE/DX =    0.0                 !
 ! A19   A(2,7,8)              116.2513         -DE/DX =    0.0                 !
 ! A20   A(2,7,9)              108.1499         -DE/DX =    0.0                 !
 ! A21   A(2,7,17)              99.6363         -DE/DX =    0.0                 !
 ! A22   A(8,7,9)              107.8554         -DE/DX =    0.0                 !
 ! A23   A(8,7,17)             116.2513         -DE/DX =    0.0                 !
 ! A24   A(9,7,17)             108.1499         -DE/DX =    0.0                 !
 ! A25   A(12,14,18)           130.8788         -DE/DX =    0.0                 !
 ! A26   A(12,14,20)           121.606          -DE/DX =    0.0                 !
 ! A27   A(18,14,20)           107.5145         -DE/DX =    0.0                 !
 ! A28   A(1,15,13)            130.8788         -DE/DX =    0.0                 !
 ! A29   A(1,15,20)            107.5145         -DE/DX =    0.0                 !
 ! A30   A(13,15,20)           121.606          -DE/DX =    0.0                 !
 ! A31   A(3,17,7)             106.5877         -DE/DX =    0.0                 !
 ! A32   A(3,17,10)            123.9771         -DE/DX =    0.0                 !
 ! A33   A(3,17,18)            101.0543         -DE/DX =    0.0                 !
 ! A34   A(7,17,10)            123.6806         -DE/DX =    0.0                 !
 ! A35   A(7,17,18)             88.9784         -DE/DX =    0.0                 !
 ! A36   A(10,17,18)           102.7731         -DE/DX =    0.0                 !
 ! A37   A(1,18,14)            107.3771         -DE/DX =    0.0                 !
 ! A38   A(1,18,16)            126.3071         -DE/DX =    0.0                 !
 ! A39   A(1,18,17)            101.9184         -DE/DX =    0.0                 !
 ! A40   A(14,18,16)           119.2195         -DE/DX =    0.0                 !
 ! A41   A(14,18,17)           102.5169         -DE/DX =    0.0                 !
 ! A42   A(16,18,17)            93.0104         -DE/DX =    0.0                 !
 ! A43   A(14,20,15)           109.4233         -DE/DX =    0.0                 !
 ! D1    D(15,1,2,4)            43.3621         -DE/DX =    0.0                 !
 ! D2    D(15,1,2,7)           150.067          -DE/DX =    0.0                 !
 ! D3    D(15,1,2,11)          -85.5527         -DE/DX =    0.0                 !
 ! D4    D(18,1,2,4)           -67.7092         -DE/DX =    0.0                 !
 ! D5    D(18,1,2,7)            38.9957         -DE/DX =    0.0                 !
 ! D6    D(18,1,2,11)          163.376          -DE/DX =    0.0                 !
 ! D7    D(19,1,2,4)           164.1865         -DE/DX =    0.0                 !
 ! D8    D(19,1,2,7)           -89.1086         -DE/DX =    0.0                 !
 ! D9    D(19,1,2,11)           35.2716         -DE/DX =    0.0                 !
 ! D10   D(2,1,15,13)           78.1412         -DE/DX =    0.0                 !
 ! D11   D(2,1,15,20)         -101.566          -DE/DX =    0.0                 !
 ! D12   D(18,1,15,13)        -174.9328         -DE/DX =    0.0                 !
 ! D13   D(18,1,15,20)           5.3601         -DE/DX =    0.0                 !
 ! D14   D(19,1,15,13)         -22.5672         -DE/DX =    0.0                 !
 ! D15   D(19,1,15,20)         157.7256         -DE/DX =    0.0                 !
 ! D16   D(2,1,18,14)          107.3463         -DE/DX =    0.0                 !
 ! D17   D(2,1,18,16)         -102.8083         -DE/DX =    0.0                 !
 ! D18   D(2,1,18,17)            0.0            -DE/DX =    0.0                 !
 ! D19   D(15,1,18,14)           0.0            -DE/DX =    0.0                 !
 ! D20   D(15,1,18,16)         149.8454         -DE/DX =    0.0                 !
 ! D21   D(15,1,18,17)        -107.3463         -DE/DX =    0.0                 !
 ! D22   D(19,1,18,14)        -149.8454         -DE/DX =    0.0                 !
 ! D23   D(19,1,18,16)           0.0            -DE/DX =    0.0                 !
 ! D24   D(19,1,18,17)         102.8083         -DE/DX =    0.0                 !
 ! D25   D(1,2,4,3)             73.1703         -DE/DX =    0.0                 !
 ! D26   D(1,2,4,6)            -99.3437         -DE/DX =    0.0                 !
 ! D27   D(7,2,4,3)            -19.0785         -DE/DX =    0.0                 !
 ! D28   D(7,2,4,6)            168.4075         -DE/DX =    0.0                 !
 ! D29   D(11,2,4,3)          -173.0443         -DE/DX =    0.0                 !
 ! D30   D(11,2,4,6)            14.4418         -DE/DX =    0.0                 !
 ! D31   D(1,2,7,8)             53.1283         -DE/DX =    0.0                 !
 ! D32   D(1,2,7,9)            174.5577         -DE/DX =    0.0                 !
 ! D33   D(1,2,7,17)           -72.6018         -DE/DX =    0.0                 !
 ! D34   D(4,2,7,8)            154.3604         -DE/DX =    0.0                 !
 ! D35   D(4,2,7,9)            -84.2102         -DE/DX =    0.0                 !
 ! D36   D(4,2,7,17)            28.6303         -DE/DX =    0.0                 !
 ! D37   D(11,2,7,8)           -51.577          -DE/DX =    0.0                 !
 ! D38   D(11,2,7,9)            69.8524         -DE/DX =    0.0                 !
 ! D39   D(11,2,7,17)         -177.3071         -DE/DX =    0.0                 !
 ! D40   D(5,3,4,2)           -172.4849         -DE/DX =    0.0                 !
 ! D41   D(5,3,4,6)              0.0            -DE/DX =    0.0                 !
 ! D42   D(17,3,4,2)             0.0            -DE/DX =    0.0                 !
 ! D43   D(17,3,4,6)           172.4849         -DE/DX =    0.0                 !
 ! D44   D(4,3,17,7)            19.0785         -DE/DX =    0.0                 !
 ! D45   D(4,3,17,10)          173.0443         -DE/DX =    0.0                 !
 ! D46   D(4,3,17,18)          -73.1703         -DE/DX =    0.0                 !
 ! D47   D(5,3,17,7)          -168.4075         -DE/DX =    0.0                 !
 ! D48   D(5,3,17,10)          -14.4418         -DE/DX =    0.0                 !
 ! D49   D(5,3,17,18)           99.3437         -DE/DX =    0.0                 !
 ! D50   D(2,7,17,3)           -28.6303         -DE/DX =    0.0                 !
 ! D51   D(2,7,17,10)          177.3071         -DE/DX =    0.0                 !
 ! D52   D(2,7,17,18)           72.6018         -DE/DX =    0.0                 !
 ! D53   D(8,7,17,3)          -154.3604         -DE/DX =    0.0                 !
 ! D54   D(8,7,17,10)           51.577          -DE/DX =    0.0                 !
 ! D55   D(8,7,17,18)          -53.1283         -DE/DX =    0.0                 !
 ! D56   D(9,7,17,3)            84.2102         -DE/DX =    0.0                 !
 ! D57   D(9,7,17,10)          -69.8524         -DE/DX =    0.0                 !
 ! D58   D(9,7,17,18)         -174.5577         -DE/DX =    0.0                 !
 ! D59   D(12,14,18,1)         174.9328         -DE/DX =    0.0                 !
 ! D60   D(12,14,18,16)         22.5672         -DE/DX =    0.0                 !
 ! D61   D(12,14,18,17)        -78.1412         -DE/DX =    0.0                 !
 ! D62   D(20,14,18,1)          -5.3601         -DE/DX =    0.0                 !
 ! D63   D(20,14,18,16)       -157.7256         -DE/DX =    0.0                 !
 ! D64   D(20,14,18,17)        101.566          -DE/DX =    0.0                 !
 ! D65   D(12,14,20,15)       -171.3825         -DE/DX =    0.0                 !
 ! D66   D(18,14,20,15)          8.8775         -DE/DX =    0.0                 !
 ! D67   D(1,15,20,14)          -8.8775         -DE/DX =    0.0                 !
 ! D68   D(13,15,20,14)        171.3825         -DE/DX =    0.0                 !
 ! D69   D(3,17,18,1)           67.7092         -DE/DX =    0.0                 !
 ! D70   D(3,17,18,14)         -43.3621         -DE/DX =    0.0                 !
 ! D71   D(3,17,18,16)        -164.1865         -DE/DX =    0.0                 !
 ! D72   D(7,17,18,1)          -38.9957         -DE/DX =    0.0                 !
 ! D73   D(7,17,18,14)        -150.067          -DE/DX =    0.0                 !
 ! D74   D(7,17,18,16)          89.1086         -DE/DX =    0.0                 !
 ! D75   D(10,17,18,1)        -163.376          -DE/DX =    0.0                 !
 ! D76   D(10,17,18,14)         85.5527         -DE/DX =    0.0                 !
 ! D77   D(10,17,18,16)        -35.2716         -DE/DX =    0.0                 !
 --------------------------------------------------------------------------------
 GradGradGradGradGradGradGradGradGradGradGradGradGradGradGradGradGradGrad

                          Input orientation:                          
 ---------------------------------------------------------------------
 Center     Atomic      Atomic             Coordinates (Angstroms)
 Number     Number       Type             X           Y           Z
 ---------------------------------------------------------------------
      1          6           0       -1.080256   -0.256222    0.699459
      2          6           0       -0.031193    1.608388    1.151031
      3          6           0        1.260323    1.307257   -0.695841
      4          6           0        1.260323    1.307257    0.695841
      5          1           0        2.083760    0.997095   -1.322348
      6          1           0        2.083760    0.997095    1.322348
      7          6           0       -0.751641    2.260981   -0.000000
      8          1           0       -1.835463    2.174682   -0.000000
      9          1           0       -0.498847    3.330134   -0.000000
     10          1           0       -0.281589    1.778199   -2.188392
     11          1           0       -0.281589    1.778199    2.188392
     12          8           0        0.154454   -1.683084   -2.230963
     13          8           0        0.154454   -1.683084    2.230963
     14          6           0       -0.114512   -1.281375   -1.140209
     15          6           0       -0.114512   -1.281375    1.140209
     16          1           0       -1.913033   -0.008679   -1.337815
     17          6           0       -0.031193    1.608388   -1.151031
     18          6           0       -1.080256   -0.256222   -0.699459
     19          1           0       -1.913033   -0.008679    1.337815
     20          8           0        0.522783   -1.776397    0.000000
 ---------------------------------------------------------------------
                    Distance matrix (angstroms):
                    1          2          3          4          5
     1  C    0.000000
     2  C    2.186600   0.000000
     3  C    3.141598   2.273682   0.000000
     4  C    2.814745   1.402102   1.391682   0.000000
     5  H    3.958472   3.311240   1.080167   2.201667   0.000000
     6  H    3.459739   2.208179   2.201667   1.080167   2.644696
     7  C    2.633162   1.506584   2.332763   2.332763   3.374242
     8  H    2.639863   2.213809   3.289455   3.289455   4.300654
     9  H    3.699896   2.123201   2.769640   2.769640   3.723108
    10  H    3.621660   3.353100   2.197041   3.304252   2.637239
    11  H    2.644553   1.080579   3.304252   2.197041   4.304683
    12  O    3.485372   4.722937   3.538599   4.327963   3.425078
    13  O    2.430216   3.469079   4.327963   3.538599   4.850938
    14  C    2.316890   3.688828   2.964566   3.458651   3.171277
    15  C    1.475758   2.890984   3.458651   2.964566   4.010986
    16  H    2.214787   3.514339   3.494854   3.992196   4.121429
    17  C    2.828713   2.302062   1.402102   2.273682   2.208179
    18  C    1.398918   2.828713   2.814745   3.141598   3.459739
    19  H    1.078097   2.488195   3.992196   3.494854   4.905344
    20  O    2.317306   3.617808   3.246087   3.246087   3.446377
                    6          7          8          9         10
     6  H    0.000000
     7  C    3.374242   0.000000
     8  H    4.300654   1.087252   0.000000
     9  H    3.723108   1.098632   1.766808   0.000000
    10  H    4.304683   2.289779   2.713076   2.691610   0.000000
    11  H    2.637239   2.289779   2.713076   2.691610   4.376784
    12  O    4.850938   4.621023   4.880504   5.525971   3.488900
    13  O    3.425078   4.621023   4.880504   5.525971   5.630392
    14  C    4.010986   3.775486   4.025677   4.765900   3.238456
    15  C    3.171277   3.775486   4.025677   4.765900   4.524212
    16  H    4.905344   2.879225   2.561802   3.864886   2.564766
    17  C    3.311240   1.506584   2.213809   2.123201   1.080579
    18  C    3.958472   2.633162   2.639863   3.699896   2.644553
    19  H    4.121429   2.879225   2.561802   3.864886   4.276526
    20  O    3.446377   4.233743   4.601342   5.207724   4.251027
                   11         12         13         14         15
    11  H    0.000000
    12  O    5.630392   0.000000
    13  O    3.488900   4.461926   0.000000
    14  C    4.524212   1.193087   3.405659   0.000000
    15  C    3.238456   3.405659   1.193087   2.280418   0.000000
    16  H    4.276526   2.806394   4.451327   2.212121   3.315876
    17  C    3.353100   3.469079   4.722937   2.890984   3.688828
    18  C    3.621660   2.430216   3.485372   1.475758   2.316890
    19  H    2.564766   4.451327   2.806394   3.315876   2.212121
    20  O    4.251027   2.263088   2.263088   1.396878   1.396878
                   16         17         18         19         20
    16  H    0.000000
    17  C    2.488195   0.000000
    18  C    1.078097   2.186600   0.000000
    19  H    2.675630   3.514339   2.214787   0.000000
    20  O    3.293596   3.617808   2.317306   3.293596   0.000000
 Stoichiometry    C9H8O3
 Framework group  CS[SG(CH2O),X(C8H6O2)]
 Deg. of freedom    29
 Full point group                 CS      NOp   2
 Largest Abelian subgroup         CS      NOp   2
 Largest concise Abelian subgroup CS      NOp   2
                         Standard orientation:                         
 ---------------------------------------------------------------------
 Center     Atomic      Atomic             Coordinates (Angstroms)
 Number     Number       Type             X           Y           Z
 ---------------------------------------------------------------------
      1          6           0       -1.080256   -0.256222    0.699459
      2          6           0       -0.031193    1.608388    1.151031
      3          6           0        1.260323    1.307257   -0.695841
      4          6           0        1.260323    1.307257    0.695841
      5          1           0        2.083760    0.997095   -1.322348
      6          1           0        2.083760    0.997095    1.322348
      7          6           0       -0.751641    2.260981    0.000000
      8          1           0       -1.835463    2.174682    0.000000
      9          1           0       -0.498847    3.330134    0.000000
     10          1           0       -0.281589    1.778199   -2.188392
     11          1           0       -0.281589    1.778199    2.188392
     12          8           0        0.154454   -1.683084   -2.230963
     13          8           0        0.154454   -1.683084    2.230963
     14          6           0       -0.114512   -1.281375   -1.140209
     15          6           0       -0.114512   -1.281375    1.140209
     16          1           0       -1.913033   -0.008679   -1.337815
     17          6           0       -0.031193    1.608388   -1.151031
     18          6           0       -1.080256   -0.256222   -0.699459
     19          1           0       -1.913033   -0.008679    1.337815
     20          8           0        0.522783   -1.776397   -0.000000
 ---------------------------------------------------------------------
 Rotational constants (GHZ):           1.4014272           1.0789735           0.7990138
 1\1\GINC-BHC0012\FTS\RB3LYP\def2TZVP\C9H8O3\DHANAWAY\11-Jun-2022\0\\# 
 Opt=(TS, CalcFC, noeigentest) B3LYP/Def2TZVP freq=noraman pop=none\\ts
 _initalOpt\\0,1\C,-1.080256,-0.256222,0.699459\C,-0.031193,1.608388,1.
 151031\C,1.260323,1.307257,-0.695841\C,1.260323,1.307257,0.695841\H,2.
 08376,0.997095,-1.322348\H,2.08376,0.997095,1.322348\C,-0.751641,2.260
 981,0.\H,-1.835463,2.174682,0.\H,-0.498847,3.330134,0.\H,-0.281589,1.7
 78199,-2.188392\H,-0.281589,1.778199,2.188392\O,0.154454,-1.683084,-2.
 230963\O,0.154454,-1.683084,2.230963\C,-0.114512,-1.281375,-1.140209\C
 ,-0.114512,-1.281375,1.140209\H,-1.913033,-0.008679,-1.337815\C,-0.031
 193,1.608388,-1.151031\C,-1.080256,-0.256222,-0.699459\H,-1.913033,-0.
 008679,1.337815\O,0.522783,-1.776397,0.\\Version=ES64L-G16RevA.03\Stat
 e=1-A'\HF=-573.6004683\RMSD=2.337e-09\RMSF=1.232e-05\Dipole=-0.8448228
 ,2.2532962,0.\Polar=0.,0.,0.,0.,0.,0.\PG=CS [SG(C1H2O1),X(C8H6O2)]\\@


 FIREWORKS ENDED
 AND SPECTATORS GONE AWAY....
 AH, HOW VAST AND DARK
                     SHIKI
 Job cpu time:       0 days  2 hours 53 minutes 19.5 seconds.
 Elapsed time:       0 days  0 hours 14 minutes 31.5 seconds.
 File lengths (MBytes):  RWF=    220 Int=      0 D2E=      0 Chk=     32 Scr=      1
 Normal termination of Gaussian 16 at Sat Jun 11 22:56:02 2022.
 Link1:  Proceeding to internal job step number  2.
 --------------------------------------------------------------------
 #N Geom=AllCheck Guess=TCheck SCRF=Check GenChk RB3LYP/def2TZVP Freq
 --------------------------------------------------------------------
 1/5=1,10=4,11=1,29=7,30=1,38=1,40=1/1,3;
 2/12=2,40=1/2;
 3/5=44,7=101,11=2,14=-4,25=1,30=1,70=2,71=2,74=-5,116=1,140=1/1,2,3;
 4/5=101/1;
 5/5=2,38=6,98=1/2;
 8/6=4,10=90,11=11/1;
 11/6=1,8=1,9=11,15=111,16=1/1,2,10;
 10/6=1/2;
 7/8=1,10=1,25=1/1,2,3,16;
 1/5=1,10=4,11=1,30=1/3;
 99//99;
 Structure from the checkpoint file:  "checkpoint.chk"
 ------------
 ts_initalOpt
 ------------
 Charge =  0 Multiplicity = 1
 Redundant internal coordinates found in file.  (old form).
 C,0,-1.080256,-0.256222,0.699459
 C,0,-0.031193,1.608388,1.151031
 C,0,1.260323,1.307257,-0.695841
 C,0,1.260323,1.307257,0.695841
 H,0,2.08376,0.997095,-1.322348
 H,0,2.08376,0.997095,1.322348
 C,0,-0.751641,2.260981,0.
 H,0,-1.835463,2.174682,0.
 H,0,-0.498847,3.330134,0.
 H,0,-0.281589,1.778199,-2.188392
 H,0,-0.281589,1.778199,2.188392
 O,0,0.154454,-1.683084,-2.230963
 O,0,0.154454,-1.683084,2.230963
 C,0,-0.114512,-1.281375,-1.140209
 C,0,-0.114512,-1.281375,1.140209
 H,0,-1.913033,-0.008679,-1.337815
 C,0,-0.031193,1.608388,-1.151031
 C,0,-1.080256,-0.256222,-0.699459
 H,0,-1.913033,-0.008679,1.337815
 O,0,0.522783,-1.776397,0.
 Recover connectivity data from disk.

 GradGradGradGradGradGradGradGradGradGradGradGradGradGradGradGradGradGrad
 Berny optimization.
 Initialization pass.
                           ----------------------------
                           !    Initial Parameters    !
                           ! (Angstroms and Degrees)  !
 --------------------------                            --------------------------
 ! Name  Definition              Value          Derivative Info.                !
 --------------------------------------------------------------------------------
 ! R1    R(1,2)                  2.1866         calculate D2E/DX2 analytically  !
 ! R2    R(1,15)                 1.4758         calculate D2E/DX2 analytically  !
 ! R3    R(1,18)                 1.3989         calculate D2E/DX2 analytically  !
 ! R4    R(1,19)                 1.0781         calculate D2E/DX2 analytically  !
 ! R5    R(2,4)                  1.4021         calculate D2E/DX2 analytically  !
 ! R6    R(2,7)                  1.5066         calculate D2E/DX2 analytically  !
 ! R7    R(2,11)                 1.0806         calculate D2E/DX2 analytically  !
 ! R8    R(3,4)                  1.3917         calculate D2E/DX2 analytically  !
 ! R9    R(3,5)                  1.0802         calculate D2E/DX2 analytically  !
 ! R10   R(3,17)                 1.4021         calculate D2E/DX2 analytically  !
 ! R11   R(4,6)                  1.0802         calculate D2E/DX2 analytically  !
 ! R12   R(7,8)                  1.0873         calculate D2E/DX2 analytically  !
 ! R13   R(7,9)                  1.0986         calculate D2E/DX2 analytically  !
 ! R14   R(7,17)                 1.5066         calculate D2E/DX2 analytically  !
 ! R15   R(10,17)                1.0806         calculate D2E/DX2 analytically  !
 ! R16   R(12,14)                1.1931         calculate D2E/DX2 analytically  !
 ! R17   R(13,15)                1.1931         calculate D2E/DX2 analytically  !
 ! R18   R(14,18)                1.4758         calculate D2E/DX2 analytically  !
 ! R19   R(14,20)                1.3969         calculate D2E/DX2 analytically  !
 ! R20   R(15,20)                1.3969         calculate D2E/DX2 analytically  !
 ! R21   R(16,18)                1.0781         calculate D2E/DX2 analytically  !
 ! R22   R(17,18)                2.1866         calculate D2E/DX2 analytically  !
 ! A1    A(2,1,15)             102.5169         calculate D2E/DX2 analytically  !
 ! A2    A(2,1,18)             101.9184         calculate D2E/DX2 analytically  !
 ! A3    A(2,1,19)              93.0104         calculate D2E/DX2 analytically  !
 ! A4    A(15,1,18)            107.3771         calculate D2E/DX2 analytically  !
 ! A5    A(15,1,19)            119.2195         calculate D2E/DX2 analytically  !
 ! A6    A(18,1,19)            126.3071         calculate D2E/DX2 analytically  !
 ! A7    A(1,2,4)              101.0543         calculate D2E/DX2 analytically  !
 ! A8    A(1,2,7)               88.9784         calculate D2E/DX2 analytically  !
 ! A9    A(1,2,11)             102.7731         calculate D2E/DX2 analytically  !
 ! A10   A(4,2,7)              106.5877         calculate D2E/DX2 analytically  !
 ! A11   A(4,2,11)             123.9771         calculate D2E/DX2 analytically  !
 ! A12   A(7,2,11)             123.6806         calculate D2E/DX2 analytically  !
 ! A13   A(4,3,5)              125.4512         calculate D2E/DX2 analytically  !
 ! A14   A(4,3,17)             108.9443         calculate D2E/DX2 analytically  !
 ! A15   A(5,3,17)             125.1395         calculate D2E/DX2 analytically  !
 ! A16   A(2,4,3)              108.9443         calculate D2E/DX2 analytically  !
 ! A17   A(2,4,6)              125.1395         calculate D2E/DX2 analytically  !
 ! A18   A(3,4,6)              125.4512         calculate D2E/DX2 analytically  !
 ! A19   A(2,7,8)              116.2513         calculate D2E/DX2 analytically  !
 ! A20   A(2,7,9)              108.1499         calculate D2E/DX2 analytically  !
 ! A21   A(2,7,17)              99.6363         calculate D2E/DX2 analytically  !
 ! A22   A(8,7,9)              107.8554         calculate D2E/DX2 analytically  !
 ! A23   A(8,7,17)             116.2513         calculate D2E/DX2 analytically  !
 ! A24   A(9,7,17)             108.1499         calculate D2E/DX2 analytically  !
 ! A25   A(12,14,18)           130.8788         calculate D2E/DX2 analytically  !
 ! A26   A(12,14,20)           121.606          calculate D2E/DX2 analytically  !
 ! A27   A(18,14,20)           107.5145         calculate D2E/DX2 analytically  !
 ! A28   A(1,15,13)            130.8788         calculate D2E/DX2 analytically  !
 ! A29   A(1,15,20)            107.5145         calculate D2E/DX2 analytically  !
 ! A30   A(13,15,20)           121.606          calculate D2E/DX2 analytically  !
 ! A31   A(3,17,7)             106.5877         calculate D2E/DX2 analytically  !
 ! A32   A(3,17,10)            123.9771         calculate D2E/DX2 analytically  !
 ! A33   A(3,17,18)            101.0543         calculate D2E/DX2 analytically  !
 ! A34   A(7,17,10)            123.6806         calculate D2E/DX2 analytically  !
 ! A35   A(7,17,18)             88.9784         calculate D2E/DX2 analytically  !
 ! A36   A(10,17,18)           102.7731         calculate D2E/DX2 analytically  !
 ! A37   A(1,18,14)            107.3771         calculate D2E/DX2 analytically  !
 ! A38   A(1,18,16)            126.3071         calculate D2E/DX2 analytically  !
 ! A39   A(1,18,17)            101.9184         calculate D2E/DX2 analytically  !
 ! A40   A(14,18,16)           119.2195         calculate D2E/DX2 analytically  !
 ! A41   A(14,18,17)           102.5169         calculate D2E/DX2 analytically  !
 ! A42   A(16,18,17)            93.0104         calculate D2E/DX2 analytically  !
 ! A43   A(14,20,15)           109.4233         calculate D2E/DX2 analytically  !
 ! D1    D(15,1,2,4)            43.3621         calculate D2E/DX2 analytically  !
 ! D2    D(15,1,2,7)           150.067          calculate D2E/DX2 analytically  !
 ! D3    D(15,1,2,11)          -85.5527         calculate D2E/DX2 analytically  !
 ! D4    D(18,1,2,4)           -67.7092         calculate D2E/DX2 analytically  !
 ! D5    D(18,1,2,7)            38.9957         calculate D2E/DX2 analytically  !
 ! D6    D(18,1,2,11)          163.376          calculate D2E/DX2 analytically  !
 ! D7    D(19,1,2,4)           164.1865         calculate D2E/DX2 analytically  !
 ! D8    D(19,1,2,7)           -89.1086         calculate D2E/DX2 analytically  !
 ! D9    D(19,1,2,11)           35.2716         calculate D2E/DX2 analytically  !
 ! D10   D(2,1,15,13)           78.1412         calculate D2E/DX2 analytically  !
 ! D11   D(2,1,15,20)         -101.566          calculate D2E/DX2 analytically  !
 ! D12   D(18,1,15,13)        -174.9328         calculate D2E/DX2 analytically  !
 ! D13   D(18,1,15,20)           5.3601         calculate D2E/DX2 analytically  !
 ! D14   D(19,1,15,13)         -22.5672         calculate D2E/DX2 analytically  !
 ! D15   D(19,1,15,20)         157.7256         calculate D2E/DX2 analytically  !
 ! D16   D(2,1,18,14)          107.3463         calculate D2E/DX2 analytically  !
 ! D17   D(2,1,18,16)         -102.8083         calculate D2E/DX2 analytically  !
 ! D18   D(2,1,18,17)            0.0            calculate D2E/DX2 analytically  !
 ! D19   D(15,1,18,14)           0.0            calculate D2E/DX2 analytically  !
 ! D20   D(15,1,18,16)         149.8454         calculate D2E/DX2 analytically  !
 ! D21   D(15,1,18,17)        -107.3463         calculate D2E/DX2 analytically  !
 ! D22   D(19,1,18,14)        -149.8454         calculate D2E/DX2 analytically  !
 ! D23   D(19,1,18,16)           0.0            calculate D2E/DX2 analytically  !
 ! D24   D(19,1,18,17)         102.8083         calculate D2E/DX2 analytically  !
 ! D25   D(1,2,4,3)             73.1703         calculate D2E/DX2 analytically  !
 ! D26   D(1,2,4,6)            -99.3437         calculate D2E/DX2 analytically  !
 ! D27   D(7,2,4,3)            -19.0785         calculate D2E/DX2 analytically  !
 ! D28   D(7,2,4,6)            168.4075         calculate D2E/DX2 analytically  !
 ! D29   D(11,2,4,3)          -173.0443         calculate D2E/DX2 analytically  !
 ! D30   D(11,2,4,6)            14.4418         calculate D2E/DX2 analytically  !
 ! D31   D(1,2,7,8)             53.1283         calculate D2E/DX2 analytically  !
 ! D32   D(1,2,7,9)            174.5577         calculate D2E/DX2 analytically  !
 ! D33   D(1,2,7,17)           -72.6018         calculate D2E/DX2 analytically  !
 ! D34   D(4,2,7,8)            154.3604         calculate D2E/DX2 analytically  !
 ! D35   D(4,2,7,9)            -84.2102         calculate D2E/DX2 analytically  !
 ! D36   D(4,2,7,17)            28.6303         calculate D2E/DX2 analytically  !
 ! D37   D(11,2,7,8)           -51.577          calculate D2E/DX2 analytically  !
 ! D38   D(11,2,7,9)            69.8524         calculate D2E/DX2 analytically  !
 ! D39   D(11,2,7,17)         -177.3071         calculate D2E/DX2 analytically  !
 ! D40   D(5,3,4,2)           -172.4849         calculate D2E/DX2 analytically  !
 ! D41   D(5,3,4,6)              0.0            calculate D2E/DX2 analytically  !
 ! D42   D(17,3,4,2)             0.0            calculate D2E/DX2 analytically  !
 ! D43   D(17,3,4,6)           172.4849         calculate D2E/DX2 analytically  !
 ! D44   D(4,3,17,7)            19.0785         calculate D2E/DX2 analytically  !
 ! D45   D(4,3,17,10)          173.0443         calculate D2E/DX2 analytically  !
 ! D46   D(4,3,17,18)          -73.1703         calculate D2E/DX2 analytically  !
 ! D47   D(5,3,17,7)          -168.4075         calculate D2E/DX2 analytically  !
 ! D48   D(5,3,17,10)          -14.4418         calculate D2E/DX2 analytically  !
 ! D49   D(5,3,17,18)           99.3437         calculate D2E/DX2 analytically  !
 ! D50   D(2,7,17,3)           -28.6303         calculate D2E/DX2 analytically  !
 ! D51   D(2,7,17,10)          177.3071         calculate D2E/DX2 analytically  !
 ! D52   D(2,7,17,18)           72.6018         calculate D2E/DX2 analytically  !
 ! D53   D(8,7,17,3)          -154.3604         calculate D2E/DX2 analytically  !
 ! D54   D(8,7,17,10)           51.577          calculate D2E/DX2 analytically  !
 ! D55   D(8,7,17,18)          -53.1283         calculate D2E/DX2 analytically  !
[...]
 13,0.00096837,0.00472650,0.00014832,0.00096838,0.00472650,-0.00014832,
 -0.00007420,0.51116484,-0.00014691,0.00740432,-0.00086184,-0.04609894,
 0.03965575,-0.14710808,0.01011723,-0.00410203,0.00295998,-0.01011723,0
 .00410203,0.00295998,-0.00181062,-0.00042467,-0.00089921,0.00181062,0.
 00042467,-0.00089921,0.,0.,0.39237355,0.00013711,-0.00137291,-0.000383
 06,-0.00847098,-0.00163204,0.00200780,-0.00208678,0.00066940,0.0002827
 1,-0.00208678,0.00066940,-0.00028271,-0.00016073,0.00062575,-0.0003136
 3,-0.00016073,0.00062575,0.00031363,-0.31546792,-0.02287888,0.,0.34139
 456,0.00119782,-0.00067595,0.00071792,0.01320795,-0.00236982,-0.001660
 86,0.00126089,0.00046132,-0.00342754,0.00126089,0.00046132,0.00342754,
 0.00070968,-0.00016849,0.00027664,0.00070968,-0.00016849,-0.00027664,-
 0.02879597,-0.04500800,0.,0.02728977,0.05400287,-0.00131852,0.00050801
 ,-0.00000690,-0.02422561,-0.00442086,0.00433456,0.00245052,-0.00314485
 ,-0.00426440,-0.00245052,0.00314485,-0.00426440,0.00076516,-0.00090168
 ,0.00076809,-0.00076516,0.00090168,0.00076809,0.,0.,-0.05036852,0.,0.,
 0.04875949,0.00047548,0.00018156,0.00095756,0.00106185,0.00981134,0.00
 074017,-0.00132457,0.00235302,-0.00244571,-0.00132457,0.00235302,0.002
 44571,-0.00028682,-0.00084298,0.00004638,-0.00028682,-0.00084298,-0.00
 004638,-0.05677877,-0.05413392,0.,-0.00665771,-0.02992545,0.,0.0625604
 7,0.00034485,-0.00212215,-0.00176517,-0.00018423,-0.01360064,0.0010118
 8,-0.00159176,0.00111635,-0.00219438,-0.00159176,0.00111635,0.00219438
 ,0.00024612,0.00031173,-0.00005441,0.00024612,0.00031173,0.00005441,-0
 .05823463,-0.27723465,0.,-0.00153378,-0.00242236,0.,0.06170064,0.30717
 745,-0.00096949,0.00333317,-0.00130491,0.00150218,0.02560767,-0.001911
 95,0.00049981,-0.00030517,-0.00152998,-0.00049981,0.00030517,-0.001529
 98,0.00026556,0.00088233,-0.00006881,-0.00026556,-0.00088233,-0.000068
 81,0.,0.,-0.03352726,0.,0.,0.00020221,0.,0.,0.04298728,-0.00023560,-0.
 00031322,-0.00016309,-0.00200488,0.00156141,0.00431586,0.00101649,0.00
 370129,-0.02883299,-0.00566595,0.00268765,-0.00128685,0.00034177,-0.00
 138719,0.00095121,0.00025793,-0.00042837,-0.00141596,0.00524864,-0.006
 68140,0.01179837,0.00015920,-0.00056497,-0.00072309,0.00041564,0.00034
 058,-0.00016891,0.06473827,-0.00101533,-0.00137845,-0.00162740,0.00413
 582,-0.00284717,0.00025681,-0.00287220,0.00160981,0.00165185,0.0005338
 9,0.00460397,0.00303820,-0.00109965,-0.00244288,0.00001294,-0.00017136
 ,0.00035040,0.00022772,-0.00670999,0.00389157,-0.01406869,0.00026904,-
 0.00009679,0.00002513,-0.00042533,0.00031436,0.00096058,-0.01864441,0.
 03983048,-0.00010900,-0.00052945,-0.00051172,0.00177154,-0.00151749,-0
 .00244918,0.00215500,-0.00003452,-0.00181616,-0.00079230,0.00088493,0.
 00010939,-0.00050060,-0.00003146,0.00017472,0.00005907,-0.00019173,-0.
 00007637,-0.00630827,0.00629337,-0.00862048,0.00038226,0.00002962,0.00
 016651,-0.00004139,-0.00039973,-0.00016296,0.07217644,-0.04524249,0.33
 764958,0.00015917,-0.00211523,-0.00370165,-0.06563836,0.02096204,0.061
 87111,-0.00566595,0.00268765,0.00128685,0.00101649,0.00370129,0.028832
 99,0.00025793,-0.00042837,0.00141596,0.00034177,-0.00138719,-0.0009512
 1,0.00524864,-0.00668140,-0.01179837,0.00015920,-0.00056497,0.00072309
 ,0.00041564,0.00034058,0.00016891,0.00128104,0.00037712,-0.00075087,0.
 06473827,0.00000641,-0.00627231,-0.00725200,0.02601621,-0.04254059,-0.
 04613968,0.00053389,0.00460397,-0.00303820,-0.00287220,0.00160981,-0.0
 0165185,-0.00017136,0.00035040,-0.00022772,-0.00109965,-0.00244288,-0.
 00001294,-0.00670999,0.00389157,0.01406869,0.00026904,-0.00009679,-0.0
 0002513,-0.00042533,0.00031436,-0.00096058,0.00037712,0.00212290,0.000
 27789,-0.01864441,0.03983048,0.00066061,0.00049116,0.00028733,0.068081
 05,-0.04054661,-0.32483978,0.00079230,-0.00088493,0.00010939,-0.002155
 00,0.00003452,-0.00181616,-0.00005907,0.00019173,-0.00007637,0.0005006
 0,0.00003146,0.00017472,0.00630827,-0.00629337,-0.00862048,-0.00038226
 ,-0.00002962,0.00016651,0.00004139,0.00039973,-0.00016296,0.00075087,-
 0.00027789,-0.00044325,-0.07217644,0.04524249,0.33764958,-0.00290515,0
 .00178585,-0.00341307,0.00264201,0.00193654,0.00017654,-0.00117310,0.0
 0015073,-0.00017009,-0.00041630,0.00106261,0.00186637,0.00060161,0.000
 35155,-0.00019399,-0.00008808,-0.00016987,0.00005768,0.00021989,-0.000
 00670,0.00045177,0.00012723,-0.00007481,0.00002847,0.00018489,0.000243
 74,0.00027958,-0.00006611,0.00043318,-0.00005732,0.00009087,0.00014690
 ,-0.00000253,0.10003008,0.00667567,-0.00227592,0.00016030,-0.00068849,
 -0.00068818,-0.00036193,0.00072180,-0.00024732,0.00021511,-0.00015142,
 -0.00060979,-0.00054986,0.00003178,0.00000631,-0.00007194,0.00000289,0
 .00006400,-0.00007305,-0.00049944,-0.00033686,-0.00001967,0.00000666,0
 .00012530,-0.00005124,-0.00000952,-0.00014312,-0.00032601,-0.00007606,
 -0.00008959,-0.00001356,-0.00000982,-0.00000653,0.00001560,-0.08813422
 ,0.15227155,0.00513400,-0.00251759,0.00402890,-0.00161434,-0.00051347,
 0.00037632,0.00092954,-0.00088280,0.00031414,0.00094414,-0.00091132,-0
 .00165857,-0.00068570,-0.00016525,-0.00011954,0.00026751,0.00040496,0.
 00009901,-0.00032901,-0.00087070,-0.00013214,-0.00007445,0.00019089,-0
 .00005582,-0.00009032,-0.00021653,-0.00017211,-0.00023719,-0.00189248,
 0.00017174,-0.00013082,-0.00019326,0.00009064,-0.15740326,0.24580681,0
 .75267269,0.00668097,0.01703799,-0.03181246,-0.00097432,-0.00153533,-0
 .00005833,-0.00041630,0.00106261,-0.00186637,-0.00117310,0.00015073,0.
 00017009,-0.00008808,-0.00016987,-0.00005768,0.00060161,0.00035155,0.0
 0019399,0.00021989,-0.00000670,-0.00045177,0.00012723,-0.00007481,-0.0
 0002847,0.00018489,0.00024374,-0.00027958,0.00009087,0.00014690,0.0000
 0253,-0.00006611,0.00043318,0.00005732,0.00076073,-0.00152437,0.003569
 20,0.10003008,0.01301825,-0.00377768,0.03480727,0.00202952,0.00350395,
 0.00087650,-0.00015142,-0.00060979,0.00054986,0.00072180,-0.00024732,-
 0.00021511,0.00000289,0.00006400,0.00007305,0.00003178,0.00000631,0.00
 007194,-0.00049944,-0.00033685,0.00001967,0.00000666,0.00012530,0.0000
 5124,-0.00000952,-0.00014312,0.00032601,-0.00000982,-0.00000653,-0.000
 01560,-0.00007606,-0.00008959,0.00001356,-0.00152437,0.00005968,-0.001
 37818,-0.08813422,0.15227155,-0.01479712,0.02632212,-0.02261463,-0.001
 92028,-0.00492792,-0.00007631,-0.00094414,0.00091132,-0.00165857,-0.00
 092954,0.00088280,0.00031414,-0.00026751,-0.00040496,0.00009901,0.0006
 8570,0.00016525,-0.00011954,0.00032901,0.00087070,-0.00013214,0.000074
 45,-0.00019089,-0.00005582,0.00009032,0.00021654,-0.00017211,0.0001308
 2,0.00019326,0.00009064,0.00023719,0.00189248,0.00017174,-0.00356920,0
 .00137818,-0.01255156,0.15740326,-0.24580681,0.75267269,-0.00103004,0.
 01556095,0.02895789,-0.00867279,-0.00844167,-0.00000227,0.00126136,-0.
 00218349,-0.00151653,-0.00013339,-0.00411213,-0.00424411,-0.00100305,-
 0.00080447,0.00061403,0.00006124,0.00032922,-0.00026716,-0.00128006,-0
 .00145018,-0.00187450,-0.00038620,-0.00007335,-0.00037122,-0.00071683,
 -0.00087794,-0.00153858,-0.00046610,-0.00163341,-0.00006747,0.00011348
 ,0.00012887,-0.00017528,-0.12956231,0.07295287,0.15335488,-0.00367801,
 0.00696032,0.02070570,0.37620434,0.00285478,-0.00665819,-0.01363822,0.
 00277008,0.00224609,-0.00002282,-0.00148185,-0.00200369,0.00185339,0.0
 0228763,0.00181228,-0.00006619,0.00022332,0.00002173,-0.00012706,0.000
 01948,-0.00009653,0.00024782,0.00068583,-0.00024331,0.00078821,-0.0002
 3551,-0.00032618,0.00003083,-0.00015069,0.00004649,0.00063170,0.000612
 78,0.00212521,0.00029234,-0.00017725,0.00003266,0.00004409,0.07564517,
 -0.17265385,-0.22238166,0.00794061,-0.00025405,-0.01502726,-0.17822555
 ,0.41108011,0.02158830,-0.01664555,-0.02455267,-0.00203121,-0.00453957
 ,-0.00285738,0.00088302,0.00062687,0.00272977,0.00036917,-0.00009427,-
 0.00090949,0.00109144,0.00026617,0.00036878,-0.00050513,-0.00063093,-0
 .00039111,0.00002368,0.00371042,-0.00022517,0.00040022,-0.00029800,-0.
 00019279,-0.00002865,0.00056099,-0.00029194,0.00010328,0.00283716,-0.0
 0023781,0.00003179,0.00020003,-0.00016212,0.14768213,-0.21472858,-0.63
 181623,-0.00216300,-0.00005967,0.02047114,-0.16013048,0.23817841,0.893
 42556,-0.13690857,0.05701274,-0.00801270,0.00830456,0.00509337,0.00006
 070,-0.00013339,-0.00411213,0.00424411,0.00126136,-0.00218349,0.001516
 53,0.00006124,0.00032922,0.00026716,-0.00100305,-0.00080447,-0.0006140
 3,-0.00128006,-0.00145018,0.00187450,-0.00038620,-0.00007335,0.0003712
 2,-0.00071683,-0.00087794,0.00153858,0.00011348,0.00012887,0.00017528,
 -0.00046610,-0.00163341,0.00006747,-0.00367801,0.00696032,-0.02070570,
 -0.12956231,0.07295287,-0.15335488,0.03266285,-0.03651268,0.02535142,0
 .37620434,0.06995129,-0.12213920,0.03286276,-0.00713037,-0.02130311,0.
 00163784,0.00228763,0.00181228,0.00006619,-0.00148185,-0.00200369,-0.0
 0185339,0.00001948,-0.00009653,-0.00024782,0.00022332,0.00002173,0.000
 12706,0.00068583,-0.00024331,-0.00078821,-0.00023551,-0.00032618,-0.00
 003083,-0.00015069,0.00004649,-0.00063170,-0.00017725,0.00003266,-0.00
 004409,0.00061278,0.00212521,-0.00029234,0.00794061,-0.00025405,0.0150
 2726,0.07564517,-0.17265385,0.22238166,-0.03651268,0.02151641,-0.01974
 257,-0.17822555,0.41108011,-0.00540161,0.00985486,-0.08770128,0.003430
 98,0.00542905,-0.00037132,-0.00036917,0.00009427,-0.00090949,-0.000883
 02,-0.00062687,0.00272977,0.00050513,0.00063093,-0.00039111,-0.0010914
 4,-0.00026617,0.00036878,-0.00002368,-0.00371042,-0.00022517,-0.000400
 22,0.00029800,-0.00019280,0.00002865,-0.00056099,-0.00029194,-0.000031
 79,-0.00020003,-0.00016212,-0.00010328,-0.00283716,-0.00023781,0.00216
 300,0.00005967,0.02047114,-0.14768213,0.21472858,-0.63181623,-0.025351
 42,0.01974257,-0.10243811,0.16013048,-0.23817841,0.89342556,0.00901879
 ,-0.00142787,0.00743853,-0.00209495,-0.00136424,0.00025068,0.00199151,
 -0.00034659,0.00201004,0.00098813,-0.00044844,-0.00209490,0.00005110,0
 .00006918,0.00003752,0.00007920,0.00004025,0.00003788,0.00014620,0.001
 67680,0.00003432,0.00065604,0.00006028,-0.00007318,0.00031760,0.000169
 20,0.00025071,0.00009154,0.00019282,0.00052373,0.00009319,0.00007117,0
 .00003560,0.00124251,0.00013393,0.00237583,0.00034609,-0.00141134,-0.0
 0028985,-0.00892282,-0.00302120,-0.01416120,-0.00037607,0.00364909,0.0
 0384960,0.23171438,0.00056790,0.00413279,0.00563863,-0.00586095,-0.003
 04806,-0.00136657,0.00375660,-0.00135857,0.00422054,0.00240895,-0.0010
 2405,-0.00519068,0.00008941,0.00012429,0.00011559,0.00016601,0.0001885
 6,-0.00001974,-0.00029658,0.00219003,0.00053460,0.00033924,-0.00037897
 ,-0.00028128,0.00010928,0.00037512,0.00031645,0.00004886,0.00087290,0.
 00026317,0.00004759,0.00001595,0.00000193,-0.00227960,0.00015984,0.000
 42353,-0.00042010,-0.00050932,0.00086506,0.01360285,-0.00246066,0.0135
 6460,0.00274173,0.00233972,-0.00105734,-0.06790306,0.05428330,-0.02310
 380,0.00791295,-0.00896651,0.00120652,0.00116092,-0.00078570,-0.000833
 09,-0.00016567,-0.00075699,-0.00005379,0.00027218,0.00112523,0.0000120
 3,0.00001039,-0.00000579,-0.00002371,-0.00009500,-0.00002697,-0.000659
 48,-0.00035272,-0.00007729,0.00013785,-0.00036110,-0.00014222,0.000124
 79,-0.00007933,-0.00002174,0.00030676,0.00017537,0.00029015,-0.0001461
 8,-0.00024751,-0.00000302,-0.00115604,-0.00008169,-0.00043729,-0.00116
 946,0.00231983,-0.00066041,0.00883244,0.00155475,0.00791807,0.00128406
 ,-0.00400807,-0.00620342,0.14749640,-0.04224294,0.15845657,0.00792077,
 0.01585836,0.04364570,-0.03351490,-0.02264526,-0.00211082,-0.27353861,
 0.05939421,-0.03003024,0.01916621,-0.00197967,-0.07387728,-0.01110469,
 0.00304251,-0.00919057,0.00084662,0.00206197,-0.00024916,-0.09906125,0
 .03980734,0.04609894,-0.00847098,0.01320795,0.02422561,0.00106185,-0.0
 0018423,-0.00150218,-0.06563836,0.02601621,-0.06808105,-0.00200488,0.0
 0413582,-0.00177154,-0.00097432,0.00202952,0.00192028,0.00264201,-0.00
 068849,0.00161434,0.00830456,-0.00713037,-0.00343098,-0.00867279,0.002
 77008,0.00203121,-0.00799717,-0.01439017,0.00267962,0.46397950,0.00847
 916,0.00565072,0.03767160,-0.02264526,-0.01314352,0.00408125,0.0877366
 0,-0.07382546,0.03617452,0.01518657,0.00388775,-0.00961105,0.00820887,
 0.00172828,0.00505453,0.00238202,0.00516754,0.00033354,0.02920504,-0.0
 6534042,-0.03965575,-0.00163204,-0.00236982,0.00442086,0.00981134,-0.0
 1360065,-0.02560767,0.02096204,-0.04254059,0.04054661,0.00156141,-0.00
 284717,0.00151749,-0.00153533,0.00350395,0.00492792,0.00193654,-0.0006
 8818,0.00051347,0.00509337,-0.02130311,-0.00542905,-0.00844167,0.00224
 609,0.00453957,-0.00457440,-0.00826375,0.00163525,-0.17198372,0.176672
 76,0.00265205,0.00289624,-0.00680580,0.00211082,-0.00408125,-0.0640340
 9,-0.06792353,0.01517660,-0.12279150,-0.03120517,0.00824654,-0.0364975
 7,0.01776899,-0.00376035,0.01148049,0.00159397,-0.00076960,-0.00593800
 ,0.03590575,-0.03242432,-0.14710808,-0.00200780,0.00166086,0.00433456,
 -0.00074017,-0.00101188,-0.00191195,-0.06187111,0.04613968,-0.32483978
 ,-0.00431586,-0.00025681,-0.00244918,0.00005833,-0.00087650,-0.0000763
 1,-0.00017654,0.00036193,0.00037632,-0.00006070,-0.00163784,-0.0003713
 2,0.00000227,0.00002282,-0.00285738,-0.00164547,-0.00305346,0.00083040
 ,0.11536604,-0.02146083,0.71099466,-0.10036278,0.01537100,-0.01621122,
 0.00792077,0.00847916,-0.00265205,-0.02195244,-0.00699821,-0.01909399,
 -0.01077919,-0.00222671,0.01128515,0.00007349,0.00011029,-0.00010839,0
 .00033878,0.00055451,0.00048170,0.00016847,-0.00404186,0.00014691,0.00
 013711,0.00119782,0.00131852,0.00047548,0.00034486,0.00096949,0.000159
 17,0.00000641,-0.00066061,-0.00023560,-0.00101533,0.00010900,0.0066809
 7,0.01301825,0.01479712,-0.00290515,0.00667567,-0.00513400,-0.13690857
 ,0.06995129,0.00540161,-0.00103004,0.00285478,-0.02158830,-0.22609199,
 0.06436728,-0.13757040,0.01249173,0.02271187,-0.00503843,0.48280696,0.
 01537100,-0.07103077,-0.03413205,0.01585836,0.00565072,-0.00289624,-0.
 02828941,-0.00303039,-0.02999634,-0.01517206,-0.00062131,0.02214132,-0
 .00051336,-0.00053240,-0.00021720,0.00013156,0.00071554,0.00038024,-0.
 00706299,-0.03112554,-0.00740432,-0.00137291,-0.00067595,-0.00050801,0
 .00018156,-0.00212215,-0.00333317,-0.00211523,-0.00627231,-0.00049116,
 -0.00031322,-0.00137845,0.00052945,0.01703799,-0.00377768,-0.02632212,
 0.00178585,-0.00227592,0.00251759,0.05701274,-0.12213920,-0.00985486,0
 .01556095,-0.00665819,0.01664555,0.07218185,-0.04249681,0.03576503,0.0
 5595013,0.04531108,-0.00624756,-0.22411160,0.24872491,0.01621122,0.034
 13205,-0.31670573,-0.04364570,-0.03767160,-0.00680580,0.02842269,-0.00
 064713,0.02830877,0.02225738,-0.00498798,-0.03273831,-0.00003330,0.000
 16295,0.00055917,0.00048186,0.00070395,-0.00039176,0.00092294,0.009796
 78,-0.00086184,0.00038306,-0.00071792,-0.00000690,-0.00095756,0.001765
 17,-0.00130491,0.00370165,0.00725200,0.00028733,0.00016309,0.00162740,
 -0.00051172,0.03181246,-0.03480727,-0.02261463,0.00341307,-0.00016030,
 0.00402890,0.00801270,-0.03286276,-0.08770128,-0.02895789,0.01363822,-
 0.02455267,-0.14368260,0.02637275,-0.15496406,-0.04107150,-0.03183485,
 -0.01158767,0.16518542,0.03084464,0.64687325,-0.22609199,0.07218185,0.
 14368260,-0.00799717,-0.00457440,0.00164547,0.00098813,-0.00044844,0.0
 0209490,0.00199151,-0.00034659,-0.00201004,0.00007920,0.00004025,-0.00
 003788,0.00005110,0.00006918,-0.00003752,0.00014620,0.00167680,-0.0000
 3432,0.00065604,0.00006028,0.00007318,0.00031760,0.00016920,-0.0002507
 1,0.00009319,0.00007117,-0.00003560,0.00009154,0.00019282,-0.00052373,
 0.00034609,-0.00141134,0.00028985,0.00124251,0.00013393,-0.00237583,-0
 .00037607,0.00364909,-0.00384960,-0.00892282,-0.00302120,0.01416120,-0
 .00047964,-0.00118566,0.00102650,-0.00209495,-0.00136424,-0.00025068,0
 .00901879,-0.00142787,-0.00743853,0.23171438,0.06436728,-0.04249681,-0
 .02637275,-0.01439017,-0.00826375,0.00305346,0.00240895,-0.00102405,0.
 00519068,0.00375660,-0.00135857,-0.00422054,0.00016601,0.00018856,0.00
 001974,0.00008941,0.00012429,-0.00011559,-0.00029658,0.00219003,-0.000
 53460,0.00033924,-0.00037897,0.00028128,0.00010928,0.00037512,-0.00031
 645,0.00004759,0.00001595,-0.00000193,0.00004886,0.00087290,-0.0002631
 7,-0.00042010,-0.00050932,-0.00086506,-0.00227960,0.00015984,-0.000423
 53,0.00274173,0.00233972,0.00105734,0.01360285,-0.00246066,-0.01356460
 ,-0.00118566,-0.00211546,0.00037029,-0.00586095,-0.00304806,0.00136657
 ,0.00056790,0.00413279,-0.00563863,-0.06790306,0.05428330,0.13757040,-
 0.03576503,-0.15496406,-0.00267962,-0.00163525,0.00083040,0.00005379,-
 0.00027218,0.00112523,0.00083309,0.00016567,-0.00075699,0.00002371,0.0
 0009500,-0.00002697,-0.00001203,-0.00001039,-0.00000579,0.00065948,0.0
 0035272,-0.00007729,-0.00013785,0.00036110,-0.00014222,-0.00012479,0.0
 0007933,-0.00002174,0.00014618,0.00024751,-0.00000302,-0.00030676,-0.0
 0017537,0.00029015,0.00116946,-0.00231983,-0.00066041,0.00115604,0.000
 08169,-0.00043729,-0.00128406,0.00400807,-0.00620342,-0.00883244,-0.00
 155475,0.00791807,-0.00102650,-0.00037029,0.00133595,-0.00120652,-0.00
 116092,-0.00078570,0.02310380,-0.00791295,-0.00896651,-0.14749640,0.04
 224294,0.15845657,-0.02000595,0.02930667,0.01518047,-0.00334033,-0.001
 09817,0.00022276,0.00156708,-0.00074310,0.00103345,0.00156709,-0.00074
 311,-0.00103345,0.00027294,0.00025658,-0.00043013,0.00027294,0.0002565
 8,0.00043012,0.00044445,0.00187710,0.,0.00078129,-0.00001533,0.,0.0006
 2151,0.00068662,0.,0.00006978,0.00026027,0.00015861,0.00006978,0.00026
 027,-0.00015861,0.02593651,-0.01002900,-0.00231155,0.02593651,-0.01002
 900,0.00231155,-0.12547160,0.06029504,-0.01662579,-0.12547160,0.060295
 04,0.01662579,-0.00077363,0.00409043,0.00160898,-0.00334033,-0.0010981
 7,-0.00022276,-0.02000595,0.02930667,-0.01518047,-0.00077363,0.0040904
 3,-0.00160898,0.24164316,0.03218263,-0.01039796,-0.02303252,0.00058877
 ,0.00280256,0.00029084,-0.00008084,0.00002241,0.00001017,-0.00008084,0
 .00002241,-0.00001017,-0.00011674,-0.00005887,-0.00001317,-0.00011674,
 -0.00005887,0.00001317,0.00031129,-0.00167928,0.,-0.00021636,0.0002866
 4,0.,0.00030539,-0.00011670,0.,0.00005860,-0.00009591,-0.00007472,0.00
 005860,-0.00009591,0.00007472,-0.01258985,0.02540157,-0.00767095,-0.01
 258985,0.02540157,0.00767095,0.05993195,-0.11308193,0.01102106,0.05993
 195,-0.11308193,-0.01102106,0.00343823,-0.00302684,-0.00354293,0.00058
 877,0.00280256,-0.00029084,0.03218263,-0.01039796,0.02303252,0.0034382
 3,-0.00302684,0.00354293,-0.16722581,0.19837927,0.01474132,-0.02049219
 ,-0.01034363,0.00505991,0.00665648,0.00003788,-0.00121532,-0.00114816,
 0.00043030,0.00121532,0.00114816,0.00043030,-0.00030466,-0.00014706,0.
 00004525,0.00030466,0.00014706,0.00004525,0.,0.,0.00145069,0.,0.,0.000
 19277,0.,0.,0.00126653,0.00034954,0.00029077,0.00038279,-0.00034954,-0
 .00029077,0.00038279,-0.01978030,0.00664547,-0.10793000,0.01978030,-0.
 00664547,-0.10792999,-0.02359387,0.01839162,-0.06656250,0.02359387,-0.
 01839162,-0.06656251,-0.00136711,0.00126545,0.00309503,-0.00505991,-0.
 00665649,0.00003789,-0.01474132,0.02049219,-0.01034363,0.00136711,-0.0
 0126545,0.00309503,0.,0.,0.35877978\\0.00000291,-0.00000646,-0.0000214
 4,0.00001280,0.00000390,-0.00002205,-0.00002150,0.00000270,0.00003186,
 -0.00002150,0.00000270,-0.00003186,-0.00000239,0.00000002,0.00000187,-
 0.00000239,0.00000002,-0.00000187,0.00001511,-0.00002047,0.,0.00000575
 ,0.00000042,0.,0.00000110,-0.00000303,0.,0.00000113,-0.00000185,0.0000
 0526,0.00000113,-0.00000185,-0.00000526,-0.00000975,0.00000706,0.00002
 944,-0.00000975,0.00000706,-0.00002944,0.00000746,-0.00000623,-0.00000
 945,0.00000746,-0.00000623,0.00000945,0.00000531,0.00000315,0.00000136
 ,0.00001280,0.00000390,0.00002205,0.00000291,-0.00000646,0.00002144,0.
 00000531,0.00000315,-0.00000136,-0.00001388,0.00001855,0.\\\@


 The best way to pay for a lovely moment is to enjoy it.
 -- Richard Bach
 Job cpu time:       0 days  3 hours  8 minutes 55.8 seconds.
 Elapsed time:       0 days  0 hours 15 minutes 53.5 seconds.
 File lengths (MBytes):  RWF=    221 Int=      0 D2E=      0 Chk=     32 Scr=      1
 Normal termination of Gaussian 16 at Sat Jun 11 23:11:55 2022.
