 Entering Gaussian System, Link 0=g16
 Input=ts_zmat_field_N50.gjf
 Output=ts_zmat_field_N50.out
 Initial command:
 /software/gaussian/g16-a03/l1.exe "/local_scratch/11171834/Gau-20541.inp" -scrdir="/local_scratch/11171834/"
 Entering Link 1 = /software/gaussian/g16-a03/l1.exe PID=     20542.
  
 Copyright (c) 1988,1990,1992,1993,1995,1998,2003,2009,2016,
            Gaussian, Inc.  All Rights Reserved.
  
 This is part of the Gaussian(R) 16 program.  It is based on
 the Gaussian(R) 09 system (copyright 2009, Gaussian, Inc.),
 the Gaussian(R) 03 system (copyright 2003, Gaussian, Inc.),
 the Gaussian(R) 98 system (copyright 1998, Gaussian, Inc.),
 the Gaussian(R) 94 system (copyright 1995, Gaussian, Inc.),
 the Gaussian 92(TM) system (copyright 1992, Gaussian, Inc.),
 the Gaussian 90(TM) system (copyright 1990, Gaussian, Inc.),
 the Gaussian 88(TM) system (copyright 1988, Gaussian, Inc.),
 the Gaussian 86(TM) system (copyright 1986, Carnegie Mellon
 University), and the Gaussian 82(TM) system (copyright 1983,
 Carnegie Mellon University). Gaussian is a federally registered
 trademark of Gaussian, Inc.
  
 This software contains proprietary and confidential information,
 including trade secrets, belonging to Gaussian, Inc.
  
 This software is provided under written license and may be
 used, copied, transmitted, or stored only in accord with that
 written license.
  
 The following legend is applicable only to US Government
 contracts under FAR:
  
                    RESTRICTED RIGHTS LEGEND
  
 Use, reproduction and disclosure by the US Government is
 subject to restrictions as set forth in subparagraphs (a)
 and (c) of the Commercial Computer Software - Restricted
 Rights clause in FAR 52.227-19.
  
 Gaussian, Inc.
 340 Quinnipiac St., Bldg. 40, Wallingford CT 06492
  
  
 ---------------------------------------------------------------
 Warning -- This program may not be used in any manner that
 competes with the business of Gaussian, Inc. or will provide
 assistance to any competitor of Gaussian, Inc.  The licensee
 of this program is prohibited from giving any competitor of
 Gaussian, Inc. access to this program.  By using this program,
 the user acknowledges that Gaussian, Inc. is engaged in the
 business of creating and licensing software in the field of
 computational chemistry and represents and warrants to the
 licensee that it is not a competitor of Gaussian, Inc. and that
 it will not use this program in any manner prohibited above.
 ---------------------------------------------------------------
  

 Cite this work as:
 Gaussian 16, Revision A.03,
 M. J. Frisch, G. W. Trucks, H. B. Schlegel, G. E. Scuseria, 
 M. A. Robb, J. R. Cheeseman, G. Scalmani, V. Barone, 
 G. A. Petersson, H. Nakatsuji, X. Li, M. Caricato, A. V. Marenich, 
 J. Bloino, B. G. Janesko, R. Gomperts, B. Mennucci, H. P. Hratchian, 
 J. V. Ortiz, A. F. Izmaylov, J. L. Sonnenberg, D. Williams-Young, 
 F. Ding, F. Lipparini, F. Egidi, J. Goings, B. Peng, A. Petrone, 
 T. Henderson, D. Ranasinghe, V. G. Zakrzewski, J. Gao, N. Rega, 
 G. Zheng, W. Liang, M. Hada, M. Ehara, K. Toyota, R. Fukuda, 
 J. Hasegawa, M. Ishida, T. Nakajima, Y. Honda, O. Kitao, H. Nakai, 
 T. Vreven, K. Throssell, J. A. Montgomery, Jr., J. E. Peralta, 
 F. Ogliaro, M. J. Bearpark, J. J. Heyd, E. N. Brothers, K. N. Kudin, 
 V. N. Staroverov, T. A. Keith, R. Kobayashi, J. Normand, 
 K. Raghavachari, A. P. Rendell, J. C. Burant, S. S. Iyengar, 
 J. Tomasi, M. Cossi, J. M. Millam, M. Klene, C. Adamo, R. Cammi, 
 J. W. Ochterski, R. L. Martin, K. Morokuma, O. Farkas, 
 J. B. Foresman, and D. J. Fox, Gaussian, Inc., Wallingford CT, 2016.
 
 ******************************************
 Gaussian 16:  ES64L-G16RevA.03 25-Dec-2016
                10-Jun-2022 
 ******************************************
 %nprocshared=12
 Will use up to   12 processors via shared memory.
 %chk=checkpoint.chk
 %mem=12GB
 ----------------------------------------------------------------------
 # Opt=(TS, CalcFC, noeigentest, Z-matrix, MaxStep=10) geom=allcheckpoi
 nt guess=read Field=read NoSymm B3LYP/Def2TZVP freq=noraman pop=none
 ----------------------------------------------------------------------
 1/5=1,8=10,10=4,11=1,18=40,26=3,29=7,38=1/1,3;
 2/12=2,15=1,29=3,40=1/2;
 3/5=44,7=101,11=2,14=-6,25=1,30=1,71=2,74=-5,116=-2,140=1/1,2,3;
 4/5=1/1;
 5/5=2,38=6/2;
 8/6=4,10=90,11=11/1;
 11/6=1,8=1,9=11,15=111,16=1,31=1/1,2,10;
 10/6=1,13=1,31=1/2;
 7/10=1,18=20,25=1,30=1/1,2,3,16;
 1/5=1,8=10,10=4,11=1,18=40,26=3/3(2);
 2/15=1,29=3/2;
 99//99;
 2/15=1,29=3/2;
 3/5=44,7=101,11=2,14=-2,25=1,30=1,71=1,74=-5/1,2,3;
 4/5=5,16=3,69=1/1;
 5/5=2,38=5/2;
 7/30=1/1,2,3,16;
 1/5=1,8=10,11=1,18=40,26=3/3(-5);
 2/15=1,29=3/2;
 99/9=1/99;
 Structure from the checkpoint file:  "checkpoint.chk"
 -----------------
 ts_zmat_initalOpt
 -----------------
 Charge =  0 Multiplicity = 1
 Z-Matrix found in chk file.
 C
 C,1,R2
 C,1,R3,2,A3
 H,1,R4,2,A4,3,D4,0
 H,2,R5,1,A5,3,D5,0
 H,3,R6,1,A6,2,D6,0
 C,3,R7,1,A7,6,D7,0
 C,2,R8,1,A8,5,D8,0
 H,7,R9,3,A9,1,D9,0
 O,7,R10,3,A10,9,D10,0
 H,8,R11,2,A11,1,D11,0
 H,8,R12,2,A12,11,D12,0
      Variables:
 R2=1.3871809
 R3=1.40057934
 R4=1.0856614
 R5=1.0828348
 R6=1.08140577
 R7=1.40990461
 R8=1.39241391
 R9=1.09695213
 R10=1.26003325
 R11=1.0826412
 R12=1.0812142
 A3=120.79742959
 A4=120.12090149
 A5=120.91611721
 A6=119.67461486
 A7=119.00575037
 A8=117.21946072
 A9=115.63708419
 A10=128.19528053
 A11=120.77920819
 A12=118.41886266
 D4=-169.14815493
 D5=149.67995844
 D6=-177.53198641
 D7=154.63121453
 D8=-170.5202162
 D9=-143.35788004
 D10=171.40367379
 D11=163.56069163
 D12=152.14944866
 Recover connectivity data from disk.

 GradGradGradGradGradGradGradGradGradGradGradGradGradGradGradGradGradGrad
 Berny optimization.
 Initialization pass.
                       ----------------------------
                       !    Initial Parameters    !
                       ! (Angstroms and Degrees)  !
 ----------------------                            ----------------------
 !      Name          Value   Derivative information (Atomic Units)     !
 ------------------------------------------------------------------------
 !       R2          1.3872   calculate D2E/DX2 analytically            !
 !       R3          1.4006   calculate D2E/DX2 analytically            !
 !       R4          1.0857   calculate D2E/DX2 analytically            !
 !       R5          1.0828   calculate D2E/DX2 analytically            !
 !       R6          1.0814   calculate D2E/DX2 analytically            !
 !       R7          1.4099   calculate D2E/DX2 analytically            !
 !       R8          1.3924   calculate D2E/DX2 analytically            !
 !       R9          1.097    calculate D2E/DX2 analytically            !
 !       R10         1.26     calculate D2E/DX2 analytically            !
 !       R11         1.0826   calculate D2E/DX2 analytically            !
 !       R12         1.0812   calculate D2E/DX2 analytically            !
 !       A3        120.7974   calculate D2E/DX2 analytically            !
 !       A4        120.1209   calculate D2E/DX2 analytically            !
 !       A5        120.9161   calculate D2E/DX2 analytically            !
 !       A6        119.6746   calculate D2E/DX2 analytically            !
 !       A7        119.0058   calculate D2E/DX2 analytically            !
 !       A8        117.2195   calculate D2E/DX2 analytically            !
 !       A9        115.6371   calculate D2E/DX2 analytically            !
 !       A10       128.1953   calculate D2E/DX2 analytically            !
 !       A11       120.7792   calculate D2E/DX2 analytically            !
 !       A12       118.4189   calculate D2E/DX2 analytically            !
 !       D4       -169.1482   calculate D2E/DX2 analytically            !
 !       D5        149.68     calculate D2E/DX2 analytically            !
 !       D6       -177.532    calculate D2E/DX2 analytically            !
 !       D7        154.6312   calculate D2E/DX2 analytically            !
 !       D8       -170.5202   calculate D2E/DX2 analytically            !
 !       D9       -143.3579   calculate D2E/DX2 analytically            !
 !       D10       171.4037   calculate D2E/DX2 analytically            !
 !       D11       163.5607   calculate D2E/DX2 analytically            !
 !       D12       152.1494   calculate D2E/DX2 analytically            !
 ------------------------------------------------------------------------
 Trust Radius=1.00D-01 FncErr=1.00D-07 GrdErr=1.00D-06 EigMax=2.50D+02 EigMin=1.00D-04
 Number of steps in this run=     40 maximum allowed number of steps=    100.
 Search for a saddle point of order  1.
 GradGradGradGradGradGradGradGradGradGradGradGradGradGradGradGradGradGrad

 ---------------------------------------------------------------------------------------------------
                            Z-MATRIX (ANGSTROMS AND DEGREES)
   CD    Cent   Atom    N1       Length/X        N2       Alpha/Y        N3        Beta/Z          J
 ---------------------------------------------------------------------------------------------------
      1      1  C 
      2      2  C        1   1.387181(     1)
      3      3  C        1   1.400579(     2)      2  120.797(    12)
      4      4  H        1   1.085661(     3)      2  120.121(    13)      3 -169.148(    22)      0
      5      5  H        2   1.082835(     4)      1  120.916(    14)      3  149.680(    23)      0
      6      6  H        3   1.081406(     5)      1  119.675(    15)      2 -177.532(    24)      0
      7      7  C        3   1.409905(     6)      1  119.006(    16)      6  154.631(    25)      0
      8      8  C        2   1.392414(     7)      1  117.219(    17)      5 -170.520(    26)      0
      9      9  H        7   1.096952(     8)      3  115.637(    18)      1 -143.358(    27)      0
     10     10  O        7   1.260033(     9)      3  128.195(    19)      9  171.404(    28)      0
     11     11  H        8   1.082641(    10)      2  120.779(    20)      1  163.561(    29)      0
     12     12  H        8   1.081214(    11)      2  118.419(    21)     11  152.149(    30)      0
 ---------------------------------------------------------------------------------------------------
                         Z-Matrix orientation:                         
 ---------------------------------------------------------------------
 Center     Atomic      Atomic             Coordinates (Angstroms)
 Number     Number       Type             X           Y           Z
 ---------------------------------------------------------------------
      1          6           0        0.000000    0.000000    0.000000
      2          6           0        0.000000    0.000000    1.387181
      3          6           0        1.203074    0.000000   -0.717103
      4          1           0       -0.922270    0.176797   -0.544813
      5          1           0       -0.801918    0.468980    1.943523
      6          1           0        1.182329    0.040460   -1.797552
      7          6           0        2.371896    0.479829   -0.091444
      8          6           0        1.157210   -0.440514    2.024071
      9          1           0        3.062409    1.035329   -0.737909
     10          8           0        2.653879    0.480999    1.136631
     11          1           0        1.329935   -0.224606    3.070810
     12          1           0        1.639598   -1.334643    1.654128
 ---------------------------------------------------------------------
                    Distance matrix (angstroms):
                    1          2          3          4          5
     1  C    0.000000
     2  C    1.387181   0.000000
     3  C    1.400579   2.423922   0.000000
     4  H    1.085661   2.148125   2.139632   0.000000
     5  H    2.154134   1.082835   3.364352   2.508320   0.000000
     6  H    2.151914   3.397361   1.081406   2.453014   4.256349
     7  C    2.421671   2.835923   1.409905   3.338997   3.770187
     8  C    2.372773   1.392414   2.776723   3.362213   2.161446
     9  H    3.315835   3.868625   2.128254   4.080689   4.737495
    10  O    2.926835   2.708728   2.402608   3.963412   3.548768
    11  H    3.353960   2.157263   3.796686   4.278584   2.509310
    12  H    2.684342   2.130919   2.755823   3.699049   3.049231
                    6          7          8          9         10
     6  H    0.000000
     7  C    2.125775   0.000000
     8  C    3.851853   2.607278   0.000000
     9  H    2.376406   1.096952   3.665573   0.000000
    10  O    3.311942   1.260033   1.968947   1.997017   0.000000
    11  H    4.877806   3.403199   1.082641   4.369810   2.447806
    12  H    3.743541   2.622135   1.081214   3.655544   2.143158
                   11         12
    11  H    0.000000
    12  H    1.826215   0.000000
 Symmetry turned off by external request.
 Stoichiometry    C5H6O
 Framework group  C1[X(C5H6O)]
 Deg. of freedom    30
 Full point group                 C1      NOp   1
 Rotational constants (GHZ):           5.5433144           4.6745945           2.7099855
 Standard basis: def2TZVP (5D, 7F)
 The following finite field(s) will be applied:
 An electric field of              0.0034  0.0034  0.0015
   222 basis functions,   354 primitive gaussians,   252 cartesian basis functions
    22 alpha electrons       22 beta electrons
       nuclear repulsion energy       217.9207673881 Hartrees.
 NAtoms=   12 NActive=   12 NUniq=   12 SFac= 1.00D+00 NAtFMM=   60 NAOKFM=F Big=F
 Integral buffers will be    131072 words long.
 Raffenetti 2 integral format.
 Two-electron integral symmetry is turned off.
 One-electron integrals computed using PRISM.
   1 Symmetry operations used in ECPInt.
 ECPInt:  NShTT=    4095 NPrTT=   12396 LenC2=    4075 LenP2D=   10363.
 LDataN:  DoStor=T MaxTD1= 6 Len=  172
 NBasis=   222 RedAO= T EigKep=  1.15D-04  NBF=   222
 NBsUse=   222 1.00D-06 EigRej= -1.00D+00 NBFU=   222
 The nuclear repulsion energy is now       218.3778733198 hartrees.
 Initial guess from the checkpoint file:  "checkpoint.chk"
 B after Tr=     0.000000   -0.000000   -0.000000
         Rot=    1.000000    0.000000   -0.000000   -0.000000 Ang=   0.00 deg.
 Keep R1 ints in memory in canonical form, NReq=319363861.
 Requested convergence on RMS density matrix=1.00D-08 within 128 cycles.
 Requested convergence on MAX density matrix=1.00D-06.
 Requested convergence on             energy=1.00D-06.
 No special actions if energy rises.
 SCF Done:  E(RB3LYP) =  -269.394168530     A.U. after   10 cycles
            NFock= 10  Conv=0.91D-08     -V/T= 2.0050
 DoSCS=F DFT=T ScalE2(SS,OS)=  1.000000  1.000000
 Range of M.O.s used for correlation:     1   222
 NBasis=   222 NAE=    22 NBE=    22 NFC=     0 NFV=     0
 NROrb=    222 NOA=    22 NOB=    22 NVA=   200 NVB=   200

 **** Warning!!: The largest alpha MO coefficient is  0.19243419D+02

   1 Symmetry operations used in ECPInt.
 ECPInt:  NShTT=    4095 NPrTT=   12396 LenC2=    4075 LenP2D=   10363.
 LDataN:  DoStor=T MaxTD1= 7 Len=  274
 Symmetrizing basis deriv contribution to polar:
 IMax=3 JMax=2 DiffMx= 0.00D+00
 G2DrvN: will do    13 centers at a time, making    1 passes.
 Calling FoFCou, ICntrl=  3107 FMM=F I1Cent=   0 AccDes= 0.00D+00.
 End of G2Drv F.D. properties file   721 does not exist.
 End of G2Drv F.D. properties file   722 does not exist.
 End of G2Drv F.D. properties file   788 does not exist.
          IDoAtm=111111111111
          Differentiating once with respect to nuclear coordinates.
 Keep R1 ints in memory in canonical form, NReq=319333990.
          There are    39 degrees of freedom in the 1st order CPHF.  IDoFFX=6 NUNeed=     0.
     33 vectors produced by pass  0 Test12= 1.13D-14 2.56D-09 XBig12= 1.46D-01 1.66D-01.
 AX will form    33 AO Fock derivatives at one time.
     33 vectors produced by pass  1 Test12= 1.13D-14 2.56D-09 XBig12= 1.92D-02 4.21D-02.
     33 vectors produced by pass  2 Test12= 1.13D-14 2.56D-09 XBig12= 2.51D-04 3.25D-03.
     33 vectors produced by pass  3 Test12= 1.13D-14 2.56D-09 XBig12= 1.08D-06 1.44D-04.
     33 vectors produced by pass  4 Test12= 1.13D-14 2.56D-09 XBig12= 2.64D-09 6.70D-06.
     30 vectors produced by pass  5 Test12= 1.13D-14 2.56D-09 XBig12= 5.25D-12 3.18D-07.
      9 vectors produced by pass  6 Test12= 1.13D-14 2.56D-09 XBig12= 7.90D-15 1.29D-08.
 InvSVY:  IOpt=1 It=  1 EMax= 2.22D-15
 Solved reduced A of dimension   204 with    33 vectors.
 End of Minotr F.D. properties file   721 does not exist.
 End of Minotr F.D. properties file   722 does not exist.
 End of Minotr F.D. properties file   788 does not exist.
   1 Symmetry operations used in ECPInt.
 ECPInt:  NShTT=    4095 NPrTT=   12396 LenC2=    4075 LenP2D=   10363.
 LDataN:  DoStor=T MaxTD1= 8 Len=  415
 Calling FoFJK, ICntrl=    100147 FMM=F ISym2X=0 I1Cent= 0 IOpClX= 0 NMat=1 NMatS=1 NMatT=0.
 -------------------------------------------------------------------
 Center     Atomic                   Forces (Hartrees/Bohr)
 Number     Number              X              Y              Z
 -------------------------------------------------------------------
      1        6          -0.000552745   -0.000679463    0.000222549
      2        6           0.000749410    0.000742800    0.000211021
      3        6           0.001227549    0.001238754    0.000085534
      4        1           0.000096397   -0.000256151    0.000046498
      5        1          -0.000164694   -0.000300377   -0.000054666
      6        1          -0.000083760   -0.000238757    0.000029218
      7        6          -0.001625207   -0.000878955   -0.001663885
      8        6          -0.001278125   -0.000533662   -0.000074157
      9        1           0.000050295    0.000070072   -0.000357927
     10        8           0.001770141    0.000906813    0.001410618
     11        1          -0.000146698   -0.000119307    0.000121416
     12        1          -0.000042562    0.000048231    0.000023780
 -------------------------------------------------------------------
 Cartesian Forces:  Max     0.001770141 RMS     0.000736512
 -----------------------------------------------------------------------------------------------
                       Internal Coordinate Forces (Hartree/Bohr or radian)
  Cent   Atom   N1       Length/X         N2         Alpha/Y        N3         Beta/Z          J
 -----------------------------------------------------------------------------------------------
      1  C 
      2  C        1   0.000227(     1)
      3  C        1   0.001404(     2)      2   0.004829(    12)
      4  H        1  -0.000147(     3)      2   0.000065(    13)      3  -0.000414(    22)     0
      5  H        2  -0.000036(     4)      1  -0.000086(    14)      3  -0.001950(    23)     0
      6  H        3  -0.000037(     5)      1  -0.000162(    15)      2  -0.003340(    24)     0
      7  C        3  -0.000076(     6)      1   0.005345(    16)      6  -0.002915(    25)     0
      8  C        2  -0.000996(     7)      1   0.001759(    17)      5  -0.002551(    26)     0
      9  H        7   0.000278(     8)      3  -0.000491(    18)      1  -0.000472(    27)     0
     10  O        7   0.001772(     9)      3   0.003958(    19)      9  -0.000387(    28)     0
     11  H        8   0.000070(    10)      2  -0.000154(    20)      1   0.000330(    29)     0
     12  H        8  -0.000067(    11)      2  -0.000018(    21)     11  -0.000021(    30)     0
 -----------------------------------------------------------------------------------------------
 Internal  Forces:  Max     0.005345339 RMS     0.001896010

 GradGradGradGradGradGradGradGradGradGradGradGradGradGradGradGradGradGrad
 Berny optimization.
 Search for a saddle point.
 Step number   1 out of a maximum of   40
 All quantities printed in internal units (Hartrees-Bohrs-Radians)
 Swapping is turned off.
 Second derivative matrix not updated -- analytic derivatives used.
 ITU=  0
     Eigenvalues ---   -0.74227   0.02569   0.02782   0.04008   0.04155
     Eigenvalues ---    0.04944   0.10689   0.12659   0.14354   0.16538
     Eigenvalues ---    0.18524   0.19802   0.25025   0.27136   0.29508
     Eigenvalues ---    0.32149   0.34558   0.34986   0.35351   0.35634
     Eigenvalues ---    0.36364   0.39309   0.40009   0.43626   0.46342
     Eigenvalues ---    0.52908   0.57076   0.70735   0.91575   2.75236
 Eigenvectors required to have negative eigenvalues:
                          A7        A3        D12       R8        R10
   1                    0.46404   0.41764   0.29787  -0.27593  -0.26677
                          A8        A10       R7        D11       R2
   1                    0.26044   0.23577   0.23510   0.22247   0.19432
 RFO step:  Lambda0=5.398771792D-05 Lambda=-9.32719476D-05.
 Linear search not attempted -- option 19 set.
 Variable       Old X    -DE/DX   Delta X   Delta X   Delta X     New X
                                 (Linear)    (Quad)   (Total)
    R2        2.62139   0.00023   0.00000  -0.00325  -0.00325   2.61814
    R3        2.64671   0.00140   0.00000   0.00332   0.00332   2.65003
    R4        2.05160  -0.00015   0.00000  -0.00062  -0.00062   2.05098
    R5        2.04626  -0.00004   0.00000  -0.00029  -0.00029   2.04597
    R6        2.04356  -0.00004   0.00000  -0.00026  -0.00026   2.04330
    R7        2.66433  -0.00008   0.00000  -0.00588  -0.00588   2.65846
    R8        2.63128  -0.00100   0.00000   0.00163   0.00163   2.63291
    R9        2.07294   0.00028   0.00000   0.00021   0.00021   2.07315
   R10        2.38112   0.00177   0.00000   0.00641   0.00641   2.38753
   R11        2.04590   0.00007   0.00000   0.00023   0.00023   2.04612
   R12        2.04320  -0.00007   0.00000   0.00020   0.00020   2.04339
    A3        2.10831   0.00483   0.00000  -0.00175  -0.00175   2.10656
    A4        2.09651   0.00006   0.00000   0.00205   0.00205   2.09856
    A5        2.11038  -0.00009   0.00000   0.00272   0.00272   2.11311
    A6        2.08872  -0.00016   0.00000   0.00004   0.00004   2.08875
    A7        2.07704   0.00535   0.00000   0.00060   0.00060   2.07764
    A8        2.04587   0.00176   0.00000  -0.00174  -0.00174   2.04413
    A9        2.01825  -0.00049   0.00000   0.00015   0.00015   2.01840
   A10        2.23743   0.00396   0.00000   0.00208   0.00208   2.23951
   A11        2.10799  -0.00015   0.00000  -0.00115  -0.00115   2.10684
   A12        2.06680  -0.00002   0.00000  -0.00140  -0.00140   2.06540
    D4       -2.95219  -0.00041   0.00000  -0.00769  -0.00769  -2.95988
    D5        2.61241  -0.00195   0.00000   0.02051   0.02051   2.63292
    D6       -3.09852  -0.00334   0.00000  -0.01286  -0.01286  -3.11138
    D7        2.69882  -0.00292   0.00000   0.00795   0.00795   2.70677
    D8       -2.97614  -0.00255   0.00000  -0.01428  -0.01428  -2.99042
    D9       -2.50207  -0.00047   0.00000  -0.00710  -0.00710  -2.50917
   D10        2.99156  -0.00039   0.00000  -0.00018  -0.00018   2.99138
   D11        2.85467   0.00033   0.00000   0.00633   0.00633   2.86100
   D12        2.65551  -0.00002   0.00000  -0.00763  -0.00763   2.64788
         Item               Value     Threshold  Converged?
 Maximum Force            0.005345     0.000450     NO 
 RMS     Force            0.001896     0.000300     NO 
 Maximum Displacement     0.020512     0.001800     NO 
 RMS     Displacement     0.006291     0.001200     NO 
 Predicted change in Energy=-1.969219D-05
 GradGradGradGradGradGradGradGradGradGradGradGradGradGradGradGradGradGrad

 ---------------------------------------------------------------------------------------------------
                            Z-MATRIX (ANGSTROMS AND DEGREES)
   CD    Cent   Atom    N1       Length/X        N2       Alpha/Y        N3        Beta/Z          J
 ---------------------------------------------------------------------------------------------------
      1      1  C 
      2      2  C        1   1.385459(     1)
      3      3  C        1   1.402338(     2)      2  120.697(    12)
      4      4  H        1   1.085333(     3)      2  120.238(    13)      3 -169.589(    22)      0
      5      5  H        2   1.082683(     4)      1  121.072(    14)      3  150.855(    23)      0
      6      6  H        3   1.081267(     5)      1  119.677(    15)      2 -178.269(    24)      0
      7      7  C        3   1.406794(     6)      1  119.040(    16)      6  155.087(    25)      0
      8      8  C        2   1.393277(     7)      1  117.120(    17)      5 -171.338(    26)      0
      9      9  H        7   1.097061(     8)      3  115.646(    18)      1 -143.765(    27)      0
     10     10  O        7   1.263427(     9)      3  128.315(    19)      9  171.393(    28)      0
     11     11  H        8   1.082762(    10)      2  120.713(    20)      1  163.923(    29)      0
     12     12  H        8   1.081318(    11)      2  118.339(    21)     11  151.713(    30)      0
 ---------------------------------------------------------------------------------------------------
                         Z-Matrix orientation:                         
 ---------------------------------------------------------------------
 Center     Atomic      Atomic             Coordinates (Angstroms)
 Number     Number       Type             X           Y           Z
 ---------------------------------------------------------------------
      1          6           0        0.000000    0.000000    0.000000
      2          6           0        0.000000    0.000000    1.385459
      3          6           0        1.205842    0.000000   -0.715889
      4          1           0       -0.922221    0.169450   -0.546574
      5          1           0       -0.809930    0.451631    1.944247
      6          1           0        1.186810    0.028378   -1.796616
      7          6           0        2.370222    0.484172   -0.092298
      8          6           0        1.161690   -0.433946    2.020587
      9          1           0        3.063726    1.032541   -0.741827
     10          8           0        2.650732    0.498997    1.139507
     11          1           0        1.331017   -0.222014    3.068818
     12          1           0        1.647340   -1.325739    1.648973
 ---------------------------------------------------------------------
                    Distance matrix (angstroms):
                    1          2          3          4          5
     1  C    0.000000
     2  C    1.385459   0.000000
     3  C    1.402338   2.422750   0.000000
     4  H    1.085333   2.147546   2.141502   0.000000
     5  H    2.154078   1.082683   3.368031   2.509268   0.000000
     6  H    2.153404   3.396309   1.081267   2.455711   4.261475
     7  C    2.420929   2.834809   1.406794   3.338503   3.776499
     8  C    2.370782   1.393277   2.771022   3.361114   2.162720
     9  H    3.317056   3.870129   2.125687   4.082992   4.749490
    10  O    2.928115   2.708482   2.403997   3.964526   3.553313
    11  H    3.352393   2.157451   3.793279   4.278012   2.510401
    12  H    2.681497   2.130904   2.746830   3.695763   3.047033
                    6          7          8          9         10
     6  H    0.000000
     7  C    2.124361   0.000000
     8  C    3.845181   2.601495   0.000000
     9  H    2.375655   1.097061   3.660499   0.000000
    10  O    3.314418   1.263427   1.965689   1.998662   0.000000
    11  H    4.874006   3.401661   1.082762   4.370034   2.446170
    12  H    3.730657   2.613496   1.081318   3.644661   2.143831
                   11         12
    11  H    0.000000
    12  H    1.825987   0.000000
 Symmetry turned off by external request.
 Stoichiometry    C5H6O
 Framework group  C1[X(C5H6O)]
 Deg. of freedom    30
 Full point group                 C1      NOp   1
 Rotational constants (GHZ):           5.5496394           4.6756236           2.7127083
 Standard basis: def2TZVP (5D, 7F)
 The following finite field(s) will be applied:
 An electric field of              0.0034  0.0034  0.0015
   222 basis functions,   354 primitive gaussians,   252 cartesian basis functions
    22 alpha electrons       22 beta electrons
       nuclear repulsion energy       217.9544051497 Hartrees.
 NAtoms=   12 NActive=   12 NUniq=   12 SFac= 1.00D+00 NAtFMM=   60 NAOKFM=F Big=F
 Integral buffers will be    131072 words long.
 Raffenetti 2 integral format.
 Two-electron integral symmetry is turned off.
 One-electron integrals computed using PRISM.
   1 Symmetry operations used in ECPInt.
 ECPInt:  NShTT=    4095 NPrTT=   12396 LenC2=    4075 LenP2D=   10363.
 LDataN:  DoStor=T MaxTD1= 6 Len=  172
 NBasis=   222 RedAO= T EigKep=  1.13D-04  NBF=   222
 NBsUse=   222 1.00D-06 EigRej= -1.00D+00 NBFU=   222
 The nuclear repulsion energy is now       218.4127185759 hartrees.
 Initial guess from the checkpoint file:  "checkpoint.chk"
 B after Tr=     0.002766   -0.007882   -0.002423
         Rot=    0.999996    0.001189    0.000451   -0.002701 Ang=   0.34 deg.
 ExpMin= 9.52D-02 ExpMax= 2.70D+04 ExpMxC= 9.22D+02 IAcc=2 IRadAn=         4 AccDes= 0.00D+00
 Harris functional with IExCor=  402 and IRadAn=       4 diagonalized for initial guess.
 HarFok:  IExCor=  402 AccDes= 0.00D+00 IRadAn=         4 IDoV= 1 UseB2=F ITyADJ=14
 ICtDFT=  3500011 ScaDFX=  1.000000  1.000000  1.000000  1.000000
 FoFCou: FMM=F IPFlag=           0 FMFlag=      100000 FMFlg1=           0
         NFxFlg=           0 DoJE=T BraDBF=F KetDBF=T FulRan=T
         wScrn=  0.000000 ICntrl=       500 IOpCl=  0 I1Cent=   200000004 NGrid=           0
         NMat0=    1 NMatS0=      1 NMatT0=    0 NMatD0=    1 NMtDS0=    0 NMtDT0=    0
 Symmetry not used in FoFCou.
 Keep R1 ints in memory in canonical form, NReq=319363861.
 Requested convergence on RMS density matrix=1.00D-08 within 128 cycles.
 Requested convergence on MAX density matrix=1.00D-06.
 Requested convergence on             energy=1.00D-06.
 No special actions if energy rises.
 Integral accuracy reduced to 1.0D-05 until final iterations.
 Initial convergence to 1.0D-05 achieved.  Increase integral accuracy.
 SCF Done:  E(RB3LYP) =  -269.394188085     A.U. after   12 cycles
            NFock= 12  Conv=0.40D-08     -V/T= 2.0050
   1 Symmetry operations used in ECPInt.
 ECPInt:  NShTT=    4095 NPrTT=   12396 LenC2=    4075 LenP2D=   10363.
 LDataN:  DoStor=T MaxTD1= 7 Len=  274
 Calling FoFJK, ICntrl=      2127 FMM=F ISym2X=0 I1Cent= 0 IOpClX= 0 NMat=1 NMatS=1 NMatT=0.
 -------------------------------------------------------------------
 Center     Atomic                   Forces (Hartrees/Bohr)
 Number     Number              X              Y              Z
 -------------------------------------------------------------------
      1        6           0.000007232   -0.001244795   -0.000009382
      2        6          -0.000007734    0.000590110    0.000010608
      3        6          -0.000007922    0.000662666   -0.000007927
      4        1          -0.000001330   -0.000003939   -0.000000210
      5        1          -0.000004681   -0.000001129   -0.000001954
      6        1          -0.000001846   -0.000003790   -0.000001245
      7        6           0.000010242    0.000026140   -0.000027169
      8        6           0.000004716    0.000000582    0.000010009
      9        1           0.000003363   -0.000000623   -0.000004768
     10        8          -0.000004100   -0.000028705    0.000033333
     11        1           0.000000255    0.000002229    0.000000264
     12        1           0.000001805    0.000001255   -0.000001561
 -------------------------------------------------------------------
 Cartesian Forces:  Max     0.001244795 RMS     0.000255007
 -----------------------------------------------------------------------------------------------
                       Internal Coordinate Forces (Hartree/Bohr or radian)
  Cent   Atom   N1       Length/X         N2         Alpha/Y        N3         Beta/Z          J
 -----------------------------------------------------------------------------------------------
      1  C 
      2  C        1   0.000017(     1)
      3  C        1   0.000004(     2)      2   0.000005(    12)
      4  H        1   0.000001(     3)      2  -0.000000(    13)      3  -0.000007(    22)     0
      5  H        2   0.000002(     4)      1  -0.000007(    14)      3   0.000025(    23)     0
      6  H        3   0.000001(     5)      1  -0.000004(    15)      2   0.000069(    24)     0
      7  C        3   0.000007(     6)      1  -0.000017(    16)      6   0.000076(    25)     0
      8  C        2   0.000008(     7)      1   0.000014(    17)      5   0.000019(    26)     0
      9  H        7   0.000005(     8)      3  -0.000004(    18)      1   0.000034(    27)     0
     10  O        7   0.000031(     9)      3  -0.000054(    19)      9   0.000040(    28)     0
     11  H        8   0.000001(    10)      2  -0.000002(    20)      1   0.000001(    29)     0
     12  H        8   0.000000(    11)      2   0.000001(    21)     11   0.000005(    30)     0
 -----------------------------------------------------------------------------------------------
 Internal  Forces:  Max     0.000075608 RMS     0.000025359

 GradGradGradGradGradGradGradGradGradGradGradGradGradGradGradGradGradGrad
 Berny optimization.
 Search for a saddle point.
 Step number   2 out of a maximum of   40
 All quantities printed in internal units (Hartrees-Bohrs-Radians)
 Swapping is turned off.
 Update second derivatives using D2CorN and points    1    2
 ITU=  0  0
     Eigenvalues ---   -0.74242   0.02576   0.02777   0.04012   0.04155
     Eigenvalues ---    0.04950   0.10686   0.12659   0.14355   0.16536
     Eigenvalues ---    0.18524   0.19816   0.25035   0.27136   0.29508
     Eigenvalues ---    0.32149   0.34558   0.34986   0.35351   0.35634
     Eigenvalues ---    0.36364   0.39310   0.40012   0.43631   0.46343
     Eigenvalues ---    0.52908   0.57079   0.70714   0.91581   2.75255
 Eigenvectors required to have negative eigenvalues:
                          A7        A3        D12       R8        R10
   1                    0.46402   0.41759   0.29793  -0.27595  -0.26687
                          A8        A10       R7        D11       R2
   1                    0.26037   0.23586   0.23509   0.22242   0.19428
 RFO step:  Lambda0=5.199012332D-10 Lambda=-3.49687344D-08.
 Linear search not attempted -- option 19 set.
 Variable       Old X    -DE/DX   Delta X   Delta X   Delta X     New X
                                 (Linear)    (Quad)   (Total)
    R2        2.61814   0.00002   0.00000   0.00004   0.00004   2.61817
    R3        2.65003   0.00000   0.00000  -0.00000  -0.00000   2.65003
    R4        2.05098   0.00000   0.00000   0.00000   0.00000   2.05099
    R5        2.04597   0.00000   0.00000   0.00001   0.00001   2.04598
    R6        2.04330   0.00000   0.00000   0.00000   0.00000   2.04330
    R7        2.65846   0.00001   0.00000   0.00002   0.00002   2.65847
    R8        2.63291   0.00001   0.00000   0.00001   0.00001   2.63293
    R9        2.07315   0.00000   0.00000   0.00001   0.00001   2.07315
   R10        2.38753   0.00003   0.00000   0.00005   0.00005   2.38758
   R11        2.04612   0.00000   0.00000   0.00001   0.00001   2.04613
   R12        2.04339   0.00000   0.00000  -0.00001  -0.00001   2.04339
    A3        2.10656   0.00000   0.00000   0.00004   0.00004   2.10660
    A4        2.09856  -0.00000   0.00000  -0.00004  -0.00004   2.09852
    A5        2.11311  -0.00001   0.00000  -0.00007  -0.00007   2.11304
    A6        2.08875  -0.00000   0.00000  -0.00001  -0.00001   2.08874
    A7        2.07764  -0.00002   0.00000   0.00006   0.00006   2.07770
    A8        2.04413   0.00001   0.00000   0.00008   0.00008   2.04420
    A9        2.01840  -0.00000   0.00000   0.00005   0.00005   2.01845
   A10        2.23951  -0.00005   0.00000  -0.00008  -0.00008   2.23943
   A11        2.10684  -0.00000   0.00000  -0.00002  -0.00002   2.10682
   A12        2.06540   0.00000   0.00000   0.00002   0.00002   2.06542
    D4       -2.95988  -0.00001   0.00000   0.00010   0.00010  -2.95978
    D5        2.63292   0.00003   0.00000  -0.00015  -0.00015   2.63277
    D6       -3.11138   0.00007   0.00000   0.00018   0.00018  -3.11120
    D7        2.70677   0.00008   0.00000   0.00028   0.00028   2.70705
    D8       -2.99042   0.00002   0.00000  -0.00018  -0.00018  -2.99060
    D9       -2.50917   0.00003   0.00000  -0.00014  -0.00014  -2.50931
   D10        2.99138   0.00004   0.00000   0.00016   0.00016   2.99154
   D11        2.86100   0.00000   0.00000  -0.00006  -0.00006   2.86094
   D12        2.64788   0.00000   0.00000  -0.00002  -0.00002   2.64786
         Item               Value     Threshold  Converged?
 Maximum Force            0.000076     0.000450     YES
 RMS     Force            0.000025     0.000300     YES
 Maximum Displacement     0.000277     0.001800     YES
 RMS     Displacement     0.000093     0.001200     YES
 Predicted change in Energy=-1.722442D-08
 Optimization completed.
    -- Stationary point found.
                       ----------------------------
                       !   Optimized Parameters   !
                       ! (Angstroms and Degrees)  !
 ----------------------                            ----------------------
 !      Name          Value   Derivative information (Atomic Units)     !
 ------------------------------------------------------------------------
 !       R2          1.3855   -DE/DX =    0.0                           !
 !       R3          1.4023   -DE/DX =    0.0                           !
 !       R4          1.0853   -DE/DX =    0.0                           !
 !       R5          1.0827   -DE/DX =    0.0                           !
 !       R6          1.0813   -DE/DX =    0.0                           !
 !       R7          1.4068   -DE/DX =    0.0                           !
 !       R8          1.3933   -DE/DX =    0.0                           !
 !       R9          1.0971   -DE/DX =    0.0                           !
 !       R10         1.2634   -DE/DX =    0.0                           !
 !       R11         1.0828   -DE/DX =    0.0                           !
 !       R12         1.0813   -DE/DX =    0.0                           !
 !       A3        120.6969   -DE/DX =    0.0                           !
 !       A4        120.2385   -DE/DX =    0.0                           !
 !       A5        121.072    -DE/DX =    0.0                           !
 !       A6        119.6768   -DE/DX =    0.0                           !
 !       A7        119.04     -DE/DX =    0.0                           !
 !       A8        117.1198   -DE/DX =    0.0                           !
 !       A9        115.6458   -DE/DX =    0.0                           !
 !       A10       128.3147   -DE/DX =   -0.0001                        !
 !       A11       120.7133   -DE/DX =    0.0                           !
 !       A12       118.3385   -DE/DX =    0.0                           !
 !       D4       -169.5885   -DE/DX =    0.0                           !
 !       D5        150.8552   -DE/DX =    0.0                           !
 !       D6       -178.269    -DE/DX =    0.0001                        !
 !       D7        155.0868   -DE/DX =    0.0001                        !
 !       D8       -171.3382   -DE/DX =    0.0                           !
 !       D9       -143.7649   -DE/DX =    0.0                           !
 !       D10       171.3934   -DE/DX =    0.0                           !
 !       D11       163.9232   -DE/DX =    0.0                           !
 !       D12       151.7125   -DE/DX =    0.0                           !
 ------------------------------------------------------------------------
 GradGradGradGradGradGradGradGradGradGradGradGradGradGradGradGradGradGrad

 ---------------------------------------------------------------------------------------------------
                            Z-MATRIX (ANGSTROMS AND DEGREES)
   CD    Cent   Atom    N1       Length/X        N2       Alpha/Y        N3        Beta/Z          J
 ---------------------------------------------------------------------------------------------------
      1      1  C 
      2      2  C        1   1.385459(     1)
      3      3  C        1   1.402338(     2)      2  120.697(    12)
      4      4  H        1   1.085333(     3)      2  120.238(    13)      3 -169.589(    22)      0
      5      5  H        2   1.082683(     4)      1  121.072(    14)      3  150.855(    23)      0
      6      6  H        3   1.081267(     5)      1  119.677(    15)      2 -178.269(    24)      0
      7      7  C        3   1.406794(     6)      1  119.040(    16)      6  155.087(    25)      0
      8      8  C        2   1.393277(     7)      1  117.120(    17)      5 -171.338(    26)      0
      9      9  H        7   1.097061(     8)      3  115.646(    18)      1 -143.765(    27)      0
     10     10  O        7   1.263427(     9)      3  128.315(    19)      9  171.393(    28)      0
     11     11  H        8   1.082762(    10)      2  120.713(    20)      1  163.923(    29)      0
     12     12  H        8   1.081318(    11)      2  118.339(    21)     11  151.713(    30)      0
 ---------------------------------------------------------------------------------------------------
                         Z-Matrix orientation:                         
 ---------------------------------------------------------------------
 Center     Atomic      Atomic             Coordinates (Angstroms)
 Number     Number       Type             X           Y           Z
 ---------------------------------------------------------------------
      1          6           0        0.000000    0.000000    0.000000
      2          6           0        0.000000    0.000000    1.385459
      3          6           0        1.205842    0.000000   -0.715889
      4          1           0       -0.922221    0.169450   -0.546574
      5          1           0       -0.809930    0.451631    1.944247
      6          1           0        1.186810    0.028378   -1.796616
      7          6           0        2.370222    0.484172   -0.092298
      8          6           0        1.161690   -0.433946    2.020587
      9          1           0        3.063726    1.032541   -0.741827
     10          8           0        2.650732    0.498997    1.139507
     11          1           0        1.331017   -0.222014    3.068818
     12          1           0        1.647340   -1.325739    1.648973
 ---------------------------------------------------------------------
                    Distance matrix (angstroms):
                    1          2          3          4          5
     1  C    0.000000
     2  C    1.385459   0.000000
     3  C    1.402338   2.422750   0.000000
     4  H    1.085333   2.147546   2.141502   0.000000
     5  H    2.154078   1.082683   3.368031   2.509268   0.000000
     6  H    2.153404   3.396309   1.081267   2.455711   4.261475
     7  C    2.420929   2.834809   1.406794   3.338503   3.776499
     8  C    2.370782   1.393277   2.771022   3.361114   2.162720
     9  H    3.317056   3.870129   2.125687   4.082992   4.749490
    10  O    2.928115   2.708482   2.403997   3.964526   3.553313
    11  H    3.352393   2.157451   3.793279   4.278012   2.510401
    12  H    2.681497   2.130904   2.746830   3.695763   3.047033
                    6          7          8          9         10
     6  H    0.000000
     7  C    2.124361   0.000000
     8  C    3.845181   2.601495   0.000000
     9  H    2.375655   1.097061   3.660499   0.000000
    10  O    3.314418   1.263427   1.965689   1.998662   0.000000
    11  H    4.874006   3.401661   1.082762   4.370034   2.446170
    12  H    3.730657   2.613496   1.081318   3.644661   2.143831
                   11         12
    11  H    0.000000
    12  H    1.825987   0.000000
 Symmetry turned off by external request.
 Stoichiometry    C5H6O
 Framework group  C1[X(C5H6O)]
 Deg. of freedom    30
 Full point group                 C1      NOp   1
 Rotational constants (GHZ):           5.5496394           4.6756236           2.7127083
 1\1\GINC-BHC0021\FTS\RB3LYP\def2TZVP\C5H6O1\DHANAWAY\10-Jun-2022\1\\# 
 Opt=(TS, CalcFC, noeigentest, Z-matrix, MaxStep=10) geom=allcheckpoint
  guess=read Field=read NoSymm B3LYP/Def2TZVP freq=noraman pop=none\\ts
 _zmat_initalOpt\\0,1\C\C,1,R2\C,1,R3,2,A3\H,1,R4,2,A4,3,D4,0\H,2,R5,1,
 A5,3,D5,0\H,3,R6,1,A6,2,D6,0\C,3,R7,1,A7,6,D7,0\C,2,R8,1,A8,5,D8,0\H,7
 ,R9,3,A9,1,D9,0\O,7,R10,3,A10,9,D10,0\H,8,R11,2,A11,1,D11,0\H,8,R12,2,
 A12,11,D12,0\\R2=1.38545853\R3=1.4023379\R4=1.08533308\R5=1.08268257\R
 6=1.08126661\R7=1.40679411\R8=1.39327738\R9=1.09706133\R10=1.26342737\
 R11=1.0827622\R12=1.0813177\A3=120.69692286\A4=120.23845909\A5=121.072
 00544\A6=119.67677611\A7=119.03999033\A8=117.11979823\A9=115.64576247\
 A10=128.31465044\A11=120.71330043\A12=118.33854681\D4=-169.58850542\D5
 =150.85520002\D6=-178.26897151\D7=155.08675017\D8=-171.33823372\D9=-14
 3.76489659\D10=171.39338331\D11=163.92324589\D12=151.71251857\\Version
 =ES64L-G16RevA.03\HF=-269.3941881\RMSD=3.996e-09\RMSF=2.550e-04\Dipole
 =-0.6431426,-0.2026407,-0.2729983\PG=C01 [X(C5H6O1)]\\@


 MODELS ARE TO BE USED, NOT BELIEVED.

    -- PARAPHRASED BY H. THIEL IN "PRINCIPLES OF ECONOMETRICS"
 Job cpu time:       0 days  0 hours 35 minutes  3.6 seconds.
 Elapsed time:       0 days  0 hours  3 minutes  7.2 seconds.
 File lengths (MBytes):  RWF=     53 Int=      0 D2E=      0 Chk=     32 Scr=      1
 Normal termination of Gaussian 16 at Fri Jun 10 11:22:12 2022.
 Link1:  Proceeding to internal job step number  2.
 --------------------------------------------------------------------
 #N Geom=AllCheck Guess=TCheck SCRF=Check GenChk RB3LYP/def2TZVP Freq
 --------------------------------------------------------------------
 1/5=1,8=10,10=4,11=1,29=7,30=1,38=1,40=1/1,3;
 2/12=2,15=1,40=1/2;
 3/5=44,7=101,11=2,14=-4,25=1,30=1,70=2,71=2,74=-5,116=1,140=1/1,2,3;
 4/5=101/1;
 5/5=2,38=6,98=1/2;
 8/6=4,10=90,11=11/1;
 11/6=1,8=1,9=11,15=111,16=1,31=1/1,2,10;
 10/6=1,31=1/2;
 7/8=1,10=1,25=1,30=1/1,2,3,16;
 1/5=1,8=10,10=4,11=1,30=1/3;
 99//99;
 Structure from the checkpoint file:  "checkpoint.chk"
 -----------------
 ts_zmat_initalOpt
 -----------------
 Charge =  0 Multiplicity = 1
 Z-Matrix found in chk file.
 C
 C,1,R2
 C,1,R3,2,A3
 H,1,R4,2,A4,3,D4,0
 H,2,R5,1,A5,3,D5,0
 H,3,R6,1,A6,2,D6,0
 C,3,R7,1,A7,6,D7,0
 C,2,R8,1,A8,5,D8,0
 H,7,R9,3,A9,1,D9,0
 O,7,R10,3,A10,9,D10,0
 H,8,R11,2,A11,1,D11,0
 H,8,R12,2,A12,11,D12,0
      Variables:
 R2=1.38545853
 R3=1.4023379
 R4=1.08533308
 R5=1.08268257
 R6=1.08126661
 R7=1.40679411
 R8=1.39327738
 R9=1.09706133
 R10=1.26342737
 R11=1.0827622
 R12=1.0813177
 A3=120.69692286
 A4=120.23845909
 A5=121.07200544
 A6=119.67677611
 A7=119.03999033
 A8=117.11979823
 A9=115.64576247
 A10=128.31465044
 A11=120.71330043
 A12=118.33854681
 D4=-169.58850542
 D5=150.85520002
 D6=-178.26897151
 D7=155.08675017
 D8=-171.33823372
 D9=-143.76489659
 D10=171.39338331
 D11=163.92324589
 D12=151.71251857
 Recover connectivity data from disk.

 GradGradGradGradGradGradGradGradGradGradGradGradGradGradGradGradGradGrad
 Berny optimization.
 Initialization pass.
                       ----------------------------
                       !    Initial Parameters    !
                       ! (Angstroms and Degrees)  !
 ----------------------                            ----------------------
 !      Name          Value   Derivative information (Atomic Units)     !
 ------------------------------------------------------------------------
 !       R2          1.3855   calculate D2E/DX2 analytically            !
 !       R3          1.4023   calculate D2E/DX2 analytically            !
 !       R4          1.0853   calculate D2E/DX2 analytically            !
 !       R5          1.0827   calculate D2E/DX2 analytically            !
 !       R6          1.0813   calculate D2E/DX2 analytically            !
 !       R7          1.4068   calculate D2E/DX2 analytically            !
 !       R8          1.3933   calculate D2E/DX2 analytically            !
 !       R9          1.0971   calculate D2E/DX2 analytically            !
 !       R10         1.2634   calculate D2E/DX2 analytically            !
 !       R11         1.0828   calculate D2E/DX2 analytically            !
 !       R12         1.0813   calculate D2E/DX2 analytically            !
 !       A3        120.6969   calculate D2E/DX2 analytically            !
 !       A4        120.2385   calculate D2E/DX2 analytically            !
 !       A5        121.072    calculate D2E/DX2 analytically            !
 !       A6        119.6768   calculate D2E/DX2 analytically            !
 !       A7        119.04     calculate D2E/DX2 analytically            !
 !       A8        117.1198   calculate D2E/DX2 analytically            !
 !       A9        115.6458   calculate D2E/DX2 analytically            !
 !       A10       128.3147   calculate D2E/DX2 analytically            !
 !       A11       120.7133   calculate D2E/DX2 analytically            !
 !       A12       118.3385   calculate D2E/DX2 analytically            !
 !       D4       -169.5885   calculate D2E/DX2 analytically            !
 !       D5        150.8552   calculate D2E/DX2 analytically            !
 !       D6       -178.269    calculate D2E/DX2 analytically            !
 !       D7        155.0868   calculate D2E/DX2 analytically            !
 !       D8       -171.3382   calculate D2E/DX2 analytically            !
 !       D9       -143.7649   calculate D2E/DX2 analytically            !
 !       D10       171.3934   calculate D2E/DX2 analytically            !
 !       D11       163.9232   calculate D2E/DX2 analytically            !
 !       D12       151.7125   calculate D2E/DX2 analytically            !
 ------------------------------------------------------------------------
 Trust Radius=1.00D-01 FncErr=1.00D-07 GrdErr=1.00D-07 EigMax=2.50D+02 EigMin=1.00D-04
 Number of steps in this run=      2 maximum allowed number of steps=      2.
 Search for a saddle point of order  1.
 GradGradGradGradGradGradGradGradGradGradGradGradGradGradGradGradGradGrad

                          Input orientation:                          
 ---------------------------------------------------------------------
 Center     Atomic      Atomic             Coordinates (Angstroms)
 Number     Number       Type             X           Y           Z
 ---------------------------------------------------------------------
      1          6           0        0.000000    0.000000    0.000000
      2          6           0        0.000000    0.000000    1.385459
      3          6           0        1.205842    0.000000   -0.715889
      4          1           0       -0.922221    0.169450   -0.546574
      5          1           0       -0.809930    0.451631    1.944247
      6          1           0        1.186810    0.028378   -1.796616
      7          6           0        2.370222    0.484172   -0.092298
      8          6           0        1.161690   -0.433946    2.020587
      9          1           0        3.063726    1.032541   -0.741827
     10          8           0        2.650732    0.498997    1.139507
     11          1           0        1.331017   -0.222014    3.068818
     12          1           0        1.647340   -1.325739    1.648973
 ---------------------------------------------------------------------
                    Distance matrix (angstroms):
                    1          2          3          4          5
     1  C    0.000000
     2  C    1.385459   0.000000
     3  C    1.402338   2.422750   0.000000
     4  H    1.085333   2.147546   2.141502   0.000000
     5  H    2.154078   1.082683   3.368031   2.509268   0.000000
     6  H    2.153404   3.396309   1.081267   2.455711   4.261475
     7  C    2.420929   2.834809   1.406794   3.338503   3.776499
     8  C    2.370782   1.393277   2.771022   3.361114   2.162720
     9  H    3.317056   3.870129   2.125687   4.082992   4.749490
    10  O    2.928115   2.708482   2.403997   3.964526   3.553313
    11  H    3.352393   2.157451   3.793279   4.278012   2.510401
    12  H    2.681497   2.130904   2.746830   3.695763   3.047033
                    6          7          8          9         10
     6  H    0.000000
     7  C    2.124361   0.000000
     8  C    3.845181   2.601495   0.000000
     9  H    2.375655   1.097061   3.660499   0.000000
    10  O    3.314418   1.263427   1.965689   1.998662   0.000000
    11  H    4.874006   3.401661   1.082762   4.370034   2.446170
    12  H    3.730657   2.613496   1.081318   3.644661   2.143831
                   11         12
    11  H    0.000000
    12  H    1.825987   0.000000
 Symmetry turned off by external request.
 Stoichiometry    C5H6O
 Framework group  C1[X(C5H6O)]
 Deg. of freedom    30
 Full point group                 C1      NOp   1
 Rotational constants (GHZ):           5.5496394           4.6756236           2.7127083
 Standard basis: def2TZVP (5D, 7F)
 The following finite field(s) will be applied:
 An electric field of              0.0034  0.0034  0.0015
   222 basis functions,   354 primitive gaussians,   252 cartesian basis functions
    22 alpha electrons       22 beta electrons
       nuclear repulsion energy       217.9544051497 Hartrees.
 NAtoms=   12 NActive=   12 NUniq=   12 SFac= 1.00D+00 NAtFMM=   60 NAOKFM=F Big=F
 Integral buffers will be    131072 words long.
 Raffenetti 2 integral format.
 Two-electron integral symmetry is turned off.
 One-electron integrals computed using PRISM.
   1 Symmetry operations used in ECPInt.
 ECPInt:  NShTT=    4095 NPrTT=   12396 LenC2=    4075 LenP2D=   10363.
 LDataN:  DoStor=T MaxTD1= 6 Len=  172
 NBasis=   222 RedAO= T EigKep=  1.13D-04  NBF=   222
 NBsUse=   222 1.00D-06 EigRej= -1.00D+00 NBFU=   222
 The nuclear repulsion energy is now       218.4127185759 hartrees.
 Initial guess from the checkpoint file:  "checkpoint.chk"
 B after Tr=     0.000000    0.000000    0.000000
         Rot=    1.000000    0.000000    0.000000    0.000000 Ang=   0.00 deg.
 Keep R1 ints in memory in canonical form, NReq=319363861.
 Requested convergence on RMS density matrix=1.00D-08 within 128 cycles.
 Requested convergence on MAX density matrix=1.00D-06.
 Requested convergence on             energy=1.00D-06.
 No special actions if energy rises.
 SCF Done:  E(RB3LYP) =  -269.394188085     A.U. after    1 cycles
            NFock=  1  Conv=0.26D-08     -V/T= 2.0050
 DoSCS=F DFT=T ScalE2(SS,OS)=  1.000000  1.000000
 Range of M.O.s used for correlation:     1   222
 NBasis=   222 NAE=    22 NBE=    22 NFC=     0 NFV=     0
 NROrb=    222 NOA=    22 NOB=    22 NVA=   200 NVB=   200

 **** Warning!!: The largest alpha MO coefficient is  0.18813042D+02

   1 Symmetry operations used in ECPInt.
 ECPInt:  NShTT=    4095 NPrTT=   12396 LenC2=    4075 LenP2D=   10363.
 LDataN:  DoStor=T MaxTD1= 7 Len=  274
 Symmetrizing basis deriv contribution to polar:
 IMax=3 JMax=2 DiffMx= 0.00D+00
 G2DrvN: will do    13 centers at a time, making    1 passes.
 Calling FoFCou, ICntrl=  3107 FMM=F I1Cent=   0 AccDes= 0.00D+00.
 End of G2Drv F.D. properties file   721 does not exist.
 End of G2Drv F.D. properties file   722 does not exist.
 End of G2Drv F.D. properties file   788 does not exist.
          IDoAtm=111111111111
          Differentiating once with respect to electric field.
                with respect to dipole field.
          Differentiating once with respect to nuclear coordinates.
 Keep R1 ints in memory in canonical form, NReq=319333990.
          There are    39 degrees of freedom in the 1st order CPHF.  IDoFFX=6 NUNeed=     3.
     36 vectors produced by pass  0 Test12= 1.13D-14 2.56D-09 XBig12= 1.12D+02 6.47D+00.
 AX will form    36 AO Fock derivatives at one time.
     36 vectors produced by pass  1 Test12= 1.13D-14 2.56D-09 XBig12= 3.58D+01 8.98D-01.
     36 vectors produced by pass  2 Test12= 1.13D-14 2.56D-09 XBig12= 2.98D-01 5.74D-02.
     36 vectors produced by pass  3 Test12= 1.13D-14 2.56D-09 XBig12= 1.26D-03 4.43D-03.
     36 vectors produced by pass  4 Test12= 1.13D-14 2.56D-09 XBig12= 2.74D-06 2.60D-04.
     31 vectors produced by pass  5 Test12= 1.13D-14 2.56D-09 XBig12= 3.72D-09 1.02D-05.
      8 vectors produced by pass  6 Test12= 1.13D-14 2.56D-09 XBig12= 5.19D-12 3.01D-07.
      3 vectors produced by pass  7 Test12= 1.13D-14 2.56D-09 XBig12= 7.73D-15 1.38D-08.
 InvSVY:  IOpt=1 It=  1 EMax= 3.55D-15
 Solved reduced A of dimension   222 with    39 vectors.
 Isotropic polarizability for W=    0.000000       65.15 Bohr**3.
 End of Minotr F.D. properties file   721 does not exist.
 End of Minotr F.D. properties file   722 does not exist.
 End of Minotr F.D. properties file   788 does not exist.
   1 Symmetry operations used in ECPInt.
 ECPInt:  NShTT=    4095 NPrTT=   12396 LenC2=    4075 LenP2D=   10363.
 LDataN:  DoStor=T MaxTD1= 8 Len=  415
 Calling FoFJK, ICntrl=    100127 FMM=F ISym2X=0 I1Cent= 0 IOpClX= 0 NMat=1 NMatS=1 NMatT=0.
 Full mass-weighted force constant matrix:
 Low frequencies --- -520.2061   -5.9727   -0.0009   -0.0008    0.0005    7.3489
 Low frequencies ---   12.4124  244.6864  375.0962
 ******    1 imaginary frequencies (negative Signs) ****** 
 Diagonal vibrational polarizability:
        6.5788256       7.7355397       8.5165550
 Harmonic frequencies (cm**-1), IR intensities (KM/Mole), Raman scattering
 activities (A**4/AMU), depolarization ratios for plane and unpolarized
 incident light, reduced masses (AMU), force constants (mDyne/A),
 and normal coordinates:
                      1                      2                      3
                      A                      A                      A
 Frequencies --   -520.2025               244.6802               375.0944
 Red. masses --      5.6749                 2.8919                 2.5605
 Frc consts  --      0.9048                 0.1020                 0.2123
 IR Inten    --     43.7347                 4.7690                10.0966
  Atom  AN      X      Y      Z        X      Y      Z        X      Y      Z
     1   6    -0.03   0.04   0.06    -0.02   0.11   0.02     0.05  -0.08  -0.02
     2   6     0.01  -0.01  -0.07     0.01   0.07   0.03     0.13   0.19  -0.00
     3   6     0.06   0.02  -0.03     0.01  -0.17   0.07     0.03  -0.11  -0.03
     4   1     0.01   0.22   0.06     0.02   0.25   0.00     0.03  -0.17  -0.02
     5   1    -0.06  -0.34   0.08     0.11   0.12   0.13     0.25   0.45  -0.04
     6   1     0.03   0.03  -0.03     0.07  -0.37   0.07     0.02  -0.09  -0.03
     7   6    -0.08  -0.09  -0.02     0.01  -0.07   0.04    -0.11   0.16   0.03
     8   6     0.38   0.21  -0.19     0.02  -0.15  -0.17     0.01  -0.07  -0.00
     9   1     0.19  -0.18   0.24     0.03  -0.21  -0.06    -0.34   0.59   0.15
    10   8    -0.29  -0.11   0.18    -0.04   0.20   0.04    -0.07  -0.10   0.01
    11   1     0.38   0.28  -0.20     0.15  -0.46  -0.13     0.06  -0.13   0.00
    12   1    -0.08  -0.20   0.11    -0.03  -0.03  -0.53    -0.16  -0.15  -0.04
                      4                      5                      6
                      A                      A                      A
 Frequencies --    421.3379               572.1828               589.8652
 Red. masses --      4.3107                 2.7644                 3.6359
 Frc consts  --      0.4509                 0.5332                 0.7454
 IR Inten    --      4.8455                23.7612                 3.3741
  Atom  AN      X      Y      Z        X      Y      Z        X      Y      Z
     1   6    -0.17  -0.17  -0.02    -0.02  -0.16  -0.03    -0.15   0.07  -0.16
     2   6    -0.12   0.08  -0.03     0.14   0.14   0.00     0.18  -0.07  -0.16
     3   6    -0.05   0.05   0.17    -0.08   0.21  -0.07    -0.13  -0.04  -0.03
     4   1    -0.15  -0.53  -0.16    -0.15  -0.60   0.04    -0.21   0.32   0.00
     5   1    -0.11   0.00   0.04     0.14   0.16  -0.00     0.37   0.20  -0.09
     6   1     0.05  -0.08   0.17    -0.00   0.03  -0.07     0.12   0.05  -0.03
     7   6     0.01   0.06   0.10     0.04  -0.12   0.01    -0.15  -0.07   0.16
     8   6     0.04   0.13  -0.25    -0.00  -0.07   0.03     0.09  -0.02   0.04
     9   1    -0.06   0.06   0.03     0.32  -0.49  -0.01    -0.25  -0.08   0.04
    10   8     0.23  -0.08   0.06    -0.08   0.07   0.04     0.13   0.06   0.09
    11   1     0.21  -0.03  -0.25    -0.03  -0.24   0.07    -0.23   0.27   0.04
    12   1    -0.14   0.12  -0.44    -0.02  -0.03  -0.09     0.30  -0.04   0.38
                      7                      8                      9
                      A                      A                      A
 Frequencies --    722.5459               790.7459               884.0408
 Red. masses --      1.2507                 1.3791                 2.0695
 Frc consts  --      0.3847                 0.5081                 0.9529
 IR Inten    --     47.2078                26.4703                22.8182
  Atom  AN      X      Y      Z        X      Y      Z        X      Y      Z
     1   6    -0.00  -0.07   0.01     0.05  -0.07   0.02    -0.09  -0.02   0.00
     2   6    -0.05  -0.08   0.03    -0.00   0.04   0.01     0.07   0.09  -0.08
     3   6     0.01   0.03   0.02    -0.00  -0.06  -0.07     0.03  -0.05   0.19
     4   1     0.06   0.25   0.00     0.08   0.20   0.06    -0.02  -0.00  -0.10
     5   1     0.31   0.73  -0.09    -0.15  -0.13  -0.07    -0.01  -0.34   0.15
     6   1    -0.06   0.25   0.02    -0.17   0.81  -0.05    -0.16   0.56   0.21
     7   6     0.05  -0.01  -0.00    -0.04  -0.09   0.03     0.10   0.01  -0.06
     8   6    -0.01  -0.02  -0.04    -0.01   0.05  -0.01    -0.01  -0.09  -0.03
     9   1     0.04  -0.02  -0.01    -0.19   0.09   0.02     0.01   0.06  -0.10
    10   8    -0.02   0.03  -0.00     0.03   0.03   0.02    -0.05   0.02  -0.04
    11   1     0.25   0.30  -0.15     0.02  -0.24   0.04    -0.21   0.32  -0.08
    12   1    -0.11  -0.11   0.06    -0.02   0.14  -0.24     0.00  -0.26   0.38
                     10                     11                     12
                      A                      A                      A
 Frequencies --    952.0464               962.0547               980.4107
 Red. masses --      1.6078                 1.4415                 1.4322
 Frc consts  --      0.8586                 0.7861                 0.8111
 IR Inten    --     46.2333                 7.6347                 4.7613
  Atom  AN      X      Y      Z        X      Y      Z        X      Y      Z
     1   6    -0.03  -0.12   0.03     0.00   0.02  -0.00    -0.04  -0.11   0.02
     2   6    -0.01   0.08  -0.01    -0.03   0.04   0.03     0.03   0.01  -0.03
     3   6     0.03  -0.00  -0.07    -0.02   0.05  -0.07    -0.01   0.08   0.05
     4   1     0.01   0.59   0.17    -0.01  -0.11  -0.02     0.05   0.62   0.10
     5   1    -0.22  -0.25  -0.04    -0.14  -0.22   0.08     0.02   0.01  -0.04
     6   1     0.06  -0.14  -0.08     0.07  -0.20  -0.08     0.04  -0.35   0.04
     7   6    -0.06   0.10  -0.01     0.05  -0.13   0.01     0.07  -0.06  -0.04
     8   6    -0.02  -0.06   0.03    -0.01  -0.06   0.00     0.01   0.05  -0.01
     9   1     0.28  -0.37  -0.02    -0.39   0.52   0.07    -0.22   0.36  -0.00
    10   8     0.07   0.02   0.03     0.03   0.05   0.03    -0.02  -0.00  -0.00
    11   1     0.22   0.17  -0.06     0.38   0.37  -0.15    -0.37  -0.29   0.12
    12   1    -0.25  -0.23   0.11    -0.17  -0.21   0.13     0.08   0.11  -0.05
                     13                     14                     15
                      A                      A                      A
 Frequencies --   1018.3528              1043.1577              1100.4327
 Red. masses --      3.5876                 1.7565                 1.3277
 Frc consts  --      2.1920                 1.1262                 0.9473
 IR Inten    --     13.6370                 5.4728                18.9364
  Atom  AN      X      Y      Z        X      Y      Z        X      Y      Z
     1   6     0.29  -0.01   0.11    -0.04  -0.00  -0.11     0.01  -0.03  -0.02
     2   6     0.05   0.00  -0.09     0.01  -0.00  -0.03     0.06   0.02   0.04
     3   6    -0.03   0.13   0.16     0.03   0.04   0.13    -0.02  -0.00  -0.02
     4   1     0.37  -0.03  -0.00     0.06   0.14  -0.23     0.01   0.18   0.05
     5   1    -0.13  -0.04  -0.33    -0.16  -0.04  -0.25     0.09  -0.19   0.25
     6   1    -0.03  -0.21   0.17     0.33   0.06   0.13     0.07  -0.03  -0.02
     7   6    -0.23  -0.08   0.05    -0.04  -0.02   0.01     0.02   0.01   0.07
     8   6    -0.06  -0.02  -0.12     0.04   0.00   0.15    -0.09  -0.01  -0.04
     9   1    -0.34  -0.28  -0.22    -0.14  -0.06  -0.13     0.06  -0.03   0.06
    10   8     0.01   0.01  -0.06    -0.05  -0.02  -0.07    -0.05  -0.04  -0.02
    11   1    -0.20   0.30  -0.17     0.68  -0.16   0.07     0.19   0.42  -0.18
    12   1    -0.02  -0.10   0.12    -0.10   0.10  -0.28     0.55   0.45  -0.25
                     16                     17                     18
                      A                      A                      A
 Frequencies --   1116.0128              1181.1898              1247.0158
 Red. masses --      1.5693                 1.2214                 1.3615
 Frc consts  --      1.1516                 1.0041                 1.2475
 IR Inten    --      1.6233                13.7141                 2.9908
  Atom  AN      X      Y      Z        X      Y      Z        X      Y      Z
     1   6    -0.02  -0.03  -0.04    -0.03   0.01   0.05    -0.03   0.01   0.04
     2   6    -0.09   0.04   0.11     0.04  -0.03   0.00    -0.09   0.07  -0.00
     3   6     0.09   0.04  -0.02     0.07  -0.00  -0.00     0.03  -0.00  -0.01
     4   1     0.21   0.06  -0.42    -0.36  -0.09   0.57    -0.13  -0.08   0.17
     5   1     0.17   0.02   0.53     0.04  -0.01  -0.02    -0.36   0.24  -0.51
     6   1     0.48   0.10  -0.03     0.65   0.15  -0.01     0.17   0.06  -0.01
     7   6    -0.09  -0.03   0.01    -0.01  -0.01   0.02    -0.01  -0.01  -0.03
     8   6     0.05  -0.02  -0.02    -0.05   0.03  -0.03     0.07  -0.09  -0.00
     9   1    -0.11  -0.10  -0.07    -0.07  -0.00  -0.05    -0.02   0.04  -0.00
    10   8     0.01   0.01  -0.04    -0.01   0.00  -0.05     0.00  -0.00   0.01
    11   1    -0.27  -0.07   0.06    -0.10   0.03  -0.03    -0.05   0.03   0.00
    12   1     0.14  -0.07   0.22    -0.23  -0.05  -0.06     0.62   0.14   0.16
                     19                     20                     21
                      A                      A                      A
 Frequencies --   1344.6949              1405.4119              1440.0758
 Red. masses --      1.3763                 1.8492                 1.8258
 Frc consts  --      1.4662                 2.1520                 2.2309
 IR Inten    --     44.7695                57.8691                63.4797
  Atom  AN      X      Y      Z        X      Y      Z        X      Y      Z
     1   6     0.00  -0.00  -0.00     0.00   0.00  -0.03     0.09  -0.02  -0.14
     2   6     0.01   0.00   0.03     0.08  -0.02   0.15    -0.07   0.03   0.03
     3   6    -0.06  -0.01   0.01    -0.14  -0.04  -0.04    -0.05  -0.01   0.02
     4   1     0.07   0.05  -0.11     0.18   0.07  -0.32    -0.24   0.09   0.44
     5   1    -0.15  -0.02  -0.18    -0.33  -0.04  -0.42    -0.04  -0.05   0.15
     6   1     0.09   0.00   0.02     0.36   0.06  -0.05    -0.23  -0.06   0.02
     7   6    -0.01  -0.03   0.08     0.11   0.06   0.04     0.07   0.03   0.14
     8   6     0.03   0.01  -0.02     0.03   0.01  -0.05     0.03   0.03  -0.05
     9   1     0.47   0.19   0.78    -0.14  -0.12  -0.41    -0.12  -0.11  -0.21
    10   8    -0.00   0.02  -0.12    -0.03  -0.02   0.02    -0.03  -0.01  -0.06
    11   1    -0.09  -0.01  -0.00    -0.27   0.16  -0.04     0.22  -0.37   0.02
    12   1    -0.08  -0.10   0.08    -0.19  -0.12  -0.03     0.12  -0.18   0.53
                     22                     23                     24
                      A                      A                      A
 Frequencies --   1496.2753              1553.2058              1615.8793
 Red. masses --      1.7279                 2.2391                 5.5200
 Frc consts  --      2.2793                 3.1826                 8.4920
 IR Inten    --      6.4259                22.1734               122.4021
  Atom  AN      X      Y      Z        X      Y      Z        X      Y      Z
     1   6     0.05  -0.00   0.08    -0.14   0.02   0.10    -0.07  -0.01   0.31
     2   6    -0.00   0.00  -0.09     0.13  -0.04   0.06    -0.11   0.04  -0.30
     3   6    -0.16  -0.03   0.01     0.15   0.02  -0.06    -0.04  -0.01  -0.14
     4   1     0.19  -0.01  -0.12     0.10  -0.04  -0.34     0.30  -0.07  -0.31
     5   1     0.16  -0.03   0.15    -0.09  -0.01  -0.31     0.21   0.01   0.17
     6   1     0.56   0.12  -0.00    -0.26  -0.08  -0.06     0.07  -0.02  -0.16
     7   6     0.03   0.02  -0.09    -0.02  -0.01   0.06     0.15   0.05   0.32
     8   6    -0.07   0.03  -0.02    -0.12   0.06  -0.09     0.11  -0.03   0.09
     9   1     0.14   0.08   0.08    -0.10  -0.07  -0.08    -0.23  -0.18  -0.37
    10   8     0.01   0.00   0.06    -0.00   0.00  -0.03    -0.05  -0.01  -0.16
    11   1     0.39  -0.36  -0.01     0.34  -0.39  -0.08    -0.06   0.05   0.12
    12   1     0.21   0.01   0.39     0.17  -0.02   0.51    -0.07  -0.01  -0.24
                     25                     26                     27
                      A                      A                      A
 Frequencies --   3021.7869              3140.1838              3152.4040
 Red. masses --      1.0850                 1.0571                 1.0875
 Frc consts  --      5.8371                 6.1414                 6.3674
 IR Inten    --     47.8107                17.1332                 5.4263
  Atom  AN      X      Y      Z        X      Y      Z        X      Y      Z
     1   6    -0.00   0.00  -0.00    -0.00  -0.00   0.00    -0.07   0.01  -0.04
     2   6    -0.00   0.00  -0.00    -0.00   0.00   0.00     0.02  -0.01  -0.01
     3   6     0.00   0.00  -0.00     0.00   0.00   0.00     0.00   0.00   0.01
     4   1     0.00   0.00   0.00     0.01  -0.00   0.01     0.80  -0.14   0.48
     5   1     0.00  -0.00  -0.00     0.05  -0.02  -0.03    -0.20   0.11   0.14
     6   1    -0.00  -0.00   0.06     0.00   0.00  -0.00    -0.01   0.00  -0.16
     7   6    -0.06  -0.04   0.04    -0.00  -0.00  -0.00    -0.00  -0.00   0.00
     8   6     0.00   0.00  -0.00    -0.04   0.04  -0.03    -0.00   0.00   0.00
     9   1     0.64   0.50  -0.58    -0.00   0.00   0.00     0.01   0.00  -0.00
    10   8     0.00  -0.00   0.00     0.00  -0.00   0.00    -0.00  -0.00  -0.00
    11   1    -0.00  -0.00  -0.00     0.10   0.14   0.62    -0.01  -0.01  -0.03
    12   1    -0.00  -0.00  -0.00     0.35  -0.61  -0.28     0.01  -0.02  -0.01
                     28                     29                     30
                      A                      A                      A
 Frequencies --   3179.3499              3196.8774              3224.2468
 Red. masses --      1.0925                 1.0916                 1.1176
 Frc consts  --      6.5064                 6.5729                 6.8454
 IR Inten    --      4.4447                 5.8157                 6.2699
  Atom  AN      X      Y      Z        X      Y      Z        X      Y      Z
     1   6    -0.02   0.00  -0.01    -0.02   0.00  -0.01     0.00  -0.00   0.00
     2   6    -0.06   0.03   0.04    -0.00   0.00   0.00     0.01  -0.01  -0.01
     3   6     0.00   0.00   0.01    -0.00   0.00  -0.08    -0.00  -0.00   0.00
     4   1     0.21  -0.04   0.13     0.16  -0.03   0.09    -0.01   0.00  -0.01
     5   1     0.70  -0.39  -0.49     0.05  -0.03  -0.04    -0.14   0.08   0.09
     6   1    -0.00   0.00  -0.13     0.02  -0.02   0.97    -0.00   0.00  -0.03
     7   6    -0.00  -0.00   0.00     0.01   0.00  -0.00    -0.00  -0.00   0.00
     8   6     0.01  -0.01  -0.01     0.00  -0.00  -0.00     0.01  -0.05  -0.08
     9   1     0.00   0.00  -0.00    -0.04  -0.03   0.03     0.00   0.00  -0.00
    10   8     0.00   0.00  -0.00     0.00  -0.00   0.00    -0.00   0.00   0.00
    11   1     0.01   0.02   0.09     0.00   0.01   0.03     0.13   0.15   0.73
    12   1    -0.07   0.13   0.06    -0.01   0.02   0.01    -0.29   0.51   0.21

 -------------------
 - Thermochemistry -
 -------------------
 Temperature   298.150 Kelvin.  Pressure   1.00000 Atm.
 Atom     1 has atomic number  6 and mass  12.00000
 Atom     2 has atomic number  6 and mass  12.00000
 Atom     3 has atomic number  6 and mass  12.00000
 Atom     4 has atomic number  1 and mass   1.00783
 Atom     5 has atomic number  1 and mass   1.00783
 Atom     6 has atomic number  1 and mass   1.00783
 Atom     7 has atomic number  6 and mass  12.00000
 Atom     8 has atomic number  6 and mass  12.00000
 Atom     9 has atomic number  1 and mass   1.00783
 Atom    10 has atomic number  8 and mass  15.99491
 Atom    11 has atomic number  1 and mass   1.00783
 Atom    12 has atomic number  1 and mass   1.00783
 Molecular mass:    82.04186 amu.
 Principal axes and moments of inertia in atomic units:
                           1         2         3
     Eigenvalues --   325.19973 385.98941 665.29129
           X            0.92925   0.31685  -0.19000
           Y            0.21901  -0.05824   0.97398
           Z           -0.29754   0.94668   0.12351
 This molecule is an asymmetric top.
 Rotational symmetry number  1.
 Rotational temperatures (Kelvin)      0.26634     0.22439     0.13019
 Rotational constants (GHZ):           5.54964     4.67562     2.71271
    1 imaginary frequencies ignored.
 Zero-point vibrational energy     251045.7 (Joules/Mol)
                                   60.00136 (Kcal/Mol)
 Warning -- explicit consideration of   5 degrees of freedom as
           vibrations may cause significant error
 Vibrational temperatures:    352.04   539.68   606.21   823.24   848.68
          (Kelvin)           1039.58  1137.71  1271.94  1369.78  1384.18
                             1410.59  1465.18  1500.87  1583.28  1605.69
                             1699.47  1794.18  1934.72  2022.07  2071.95
                             2152.81  2234.72  2324.89  4347.68  4518.02
                             4535.61  4574.38  4599.59  4638.97
 
 Zero-point correction=                           0.095618 (Hartree/Particle)
 Thermal correction to Energy=                    0.100460
 Thermal correction to Enthalpy=                  0.101404
 Thermal correction to Gibbs Free Energy=         0.067596
 Sum of electronic and zero-point Energies=           -269.298570
 Sum of electronic and thermal Energies=              -269.293729
 Sum of electronic and thermal Enthalpies=            -269.292784
 Sum of electronic and thermal Free Energies=         -269.326592
 
                     E (Thermal)             CV                S
                      KCal/Mol        Cal/Mol-Kelvin    Cal/Mol-Kelvin
 Total                   63.039             18.194             71.154
 Electronic               0.000              0.000              0.000
 Translational            0.889              2.981             39.128
 Rotational               0.889              2.981             25.927
 Vibrational             61.262             12.233              6.099
 Vibration     1          0.660              1.772              1.769
 Vibration     2          0.746              1.523              1.059
 Vibration     3          0.784              1.424              0.887
 Vibration     4          0.928              1.091              0.500
 Vibration     5          0.947              1.053              0.467
                       Q            Log10(Q)             Ln(Q)
 Total Bot       0.808846D-31        -31.092134        -71.592285
 Total V=0       0.774759D+13         12.889167         29.678403
 Vib (Bot)       0.267697D-43        -43.572356       -100.329057
 Vib (Bot)    1  0.799652D+00         -0.097099         -0.223579
 Vib (Bot)    2  0.483673D+00         -0.315448         -0.726347
 Vib (Bot)    3  0.416315D+00         -0.380578         -0.876312
 Vib (Bot)    4  0.268399D+00         -0.571220         -1.315282
 Vib (Bot)    5  0.255777D+00         -0.592139         -1.363451
 Vib (V=0)       0.256416D+01          0.408945          0.941632
 Vib (V=0)    1  0.144310D+01          0.159297          0.366796
 Vib (V=0)    2  0.119566D+01          0.077607          0.178696
 Vib (V=0)    3  0.115063D+01          0.060935          0.140309
 Vib (V=0)    4  0.106748D+01          0.028361          0.065304
 Vib (V=0)    5  0.106162D+01          0.025971          0.059800
 Electronic      0.100000D+01          0.000000          0.000000
 Translational   0.292084D+08          7.465507         17.189966
 Rotational      0.103446D+06          5.014714         11.546806
 -------------------------------------------------------------------
 Center     Atomic                   Forces (Hartrees/Bohr)
 Number     Number              X              Y              Z
 -------------------------------------------------------------------
      1        6           0.000007253   -0.001244782   -0.000009418
      2        6          -0.000007719    0.000590095    0.000010634
      3        6          -0.000007875    0.000662665   -0.000007945
      4        1          -0.000001373   -0.000003932   -0.000000230
      5        1          -0.000004725   -0.000001115   -0.000001935
      6        1          -0.000001853   -0.000003794   -0.000001245
      7        6           0.000010245    0.000026155   -0.000027140
      8        6           0.000004815    0.000000539    0.000010017
      9        1           0.000003352   -0.000000626   -0.000004758
     10        8          -0.000004141   -0.000028720    0.000033322
     11        1           0.000000248    0.000002233    0.000000243
     12        1           0.000001773    0.000001282   -0.000001547
 -------------------------------------------------------------------
 Cartesian Forces:  Max     0.001244782 RMS     0.000255004
 -----------------------------------------------------------------------------------------------
                       Internal Coordinate Forces (Hartree/Bohr or radian)
  Cent   Atom   N1       Length/X         N2         Alpha/Y        N3         Beta/Z          J
 -----------------------------------------------------------------------------------------------
      1  C 
      2  C        1   0.000017(     1)
      3  C        1   0.000004(     2)      2   0.000005(    12)
      4  H        1   0.000001(     3)      2  -0.000000(    13)      3  -0.000007(    22)     0
      5  H        2   0.000002(     4)      1  -0.000007(    14)      3   0.000025(    23)     0
      6  H        3   0.000001(     5)      1  -0.000004(    15)      2   0.000069(    24)     0
      7  C        3   0.000007(     6)      1  -0.000017(    16)      6   0.000076(    25)     0
      8  C        2   0.000008(     7)      1   0.000014(    17)      5   0.000019(    26)     0
      9  H        7   0.000005(     8)      3  -0.000004(    18)      1   0.000034(    27)     0
     10  O        7   0.000031(     9)      3  -0.000054(    19)      9   0.000040(    28)     0
     11  H        8   0.000001(    10)      2  -0.000002(    20)      1   0.000001(    29)     0
     12  H        8   0.000000(    11)      2   0.000001(    21)     11   0.000005(    30)     0
 -----------------------------------------------------------------------------------------------
 Internal  Forces:  Max     0.000075649 RMS     0.000025376

 GradGradGradGradGradGradGradGradGradGradGradGradGradGradGradGradGradGrad
 Berny optimization.
 Search for a saddle point.
 Step number   1 out of a maximum of    2
 All quantities printed in internal units (Hartrees-Bohrs-Radians)
 Swapping is turned off.
 Second derivative matrix not updated -- analytic derivatives used.
 ITU=  0
     Eigenvalues ---   -0.78099   0.02574   0.02785   0.04051   0.04173
[...]
   1                    0.47025   0.42130   0.29308  -0.27531  -0.26624
                          A8        A10       R7        D11       R2
   1                    0.25345   0.24682   0.23319   0.21944   0.19020
 Angle between quadratic step and forces=  60.61 degrees.
 Linear search not attempted -- option 19 set.
 Variable       Old X    -DE/DX   Delta X   Delta X   Delta X     New X
                                 (Linear)    (Quad)   (Total)
    R2        2.61814   0.00002   0.00000   0.00004   0.00004   2.61818
    R3        2.65003   0.00000   0.00000  -0.00000  -0.00000   2.65003
    R4        2.05098   0.00000   0.00000   0.00000   0.00000   2.05099
    R5        2.04597   0.00000   0.00000   0.00001   0.00001   2.04598
    R6        2.04330   0.00000   0.00000   0.00000   0.00000   2.04330
    R7        2.65846   0.00001   0.00000   0.00002   0.00002   2.65848
    R8        2.63291   0.00001   0.00000   0.00001   0.00001   2.63292
    R9        2.07315   0.00000   0.00000   0.00001   0.00001   2.07315
   R10        2.38753   0.00003   0.00000   0.00005   0.00005   2.38758
   R11        2.04612   0.00000   0.00000   0.00001   0.00001   2.04613
   R12        2.04339   0.00000   0.00000  -0.00001  -0.00001   2.04339
    A3        2.10656   0.00000   0.00000   0.00004   0.00004   2.10660
    A4        2.09856  -0.00000   0.00000  -0.00004  -0.00004   2.09852
    A5        2.11311  -0.00001   0.00000  -0.00007  -0.00007   2.11304
    A6        2.08875  -0.00000   0.00000  -0.00002  -0.00002   2.08874
    A7        2.07764  -0.00002   0.00000   0.00005   0.00005   2.07769
    A8        2.04413   0.00001   0.00000   0.00008   0.00008   2.04420
    A9        2.01840  -0.00000   0.00000   0.00005   0.00005   2.01845
   A10        2.23951  -0.00005   0.00000  -0.00008  -0.00008   2.23944
   A11        2.10684  -0.00000   0.00000  -0.00002  -0.00002   2.10682
   A12        2.06540   0.00000   0.00000   0.00002   0.00002   2.06542
    D4       -2.95988  -0.00001   0.00000   0.00009   0.00009  -2.95979
    D5        2.63292   0.00003   0.00000  -0.00015  -0.00015   2.63277
    D6       -3.11138   0.00007   0.00000   0.00017   0.00017  -3.11121
    D7        2.70677   0.00008   0.00000   0.00026   0.00026   2.70703
    D8       -2.99042   0.00002   0.00000  -0.00018  -0.00018  -2.99059
    D9       -2.50917   0.00003   0.00000  -0.00013  -0.00013  -2.50930
   D10        2.99138   0.00004   0.00000   0.00016   0.00016   2.99154
   D11        2.86100   0.00000   0.00000  -0.00005  -0.00005   2.86095
   D12        2.64788   0.00000   0.00000  -0.00001  -0.00001   2.64788
         Item               Value     Threshold  Converged?
 Maximum Force            0.000076     0.000450     YES
 RMS     Force            0.000025     0.000300     YES
 Maximum Displacement     0.000257     0.001800     YES
 RMS     Displacement     0.000088     0.001200     YES
 Predicted change in Energy=-1.638860D-08
 Optimization completed.
    -- Stationary point found.
                       ----------------------------
                       !   Optimized Parameters   !
                       ! (Angstroms and Degrees)  !
 ----------------------                            ----------------------
 !      Name          Value   Derivative information (Atomic Units)     !
 ------------------------------------------------------------------------
 !       R2          1.3855   -DE/DX =    0.0                           !
 !       R3          1.4023   -DE/DX =    0.0                           !
 !       R4          1.0853   -DE/DX =    0.0                           !
 !       R5          1.0827   -DE/DX =    0.0                           !
 !       R6          1.0813   -DE/DX =    0.0                           !
 !       R7          1.4068   -DE/DX =    0.0                           !
 !       R8          1.3933   -DE/DX =    0.0                           !
 !       R9          1.0971   -DE/DX =    0.0                           !
 !       R10         1.2634   -DE/DX =    0.0                           !
 !       R11         1.0828   -DE/DX =    0.0                           !
 !       R12         1.0813   -DE/DX =    0.0                           !
 !       A3        120.6969   -DE/DX =    0.0                           !
 !       A4        120.2385   -DE/DX =    0.0                           !
 !       A5        121.072    -DE/DX =    0.0                           !
 !       A6        119.6768   -DE/DX =    0.0                           !
 !       A7        119.04     -DE/DX =    0.0                           !
 !       A8        117.1198   -DE/DX =    0.0                           !
 !       A9        115.6458   -DE/DX =    0.0                           !
 !       A10       128.3147   -DE/DX =   -0.0001                        !
 !       A11       120.7133   -DE/DX =    0.0                           !
 !       A12       118.3385   -DE/DX =    0.0                           !
 !       D4       -169.5885   -DE/DX =    0.0                           !
 !       D5        150.8552   -DE/DX =    0.0                           !
 !       D6       -178.269    -DE/DX =    0.0001                        !
 !       D7        155.0868   -DE/DX =    0.0001                        !
 !       D8       -171.3382   -DE/DX =    0.0                           !
 !       D9       -143.7649   -DE/DX =    0.0                           !
 !       D10       171.3934   -DE/DX =    0.0                           !
 !       D11       163.9232   -DE/DX =    0.0                           !
 !       D12       151.7125   -DE/DX =    0.0                           !
 ------------------------------------------------------------------------
 GradGradGradGradGradGradGradGradGradGradGradGradGradGradGradGradGradGrad


 ----------------------------------------------------------------------

 Electric dipole moment (input orientation):
 (Debye = 10**-18 statcoulomb cm , SI units = C m)
                  (au)            (Debye)         (10**-30 SI)
   Tot        0.727476D+00      0.184906D+01      0.616780D+01
   x         -0.643140D+00     -0.163470D+01     -0.545277D+01
   y         -0.202642D+00     -0.515064D+00     -0.171807D+01
   z         -0.272998D+00     -0.693891D+00     -0.231457D+01

 Dipole polarizability, Alpha (input orientation).
 (esu units = cm**3 , SI units = C**2 m**2 J**-1)
 Alpha(0;0):
               (au)            (10**-24 esu)      (10**-40 SI)
   iso        0.651519D+02      0.965451D+01      0.107421D+02
   aniso      0.358987D+02      0.531964D+01      0.591890D+01
   xx         0.741952D+02      0.109946D+02      0.122331D+02
   yx         0.540098D+01      0.800343D+00      0.890502D+00
   yy         0.435902D+02      0.645940D+01      0.718705D+01
   zx        -0.479845D+01     -0.711057D+00     -0.791157D+00
   zy        -0.506751D+01     -0.750928D+00     -0.835520D+00
   zz         0.776701D+02      0.115095D+02      0.128061D+02

 ----------------------------------------------------------------------

 Dipole orientation:
     6          0.00000000          0.00000000         -0.00000000
     6         -2.31461965          0.72929387         -0.98250120
     6          2.17969210          0.03119899         -1.50686833
     1          0.10347450         -0.90192470          1.83911750
     1         -4.06170271         -0.05593803         -0.26339107
     1          3.96008215         -0.59472794         -0.72361070
     6          1.92392015         -0.10987081         -4.14922827
     6         -2.28118640          2.23048986         -3.14525915
     1          3.38923722         -1.19490946         -5.13587364
     8          0.08981760          0.60702545         -5.49920429
     1         -3.96599723          2.46166900         -4.28306061
     1         -0.96240058          3.78937389         -3.22364819

 Electric dipole moment (dipole orientation):
 (Debye = 10**-18 statcoulomb cm , SI units = C m)
                  (au)            (Debye)         (10**-30 SI)
   Tot        0.727476D+00      0.184906D+01      0.616780D+01
   x          0.000000D+00      0.000000D+00      0.000000D+00
   y          0.000000D+00      0.000000D+00      0.000000D+00
   z          0.727476D+00      0.184906D+01      0.616780D+01

 Dipole polarizability, Alpha (dipole orientation).
 (esu units = cm**3 , SI units = C**2 m**2 J**-1)
 Alpha(0;0):
               (au)            (10**-24 esu)      (10**-40 SI)
   iso        0.651519D+02      0.965451D+01      0.107421D+02
   aniso      0.358987D+02      0.531964D+01      0.591890D+01
   xx         0.771530D+02      0.114329D+02      0.127208D+02
   yx        -0.121919D+02     -0.180665D+01     -0.201017D+01
   yy         0.475759D+02      0.705003D+01      0.784421D+01
   zx        -0.472967D+01     -0.700866D+00     -0.779818D+00
   zy        -0.406842D+01     -0.602878D+00     -0.670792D+00
   zz         0.707267D+02      0.104806D+02      0.116612D+02

 ----------------------------------------------------------------------
 1\1\GINC-BHC0021\Freq\RB3LYP\def2TZVP\C5H6O1\DHANAWAY\10-Jun-2022\1\\#
 N Geom=AllCheck Guess=TCheck SCRF=Check GenChk RB3LYP/def2TZVP Freq\\t
 s_zmat_initalOpt\\0,1\C\C,1,R2\C,1,R3,2,A3\H,1,R4,2,A4,3,D4,0\H,2,R5,1
 ,A5,3,D5,0\H,3,R6,1,A6,2,D6,0\C,3,R7,1,A7,6,D7,0\C,2,R8,1,A8,5,D8,0\H,
 7,R9,3,A9,1,D9,0\O,7,R10,3,A10,9,D10,0\H,8,R11,2,A11,1,D11,0\H,8,R12,2
 ,A12,11,D12,0\\R2=1.38545853\R3=1.4023379\R4=1.08533308\R5=1.08268257\
 R6=1.08126661\R7=1.40679411\R8=1.39327738\R9=1.09706133\R10=1.26342737
 \R11=1.0827622\R12=1.0813177\A3=120.69692286\A4=120.23845909\A5=121.07
 200544\A6=119.67677611\A7=119.03999033\A8=117.11979823\A9=115.64576247
 \A10=128.31465044\A11=120.71330043\A12=118.33854681\D4=-169.58850542\D
 5=150.85520002\D6=-178.26897151\D7=155.08675017\D8=-171.33823372\D9=-1
 43.76489659\D10=171.39338331\D11=163.92324589\D12=151.71251857\\Versio
 n=ES64L-G16RevA.03\HF=-269.3941881\RMSD=2.604e-09\RMSF=2.550e-04\ZeroP
 oint=0.0956182\Thermal=0.1004595\Dipole=-0.6431404,-0.2026417,-0.27299
 79\DipoleDeriv=0.4160189,0.0350846,-0.2950104,0.1292174,-0.0283085,-0.
 0867108,-0.2718439,-0.1842109,0.7285402,-0.1899379,-0.0949261,-0.31484
 56,-0.1216526,-0.2383537,0.2217143,0.0521881,0.171187,-0.7944258,-0.74
 41174,-0.1813281,0.4362935,-0.1703737,-0.3935073,0.0310188,-0.0363726,
 0.0221392,-0.0811221,-0.0385404,0.0143251,-0.0553078,-0.0019102,0.1101
 174,0.0861538,-0.06055,0.0139218,0.0550767,0.0168816,0.0742038,0.00455
 88,0.109978,0.1263584,-0.1360005,0.047715,-0.0292881,0.0319021,0.06672
 33,-0.022794,0.0152116,-0.0461915,0.1564687,0.0681995,0.0123984,0.0024
 81,-0.0710541,0.6677627,0.3021394,-0.0084623,0.3169404,0.2628743,-0.08
 74274,0.6563148,0.1819925,0.3165343,0.5036629,0.0223658,0.5413741,0.08
 51017,0.2550861,-0.0305812,-0.051248,-0.0386517,0.3306995,-0.013835,-0
 .0803505,0.1334295,-0.0930362,0.0434656,0.0152254,0.1462503,0.0826159,
 -0.0361185,-0.7676787,-0.1111571,-0.4193442,-0.2039231,-0.354792,-0.05
 27198,-0.5031875,-0.1420545,-0.4413111,0.0790095,-0.0075109,0.0289093,
 -0.0040342,0.0714554,0.0042189,-0.0319573,-0.0013747,-0.0953178,0.0040
 506,0.0499479,-0.0668064,-0.000116,-0.0108641,-0.0330911,0.0402926,-0.
 0787577,0.0565965\Polar=74.1952477,5.4009845,43.5901855,-4.7984488,-5.
 0675127,77.6701235\PG=C01 [X(C5H6O1)]\NImag=1\\0.66879021,-0.05605794,
 0.16162625,0.03831337,-0.02487314,0.67808648,-0.11353521,0.02000009,0.
 02708584,0.59768837,0.02160581,-0.06977673,-0.01630753,-0.21199151,0.2
 1994956,-0.02825183,0.00898163,-0.33575122,-0.02892655,0.03747242,0.66
 036858,-0.25914101,0.01936486,0.04075050,0.03126966,-0.01469681,0.0760
 8464,0.57113696,0.00210009,-0.05232699,-0.00126968,0.00492435,0.006472
 51,0.00484792,0.09336863,0.14497423,0.11171918,-0.00365490,-0.16791296
 ,0.02997545,-0.00397195,-0.03276548,-0.01418771,0.03276898,0.70426806,
 -0.25291660,0.03858910,-0.11807306,0.00539865,-0.00041969,0.00237833,-
 0.02261032,0.00334724,-0.01262500,0.26897985,0.04581020,-0.05034100,0.
 01146320,0.00487302,0.00535718,0.00672999,-0.01025120,0.00481248,0.007
 39021,-0.04212133,0.03340932,-0.11483247,0.01983856,-0.13000372,-0.026
 59200,0.00740657,-0.00803030,0.01430394,-0.00187698,0.01151261,0.12522
 416,-0.02569549,0.13292873,0.00243871,-0.00101203,0.00390446,-0.211579
 79,0.09441263,0.10003245,0.00526257,0.00342902,-0.00071788,0.00022267,
 -0.00166943,0.00077290,0.21862489,-0.00354166,0.00074178,0.01272649,0.
 09107358,-0.07618881,-0.07898247,0.00792919,0.00568245,-0.00058613,-0.
 00026752,-0.00255267,0.00047802,-0.10620693,0.07799757,0.02658467,-0.0
 1271044,-0.01349852,0.10544173,-0.06649584,-0.12788394,-0.00277125,-0.
 00058530,-0.00464173,-0.00036246,0.00085822,0.00101556,-0.11506861,0.0
 6787965,0.13576577,0.00362296,-0.00159743,0.02969831,-0.00397062,0.000
 28362,0.00241137,-0.05466081,-0.00716386,-0.00653714,0.00121301,0.0001
 4983,-0.00039470,0.00010440,-0.00000228,0.00118350,0.05754402,0.000807
 58,-0.00079833,0.00249053,-0.00132202,0.00650641,-0.00063805,-0.006375
 65,-0.02914036,0.01478725,-0.00093003,-0.00344285,-0.00070347,0.000326
 48,0.00097744,0.00096729,0.00742301,0.02529095,-0.00207671,0.00124373,
 -0.01199921,0.00268003,-0.00049254,0.00091668,-0.00687240,0.00457877,-
 0.33948826,0.00016664,-0.00031269,0.00079713,-0.00011490,0.00019711,-0
 .00057203,0.00567104,-0.00640446,0.35964596,-0.06376119,-0.01514732,0.
 04410500,-0.02528099,0.00809113,-0.04120382,-0.20513600,-0.06397307,-0
 .08304887,-0.00096548,0.00404758,0.00313117,-0.00217425,-0.00471438,-0
 .00035606,0.00188692,0.00067297,0.00314194,0.53098616,-0.00632470,-0.0
 0047161,0.01133340,-0.00711777,0.00225528,-0.01177684,-0.08310445,-0.0
 9292176,-0.03823087,0.00329343,0.00766529,0.00037450,-0.00088086,-0.00
 223315,-0.00034894,0.00502444,-0.00391444,0.00342154,0.18707041,0.2847
 8813,-0.02568286,-0.00586351,0.07903868,-0.03623927,0.01696026,-0.0649
 1491,0.00497311,0.00119131,-0.14814384,0.00504386,0.00306781,-0.000878
 64,-0.00475555,-0.00848175,-0.00067280,-0.02962571,-0.00991679,-0.0108
 7170,0.01210529,-0.06128832,0.68678324,0.02512929,-0.00480770,-0.08728
 911,-0.22977757,0.08217640,-0.03799712,-0.07405569,-0.01427797,0.00618
 057,-0.00040064,-0.00440678,-0.00165244,-0.01004361,0.01885995,-0.0130
 0847,-0.00253543,0.00031974,-0.00065283,0.06087533,0.01879398,0.108871
 22,0.35169417,0.00667262,0.00496549,-0.01352606,0.11109262,-0.10908050
 ,0.05096737,-0.01536592,-0.00807295,-0.00328231,-0.00009590,0.00495333
 ,-0.00200587,0.01275725,-0.00198730,0.00922103,-0.00050735,-0.00075015
 ,-0.00042491,0.01160147,0.00458353,0.03078930,-0.25512506,0.41671549,-
 0.03733367,0.01191692,-0.02204276,-0.11742330,0.03469174,-0.16522288,0
 .00686100,0.00322225,0.00058437,0.00052258,0.00259181,-0.00628128,0.01
 363873,-0.00399899,0.00979618,0.00043794,-0.00105538,0.00047370,0.0032
 6920,0.00481834,-0.03227933,0.16126496,0.11110696,0.61982532,0.0005421
 1,-0.00458046,-0.00492584,0.00291724,-0.00008191,0.00186252,-0.0180510
 9,-0.01606952,0.01373434,-0.00003787,0.00108025,0.00023788,0.00026767,
 0.00069538,0.00003903,-0.00001700,0.00163572,-0.00045408,-0.15289863,-
 0.08598103,0.08799383,-0.00154373,-0.00188339,0.00032666,0.15790466,-0
 .00494492,0.00434834,-0.00164580,-0.00301010,-0.00043059,-0.00194076,-
 0.00591420,0.00138700,0.01152262,-0.00138407,0.00065747,0.00121049,-0.
 00033055,-0.00081051,0.00007751,0.00086649,-0.00191071,-0.00032627,-0.
 09390220,-0.11742023,0.05772892,0.00345942,0.00483440,-0.00208643,0.10
 128289,0.10075676,-0.00050672,-0.00069949,-0.00376438,0.00266889,-0.00
 073244,0.00428128,-0.01255047,-0.00412315,0.00835231,-0.00044327,-0.00
 015542,0.00019526,0.00033937,0.00061273,0.00011734,0.00038218,-0.00068
 259,0.00074161,0.09486403,0.06472330,-0.11398848,-0.01158522,-0.003203
 61,0.00163137,-0.09514766,-0.07862569,0.15265126,-0.00373121,0.0033640
 5,0.02185319,-0.04053583,0.00106985,-0.02083278,0.02099294,-0.00680792
 ,-0.04423687,0.00089682,0.00285955,0.00083329,-0.00226868,-0.00578557,
 -0.00008777,-0.00343158,-0.00255231,-0.00147807,-0.13692917,-0.0278327
 9,-0.11574065,0.03025905,0.01697821,-0.02821344,0.01119011,0.00315834,
 0.02049181,0.12956608,-0.00774877,-0.00225641,0.01696397,-0.01398551,0
 .00899678,-0.01718624,0.01200785,0.01896124,-0.01705761,0.00000237,-0.
 00025213,0.00021700,-0.00016217,-0.00054606,-0.00012118,-0.00453704,0.
 00720330,-0.00150432,-0.02701214,-0.07895312,-0.01892710,0.02965021,-0
 .02121878,-0.00950988,0.00381736,0.00823830,0.02119238,0.02719970,0.07
 461388,0.03631995,0.00440643,-0.06969841,0.04471582,-0.01407602,0.0646
 0873,-0.10275971,-0.03634656,-0.03368972,-0.00215735,-0.00620901,-0.00
 078716,0.00389496,0.00884897,0.00077162,-0.00326105,0.00156289,0.00039
 841,-0.04125022,0.02399438,-0.40026274,-0.11162235,-0.02715105,0.00532
 524,-0.00393438,0.01485417,-0.04949498,0.16163390,0.01170465,0.4907962
 6,-0.00260827,0.00380522,-0.00433373,0.00666766,-0.00371376,-0.0241060
 8,-0.00180389,0.00017532,0.00010077,0.00002860,-0.00066839,-0.00141269
 ,0.00040558,-0.00199227,0.00077718,0.00007308,-0.00009236,-0.00003577,
 -0.00167347,-0.00014271,0.00193535,-0.06135484,-0.00345355,-0.04221085
 ,-0.00017004,0.00010531,0.00027900,0.00325463,0.00162586,0.00517841,0.
 05233655,0.00495305,0.00352784,-0.00200450,0.00407065,0.00554446,0.013
 86016,-0.00137760,0.00040394,-0.00021110,-0.00010847,-0.00087018,0.000
 54573,-0.00135601,-0.00204485,-0.00011708,-0.00000350,-0.00008700,-0.0
 0002269,-0.00228830,-0.00036558,0.00157564,-0.00414921,-0.06144270,-0.
 06162694,-0.00026822,0.00036749,0.00047748,0.00310532,0.00014033,0.005
 59714,0.00068094,0.05386305,-0.00476757,-0.00141657,0.00112581,0.00007
 365,-0.00439280,-0.00932211,0.00075252,-0.00020577,0.00064883,0.000321
 10,0.00087264,-0.00062855,0.00031432,0.00163276,0.00063004,0.00003117,
 0.00010778,-0.00003937,0.00004662,-0.00054599,-0.00109718,-0.04442956,
 -0.05970486,-0.32083365,0.00006659,-0.00006771,-0.00001516,-0.00081641
 ,0.00021952,0.00007666,0.05133848,0.06478453,0.33615516,-0.00482978,-0
 .00192045,0.00891106,-0.01926156,0.02326424,-0.00145112,0.00679670,0.0
 0094770,-0.00035685,0.00019131,0.00029670,0.00038095,-0.00126016,0.003
 95251,-0.00237150,0.00017105,0.00008687,0.00002511,-0.00492923,-0.0027
 9797,-0.00887863,-0.08824632,0.11732900,0.03886018,-0.00010344,0.00061
 358,0.00120804,-0.00926317,-0.02085773,0.01324200,0.00484441,-0.003258
 65,-0.00293092,0.11589017,-0.00333136,0.00076136,0.00464911,0.00139260
 ,0.00039445,-0.01233513,0.00441531,-0.00023179,0.00052582,0.00009485,0
 .00060376,0.00021094,0.00069259,0.00096410,0.00137509,0.00006406,0.000
 06575,0.00004672,-0.00444616,-0.00301234,-0.00683577,0.12950701,-0.233
 49987,-0.09007041,0.00035294,-0.00001772,0.00121649,-0.01475642,-0.014
 92731,0.01281399,0.00367038,0.00096320,-0.00128350,-0.11765581,0.24793
 639,0.00051467,0.00283078,-0.00357980,-0.00346030,0.00993813,0.0137155
 7,-0.00458416,-0.00220177,0.00127581,0.00000446,-0.00060130,0.00016035
 ,-0.00224027,-0.00032639,-0.00082750,0.00000309,-0.00051500,-0.0000029
 2,0.00519572,0.00352551,0.00728770,0.03192033,-0.09278599,-0.09097627,
 0.00020109,-0.00070105,-0.00070744,0.00659378,0.01400881,-0.00804390,0
 .01248994,-0.02285838,-0.00670049,-0.04663834,0.08968665,0.08839889\\-
 0.00000725,0.00124478,0.00000942,0.00000772,-0.00059010,-0.00001063,0.
 00000788,-0.00066267,0.00000794,0.00000137,0.00000393,0.00000023,0.000
 00472,0.00000111,0.00000193,0.00000185,0.00000379,0.00000124,-0.000010
 25,-0.00002616,0.00002714,-0.00000481,-0.00000054,-0.00001002,-0.00000
 335,0.00000063,0.00000476,0.00000414,0.00002872,-0.00003332,-0.0000002
 5,-0.00000223,-0.00000024,-0.00000177,-0.00000128,0.00000155\\\@


 ACCORDING TO HEN3RY, LIFE IS MUCH LIKE A SEWER........
 YOU GET OUT OF IT JUST WHAT YOU PUT INTO IT...........
                         TOM LEHRER - (THE 3 IS SILENT)
 Job cpu time:       0 days  0 hours 31 minutes  1.0 seconds.
 Elapsed time:       0 days  0 hours  2 minutes 36.1 seconds.
 File lengths (MBytes):  RWF=     54 Int=      0 D2E=      0 Chk=     32 Scr=      1
 Normal termination of Gaussian 16 at Fri Jun 10 11:24:48 2022.
