 Entering Gaussian System, Link 0=g16
 Input=int_zmat_field_N75.gjf
 Output=int_zmat_field_N75.out
 Initial command:
 /software/gaussian/g16-a03/l1.exe "/local_scratch/9899185/Gau-27648.inp" -scrdir="/local_scratch/9899185/"
 Entering Link 1 = /software/gaussian/g16-a03/l1.exe PID=     27649.
  
 Copyright (c) 1988,1990,1992,1993,1995,1998,2003,2009,2016,
            Gaussian, Inc.  All Rights Reserved.
  
 This is part of the Gaussian(R) 16 program.  It is based on
 the Gaussian(R) 09 system (copyright 2009, Gaussian, Inc.),
 the Gaussian(R) 03 system (copyright 2003, Gaussian, Inc.),
 the Gaussian(R) 98 system (copyright 1998, Gaussian, Inc.),
 the Gaussian(R) 94 system (copyright 1995, Gaussian, Inc.),
 the Gaussian 92(TM) system (copyright 1992, Gaussian, Inc.),
 the Gaussian 90(TM) system (copyright 1990, Gaussian, Inc.),
 the Gaussian 88(TM) system (copyright 1988, Gaussian, Inc.),
 the Gaussian 86(TM) system (copyright 1986, Carnegie Mellon
 University), and the Gaussian 82(TM) system (copyright 1983,
 Carnegie Mellon University). Gaussian is a federally registered
 trademark of Gaussian, Inc.
  
 This software contains proprietary and confidential information,
 including trade secrets, belonging to Gaussian, Inc.
  
 This software is provided under written license and may be
 used, copied, transmitted, or stored only in accord with that
 written license.
  
 The following legend is applicable only to US Government
 contracts under FAR:
  
                    RESTRICTED RIGHTS LEGEND
  
 Use, reproduction and disclosure by the US Government is
 subject to restrictions as set forth in subparagraphs (a)
 and (c) of the Commercial Computer Software - Restricted
 Rights clause in FAR 52.227-19.
  
 Gaussian, Inc.
 340 Quinnipiac St., Bldg. 40, Wallingford CT 06492
  
  
 ---------------------------------------------------------------
 Warning -- This program may not be used in any manner that
 competes with the business of Gaussian, Inc. or will provide
 assistance to any competitor of Gaussian, Inc.  The licensee
 of this program is prohibited from giving any competitor of
 Gaussian, Inc. access to this program.  By using this program,
 the user acknowledges that Gaussian, Inc. is engaged in the
 business of creating and licensing software in the field of
 computational chemistry and represents and warrants to the
 licensee that it is not a competitor of Gaussian, Inc. and that
 it will not use this program in any manner prohibited above.
 ---------------------------------------------------------------
  

 Cite this work as:
 Gaussian 16, Revision A.03,
 M. J. Frisch, G. W. Trucks, H. B. Schlegel, G. E. Scuseria, 
 M. A. Robb, J. R. Cheeseman, G. Scalmani, V. Barone, 
 G. A. Petersson, H. Nakatsuji, X. Li, M. Caricato, A. V. Marenich, 
 J. Bloino, B. G. Janesko, R. Gomperts, B. Mennucci, H. P. Hratchian, 
 J. V. Ortiz, A. F. Izmaylov, J. L. Sonnenberg, D. Williams-Young, 
 F. Ding, F. Lipparini, F. Egidi, J. Goings, B. Peng, A. Petrone, 
 T. Henderson, D. Ranasinghe, V. G. Zakrzewski, J. Gao, N. Rega, 
 G. Zheng, W. Liang, M. Hada, M. Ehara, K. Toyota, R. Fukuda, 
 J. Hasegawa, M. Ishida, T. Nakajima, Y. Honda, O. Kitao, H. Nakai, 
 T. Vreven, K. Throssell, J. A. Montgomery, Jr., J. E. Peralta, 
 F. Ogliaro, M. J. Bearpark, J. J. Heyd, E. N. Brothers, K. N. Kudin, 
 V. N. Staroverov, T. A. Keith, R. Kobayashi, J. Normand, 
 K. Raghavachari, A. P. Rendell, J. C. Burant, S. S. Iyengar, 
 J. Tomasi, M. Cossi, J. M. Millam, M. Klene, C. Adamo, R. Cammi, 
 J. W. Ochterski, R. L. Martin, K. Morokuma, O. Farkas, 
 J. B. Foresman, and D. J. Fox, Gaussian, Inc., Wallingford CT, 2016.
 
 ******************************************
 Gaussian 16:  ES64L-G16RevA.03 25-Dec-2016
                18-Mar-2022 
 ******************************************
 %nprocshared=12
 Will use up to   12 processors via shared memory.
 %chk=checkpoint.chk
 %mem=12GB
 ----------------------------------------------------------------------
 # Opt=(Z-matrix, MaxStep=10) B3LYP/Def2TZVP geom=allcheckpoint guess=r
 ead Field=read NoSymm
 ----------------------------------------------------------------------
 1/8=10,10=7,18=40,26=3,29=7,38=1/1,3;
 2/12=2,15=1,29=3,40=1/2;
 3/5=44,7=101,11=2,14=-6,25=1,30=1,71=1,74=-5,116=-2/1,2,3;
 4/5=1/1;
 5/5=2,38=6/2;
 6/7=2,8=2,9=2,10=2,28=1/1;
 7/29=1,30=1/1,2,3,16;
 1/8=10,10=7,18=40,26=3/3(2);
 2/15=1,29=3/2;
 99//99;
 2/15=1,29=3/2;
 3/5=44,7=101,11=2,14=-2,25=1,30=1,71=1,74=-5/1,2,3;
 4/5=5,16=3,69=1/1;
 5/5=2,38=5/2;
 7/30=1/1,2,3,16;
 1/8=10,18=40,26=3/3(-5);
 2/15=1,29=3/2;
 6/7=2,8=2,9=2,10=2,19=2,28=1/1;
 99/9=1/99;
 Structure from the checkpoint file:  "checkpoint.chk"
 ------------------
 int_zmat_initalOpt
 ------------------
 Charge =  0 Multiplicity = 1
 Z-Matrix found in chk file.
 C
 C,1,R2
 C,1,R3,2,A3
 H,1,R4,2,A4,3,D4,0
 H,2,R5,1,A5,3,D5,0
 H,3,R6,1,A6,2,D6,0
 C,3,R7,1,A7,6,D7,0
 C,2,R8,1,A8,5,D8,0
 H,7,R9,3,A9,1,D9,0
 O,7,R10,3,A10,9,D10,0
 H,8,R11,2,A11,1,D11,0
 H,8,R12,2,A12,11,D12,0
      Variables:
 R2=1.33570795
 R3=1.45497697
 R4=1.08301218
 R5=1.08190209
 R6=1.08036845
 R7=1.3416747
 R8=1.50132388
 R9=1.0831124
 R10=1.34863213
 R11=1.08808459
 R12=1.10070728
 A3=119.31791643
 A4=121.09515305
 A5=122.65307279
 A6=121.65727188
 A7=118.08700672
 A8=118.60747249
 A9=124.26962082
 A10=123.50260343
 A11=112.36446888
 A12=111.14826934
 D4=-175.66787472
 D5=175.41942107
 D6=173.3161782
 D7=172.52727315
 D8=179.06612991
 D9=-169.49610165
 D10=174.72858398
 D11=150.15219426
 D12=121.27542062
 Recover connectivity data from disk.

 GradGradGradGradGradGradGradGradGradGradGradGradGradGradGradGradGradGrad
 Berny optimization.
 Initialization pass.
                       ----------------------------
                       !    Initial Parameters    !
                       ! (Angstroms and Degrees)  !
 ----------------------                            ----------------------
 !      Name          Value   Derivative information (Atomic Units)     !
 ------------------------------------------------------------------------
 !       R2          1.3357   estimate D2E/DX2                          !
 !       R3          1.455    estimate D2E/DX2                          !
 !       R4          1.083    estimate D2E/DX2                          !
 !       R5          1.0819   estimate D2E/DX2                          !
 !       R6          1.0804   estimate D2E/DX2                          !
 !       R7          1.3417   estimate D2E/DX2                          !
 !       R8          1.5013   estimate D2E/DX2                          !
 !       R9          1.0831   estimate D2E/DX2                          !
 !       R10         1.3486   estimate D2E/DX2                          !
 !       R11         1.0881   estimate D2E/DX2                          !
 !       R12         1.1007   estimate D2E/DX2                          !
 !       A3        119.3179   estimate D2E/DX2                          !
 !       A4        121.0952   estimate D2E/DX2                          !
 !       A5        122.6531   estimate D2E/DX2                          !
 !       A6        121.6573   estimate D2E/DX2                          !
 !       A7        118.087    estimate D2E/DX2                          !
 !       A8        118.6075   estimate D2E/DX2                          !
 !       A9        124.2696   estimate D2E/DX2                          !
 !       A10       123.5026   estimate D2E/DX2                          !
 !       A11       112.3645   estimate D2E/DX2                          !
 !       A12       111.1483   estimate D2E/DX2                          !
 !       D4       -175.6679   estimate D2E/DX2                          !
 !       D5        175.4194   estimate D2E/DX2                          !
 !       D6        173.3162   estimate D2E/DX2                          !
 !       D7        172.5273   estimate D2E/DX2                          !
 !       D8        179.0661   estimate D2E/DX2                          !
 !       D9       -169.4961   estimate D2E/DX2                          !
 !       D10       174.7286   estimate D2E/DX2                          !
 !       D11       150.1522   estimate D2E/DX2                          !
 !       D12       121.2754   estimate D2E/DX2                          !
 ------------------------------------------------------------------------
 Trust Radius=1.00D-01 FncErr=1.00D-07 GrdErr=1.00D-06 EigMax=2.50D+02 EigMin=1.00D-04
 Number of steps in this run=     40 maximum allowed number of steps=    100.
 GradGradGradGradGradGradGradGradGradGradGradGradGradGradGradGradGradGrad

 ---------------------------------------------------------------------------------------------------
                            Z-MATRIX (ANGSTROMS AND DEGREES)
   CD    Cent   Atom    N1       Length/X        N2       Alpha/Y        N3        Beta/Z          J
 ---------------------------------------------------------------------------------------------------
      1      1  C 
      2      2  C        1   1.335708(     1)
      3      3  C        1   1.454977(     2)      2  119.318(    12)
      4      4  H        1   1.083012(     3)      2  121.095(    13)      3 -175.668(    22)      0
      5      5  H        2   1.081902(     4)      1  122.653(    14)      3  175.419(    23)      0
      6      6  H        3   1.080368(     5)      1  121.657(    15)      2  173.316(    24)      0
      7      7  C        3   1.341675(     6)      1  118.087(    16)      6  172.527(    25)      0
      8      8  C        2   1.501324(     7)      1  118.607(    17)      5  179.066(    26)      0
      9      9  H        7   1.083112(     8)      3  124.270(    18)      1 -169.496(    27)      0
     10     10  O        7   1.348632(     9)      3  123.503(    19)      9  174.729(    28)      0
     11     11  H        8   1.088085(    10)      2  112.364(    20)      1  150.152(    29)      0
     12     12  H        8   1.100707(    11)      2  111.148(    21)     11  121.275(    30)      0
 ---------------------------------------------------------------------------------------------------
                         Z-Matrix orientation:                         
 ---------------------------------------------------------------------
 Center     Atomic      Atomic             Coordinates (Angstroms)
 Number     Number       Type             X           Y           Z
 ---------------------------------------------------------------------
      1          6           0        0.000000    0.000000    0.000000
      2          6           0        0.000000    0.000000    1.335708
      3          6           0        1.268618    0.000000   -0.712437
      4          1           0       -0.924745    0.070053   -0.559333
      5          1           0       -0.908001    0.072746    1.919449
      6          1           0        1.315777   -0.107034   -1.786455
      7          6           0        2.381376    0.289493   -0.021021
      8          6           0        1.311943   -0.126660    2.054551
      9          1           0        3.347923    0.477969   -0.472016
     10          8           0        2.399936    0.479623    1.314012
     11          1           0        1.305906    0.377056    3.019001
     12          1           0        1.572535   -1.182846    2.222239
 ---------------------------------------------------------------------
                    Distance matrix (angstroms):
                    1          2          3          4          5
     1  C    0.000000
     2  C    1.335708   0.000000
     3  C    1.454977   2.409209   0.000000
     4  H    1.083012   2.109797   2.199816   0.000000
     5  H    2.124628   1.081902   3.416107   2.478841   0.000000
     6  H    2.221294   3.389783   1.080368   2.560689   4.325649
     7  C    2.398999   2.755988   1.341675   3.356839   3.825233
     8  C    2.440987   1.501324   2.770225   3.445848   2.232973
     9  H    3.414651   3.834698   2.147036   4.292984   4.898592
    10  O    2.777834   2.447489   2.369898   3.838057   3.387411
    11  H    3.310880   2.163570   3.750625   4.227828   2.490583
    12  H    2.968222   2.158224   3.178650   3.942501   2.796651
                    6          7          8          9         10
     6  H    0.000000
     7  C    2.099879   0.000000
     8  C    3.841059   2.371681   0.000000
     9  H    2.489899   1.083112   3.300656   0.000000
    10  O    3.336535   1.348632   1.449036   2.022023   0.000000
    11  H    4.829788   3.225839   1.088085   4.045641   2.028400
    12  H    4.158477   2.802539   1.100707   3.628955   2.067189
                   11         12
    11  H    0.000000
    12  H    1.771782   0.000000
 Symmetry turned off by external request.
 Stoichiometry    C5H6O
 Framework group  C1[X(C5H6O)]
 Deg. of freedom    30
 Full point group                 C1      NOp   1
 Rotational constants (GHZ):           5.5723964           5.3735556           2.8479463
 Standard basis: def2TZVP (5D, 7F)
 The following finite field(s) will be applied:
 An electric field of              0.0031 -0.0022 -0.0065
   222 basis functions,   354 primitive gaussians,   252 cartesian basis functions
    22 alpha electrons       22 beta electrons
       nuclear repulsion energy       223.4950479748 Hartrees.
 NAtoms=   12 NActive=   12 NUniq=   12 SFac= 1.00D+00 NAtFMM=   60 NAOKFM=F Big=F
 Integral buffers will be    131072 words long.
 Raffenetti 2 integral format.
 Two-electron integral symmetry is turned off.
 One-electron integrals computed using PRISM.
   1 Symmetry operations used in ECPInt.
 ECPInt:  NShTT=    4095 NPrTT=   12396 LenC2=    4075 LenP2D=   10419.
 LDataN:  DoStor=T MaxTD1= 6 Len=  172
 NBasis=   222 RedAO= T EigKep=  9.55D-05  NBF=   222
 NBsUse=   222 1.00D-06 EigRej= -1.00D+00 NBFU=   222
 The nuclear repulsion energy is now       223.4199695376 hartrees.
 Initial guess from the checkpoint file:  "checkpoint.chk"
 B after Tr=     0.000000    0.000000    0.000000
         Rot=    1.000000   -0.000000    0.000000   -0.000000 Ang=   0.00 deg.
 Keep R1 ints in memory in canonical form, NReq=319363885.
 Requested convergence on RMS density matrix=1.00D-08 within 128 cycles.
 Requested convergence on MAX density matrix=1.00D-06.
 Requested convergence on             energy=1.00D-06.
 No special actions if energy rises.
 SCF Done:  E(RB3LYP) =  -269.424839378     A.U. after   10 cycles
            NFock= 10  Conv=0.81D-08     -V/T= 2.0050

 **********************************************************************

            Population analysis using the SCF density.

 **********************************************************************

 Alpha  occ. eigenvalues --  -19.15968 -10.23584 -10.22434 -10.17550 -10.17272
 Alpha  occ. eigenvalues --  -10.16875  -1.06926  -0.81286  -0.77363  -0.66409
 Alpha  occ. eigenvalues --   -0.62620  -0.53417  -0.50665  -0.48625  -0.46077
 Alpha  occ. eigenvalues --   -0.43761  -0.40596  -0.37866  -0.35847  -0.32933
 Alpha  occ. eigenvalues --   -0.30081  -0.20986
 Alpha virt. eigenvalues --   -0.03291   0.03742   0.05556   0.07049   0.07928
 Alpha virt. eigenvalues --    0.09234   0.10252   0.11598   0.13943   0.16596
 Alpha virt. eigenvalues --    0.17434   0.19737   0.20705   0.22121   0.23548
 Alpha virt. eigenvalues --    0.24254   0.25562   0.27090   0.28341   0.30637
 Alpha virt. eigenvalues --    0.30904   0.33629   0.34752   0.36504   0.36871
 Alpha virt. eigenvalues --    0.38224   0.38938   0.40456   0.42345   0.43192
 Alpha virt. eigenvalues --    0.43698   0.45694   0.46386   0.49810   0.51512
 Alpha virt. eigenvalues --    0.53314   0.55490   0.58379   0.60017   0.63181
 Alpha virt. eigenvalues --    0.65557   0.66306   0.68876   0.72792   0.73632
 Alpha virt. eigenvalues --    0.78040   0.81094   0.84653   0.86206   0.89352
 Alpha virt. eigenvalues --    0.91309   0.93032   0.95547   0.97832   0.99327
 Alpha virt. eigenvalues --    1.05733   1.07470   1.09112   1.11183   1.12180
 Alpha virt. eigenvalues --    1.15551   1.18487   1.19501   1.24022   1.26327
 Alpha virt. eigenvalues --    1.29751   1.33511   1.36348   1.40281   1.43146
 Alpha virt. eigenvalues --    1.44675   1.45324   1.48998   1.51424   1.52612
 Alpha virt. eigenvalues --    1.56306   1.60506   1.62772   1.65513   1.67877
 Alpha virt. eigenvalues --    1.70438   1.72237   1.74755   1.77485   1.80128
 Alpha virt. eigenvalues --    1.85158   1.87745   1.90648   1.91818   1.97081
 Alpha virt. eigenvalues --    2.00412   2.01171   2.06713   2.10681   2.12565
 Alpha virt. eigenvalues --    2.14549   2.18068   2.20859   2.22731   2.27305
 Alpha virt. eigenvalues --    2.27973   2.37119   2.39189   2.45521   2.45990
 Alpha virt. eigenvalues --    2.51023   2.52515   2.52951   2.57747   2.60170
 Alpha virt. eigenvalues --    2.61794   2.62486   2.65685   2.68037   2.70968
 Alpha virt. eigenvalues --    2.71347   2.74141   2.76361   2.79351   2.80494
 Alpha virt. eigenvalues --    2.83177   2.84081   2.87331   2.88900   2.91520
 Alpha virt. eigenvalues --    2.94175   2.98206   3.02324   3.02600   3.07534
 Alpha virt. eigenvalues --    3.08363   3.11152   3.13769   3.15644   3.16094
 Alpha virt. eigenvalues --    3.19148   3.19959   3.22558   3.24231   3.25698
 Alpha virt. eigenvalues --    3.28690   3.30184   3.33130   3.36428   3.37577
 Alpha virt. eigenvalues --    3.40063   3.42260   3.45250   3.45304   3.48770
 Alpha virt. eigenvalues --    3.54891   3.58498   3.63026   3.68603   3.69589
 Alpha virt. eigenvalues --    3.78779   3.84334   3.86230   3.91203   3.93996
 Alpha virt. eigenvalues --    3.97585   4.03038   4.04539   4.12299   4.17938
 Alpha virt. eigenvalues --    4.20241   4.25140   4.28459   4.36874   4.40001
 Alpha virt. eigenvalues --    4.45396   4.52046   4.58453   4.63662   4.66550
 Alpha virt. eigenvalues --    4.67920   4.79663   4.84736   4.91488   4.94841
 Alpha virt. eigenvalues --    5.12286   5.18358   5.36625   5.45496   5.75288
 Alpha virt. eigenvalues --    5.85918   5.91277   6.23791   6.33351   6.65628
 Alpha virt. eigenvalues --    6.76840   6.87027   7.15216   7.25688  22.06984
 Alpha virt. eigenvalues --   22.31977  22.43020  22.74697  22.92752  44.05465
          Condensed to atoms (all electrons):
               1          2          3          4          5          6
     1  C    4.883177   0.656475   0.337189   0.413085  -0.035049  -0.051162
     2  C    0.656475   5.000859  -0.064676  -0.023724   0.403490   0.005465
     3  C    0.337189  -0.064676   5.180716  -0.059053   0.004242   0.399909
     4  H    0.413085  -0.023724  -0.059053   0.564009  -0.007532  -0.005354
     5  H   -0.035049   0.403490   0.004242  -0.007532   0.509082  -0.000241
     6  H   -0.051162   0.005465   0.399909  -0.005354  -0.000241   0.619872
     7  C   -0.045527  -0.026879   0.557199   0.003966   0.002388  -0.038729
     8  C   -0.043472   0.355973  -0.035907   0.006737  -0.029221  -0.000447
     9  H    0.008509  -0.001821  -0.096961  -0.000378   0.000162  -0.005694
    10  O   -0.016022  -0.025730  -0.069781  -0.001041   0.003166   0.006168
    11  H    0.002033  -0.033452   0.005713  -0.000272  -0.004919   0.000146
    12  H   -0.006231  -0.076374  -0.006981  -0.000282   0.005739  -0.000361
               7          8          9         10         11         12
     1  C   -0.045527  -0.043472   0.008509  -0.016022   0.002033  -0.006231
     2  C   -0.026879   0.355973  -0.001821  -0.025730  -0.033452  -0.076374
     3  C    0.557199  -0.035907  -0.096961  -0.069781   0.005713  -0.006981
     4  H    0.003966   0.006737  -0.000378  -0.001041  -0.000272  -0.000282
     5  H    0.002388  -0.029221   0.000162   0.003166  -0.004919   0.005739
     6  H   -0.038729  -0.000447  -0.005694   0.006168   0.000146  -0.000361
     7  C    4.754312  -0.049649   0.440973   0.345187  -0.003186   0.034680
     8  C   -0.049649   4.688642   0.005735   0.268136   0.422455   0.385699
     9  H    0.440973   0.005735   0.604458  -0.043189  -0.000648   0.002173
    10  O    0.345187   0.268136  -0.043189   7.890321  -0.028226  -0.066186
    11  H   -0.003186   0.422455  -0.000648  -0.028226   0.543993  -0.048131
    12  H    0.034680   0.385699   0.002173  -0.066186  -0.048131   0.699954
 Mulliken charges:
               1
     1  C   -0.103006
     2  C   -0.169606
     3  C   -0.151609
     4  H    0.109839
     5  H    0.148693
     6  H    0.070428
     7  C    0.025266
     8  C    0.025319
     9  H    0.086682
    10  O   -0.262803
    11  H    0.144494
    12  H    0.076301
 Sum of Mulliken charges =  -0.00000
 Mulliken charges with hydrogens summed into heavy atoms:
               1
     1  C    0.006834
     2  C   -0.020913
     3  C   -0.081181
     7  C    0.111948
     8  C    0.246115
    10  O   -0.262803
 Electronic spatial extent (au):  <R**2>=            784.2495
 Charge=             -0.0000 electrons
 Dipole moment (field-independent basis, Debye):
    X=             -1.1443    Y=             -0.1779    Z=              1.2017  Tot=              1.6689
 Quadrupole moment (field-independent basis, Debye-Ang):
   XX=            -37.2860   YY=            -38.6834   ZZ=            -30.3736
   XY=             -0.6549   XZ=             -1.3148   YZ=             -0.7791
 Traceless Quadrupole moment (field-independent basis, Debye-Ang):
   XX=             -1.8383   YY=             -3.2357   ZZ=              5.0741
   XY=             -0.6549   XZ=             -1.3148   YZ=             -0.7791
 Octapole moment (field-independent basis, Debye-Ang**2):
  XXX=           -133.9489  YYY=             -9.9123  ZZZ=            -54.7886  XYY=            -45.3206
  XXY=             -3.2541  XXZ=            -30.6586  XZZ=            -42.5690  YZZ=             -3.5755
  YYZ=            -22.8757  XYZ=             -2.9742
 Hexadecapole moment (field-independent basis, Debye-Ang**3):
 XXXX=           -587.9946 YYYY=            -62.5244 ZZZZ=           -334.3303 XXXY=            -23.7105
 XXXZ=           -112.2548 YYYX=            -27.1928 YYYZ=             -3.7518 ZZZX=            -72.0934
 ZZZY=              2.1025 XXYY=           -114.2324 XXZZ=           -167.0049 YYZZ=            -75.3457
 XXYZ=             -9.1634 YYXZ=            -25.1767 ZZXY=            -11.8426
 N-N= 2.234199695376D+02 E-N=-1.074683957446D+03  KE= 2.680804647317D+02
   1 Symmetry operations used in ECPInt.
 ECPInt:  NShTT=    4095 NPrTT=   12396 LenC2=    4075 LenP2D=   10419.
 LDataN:  DoStor=T MaxTD1= 7 Len=  274
 Calling FoFJK, ICntrl=      2127 FMM=F ISym2X=0 I1Cent= 0 IOpClX= 0 NMat=1 NMatS=1 NMatT=0.
 -------------------------------------------------------------------
 Center     Atomic                   Forces (Hartrees/Bohr)
 Number     Number              X              Y              Z
 -------------------------------------------------------------------
      1        6          -0.001000309    0.000037221    0.000139668
      2        6           0.000523839    0.000064671   -0.000330215
      3        6           0.000228148   -0.000401346    0.000144064
      4        1          -0.000076467    0.000071370    0.000104886
      5        1           0.000101988   -0.000009974    0.000059421
      6        1           0.000023002    0.000061462   -0.000331201
      7        6           0.000090876    0.000128496    0.001285663
      8        6          -0.000515760    0.000053427    0.001006220
      9        1           0.000246959    0.000080753   -0.000075500
     10        8           0.000618632   -0.000057916   -0.001939301
     11        1          -0.000089747   -0.000131957   -0.000103214
     12        1          -0.000151161    0.000103795    0.000039508
 -------------------------------------------------------------------
 Cartesian Forces:  Max     0.001939301 RMS     0.000501207
 -----------------------------------------------------------------------------------------------
                       Internal Coordinate Forces (Hartree/Bohr or radian)
  Cent   Atom   N1       Length/X         N2         Alpha/Y        N3         Beta/Z          J
 -----------------------------------------------------------------------------------------------
      1  C 
      2  C        1   0.000672(     1)
      3  C        1   0.001502(     2)      2   0.004893(    12)
      4  H        1   0.000016(     3)      2  -0.000270(    13)      3   0.000115(    22)     0
      5  H        2  -0.000054(     4)      1   0.000215(    14)      3  -0.000279(    23)     0
      6  H        3   0.000324(     5)      1   0.000029(    15)      2  -0.000620(    24)     0
      7  C        3   0.000450(     6)      1   0.004419(    16)      6  -0.000783(    25)     0
      8  C        2  -0.000212(     7)      1   0.003602(    17)      5  -0.000282(    26)     0
      9  H        7   0.000266(     8)      3   0.000083(    18)      1  -0.000171(    27)     0
     10  O        7  -0.001919(     9)      3   0.001714(    19)      9  -0.000221(    28)     0
     11  H        8  -0.000152(    10)      2  -0.000131(    20)      1  -0.000032(    29)     0
     12  H        8  -0.000129(    11)      2  -0.000168(    21)     11  -0.000212(    30)     0
 -----------------------------------------------------------------------------------------------
 Internal  Forces:  Max     0.004892733 RMS     0.001502162

 GradGradGradGradGradGradGradGradGradGradGradGradGradGradGradGradGradGrad
 Berny optimization.
 Search for a local minimum.
 Step number   1 out of a maximum of   40
 All quantities printed in internal units (Hartrees-Bohrs-Radians)
 Second derivative matrix not updated -- first step.
 ITU=  0
     Eigenvalues ---    0.03270   0.04395   0.05190   0.06585   0.08289
     Eigenvalues ---    0.12682   0.16827   0.18250   0.19805   0.21588
     Eigenvalues ---    0.27056   0.30850   0.32969   0.33604   0.34617
     Eigenvalues ---    0.35035   0.35621   0.35634   0.35766   0.35950
     Eigenvalues ---    0.38913   0.42938   0.51762   0.54318   0.56033
     Eigenvalues ---    0.57017   0.59049   1.97011   4.33479  22.55316
 RFO step:  Lambda=-1.46708043D-05 EMin= 3.27026135D-02
 Linear search not attempted -- first point.
 Variable       Old X    -DE/DX   Delta X   Delta X   Delta X     New X
                                 (Linear)    (Quad)   (Total)
    R2        2.52412   0.00067   0.00000  -0.00014  -0.00014   2.52398
    R3        2.74951   0.00150   0.00000   0.00128   0.00128   2.75078
    R4        2.04660   0.00002   0.00000   0.00005   0.00005   2.04664
    R5        2.04450  -0.00005   0.00000  -0.00015  -0.00015   2.04435
    R6        2.04160   0.00032   0.00000   0.00090   0.00090   2.04251
    R7        2.53540   0.00045   0.00000   0.00033   0.00033   2.53573
    R8        2.83709  -0.00021   0.00000   0.00021   0.00021   2.83730
    R9        2.04679   0.00027   0.00000   0.00075   0.00075   2.04753
   R10        2.54855  -0.00192   0.00000  -0.00218  -0.00218   2.54636
   R11        2.05618  -0.00015   0.00000  -0.00044  -0.00044   2.05575
   R12        2.08004  -0.00013   0.00000  -0.00037  -0.00037   2.07966
    A3        2.08249   0.00489   0.00000   0.00018   0.00018   2.08267
    A4        2.11351  -0.00027   0.00000  -0.00102  -0.00102   2.11249
    A5        2.14070   0.00022   0.00000   0.00004   0.00004   2.14074
    A6        2.12332   0.00003   0.00000  -0.00020  -0.00020   2.12312
    A7        2.06101   0.00442   0.00000   0.00073   0.00073   2.06173
    A8        2.07009   0.00360   0.00000   0.00128   0.00128   2.07137
    A9        2.16891   0.00008   0.00000   0.00016   0.00016   2.16908
   A10        2.15553   0.00171   0.00000   0.00013   0.00013   2.15566
   A11        1.96113  -0.00013   0.00000   0.00018   0.00018   1.96131
   A12        1.93990  -0.00017   0.00000  -0.00162  -0.00162   1.93828
    D4       -3.06598   0.00011   0.00000   0.00231   0.00231  -3.06367
    D5        3.06165  -0.00028   0.00000  -0.00137  -0.00137   3.06027
    D6        3.02494  -0.00062   0.00000   0.00426   0.00426   3.02920
    D7        3.01117  -0.00078   0.00000   0.00049   0.00049   3.01166
    D8        3.12529  -0.00028   0.00000   0.00159   0.00159   3.12689
    D9       -2.95827  -0.00017   0.00000  -0.00195  -0.00195  -2.96021
   D10        3.04959  -0.00022   0.00000  -0.00217  -0.00217   3.04742
   D11        2.62065  -0.00003   0.00000  -0.00379  -0.00379   2.61686
   D12        2.11666  -0.00021   0.00000  -0.00186  -0.00186   2.11479
         Item               Value     Threshold  Converged?
 Maximum Force            0.004893     0.000450     NO 
 RMS     Force            0.001502     0.000300     NO 
 Maximum Displacement     0.004259     0.001800     NO 
 RMS     Displacement     0.001514     0.001200     NO 
 Predicted change in Energy=-7.335402D-06
 GradGradGradGradGradGradGradGradGradGradGradGradGradGradGradGradGradGrad

 ---------------------------------------------------------------------------------------------------
                            Z-MATRIX (ANGSTROMS AND DEGREES)
   CD    Cent   Atom    N1       Length/X        N2       Alpha/Y        N3        Beta/Z          J
 ---------------------------------------------------------------------------------------------------
      1      1  C 
      2      2  C        1   1.335633(     1)
      3      3  C        1   1.455652(     2)      2  119.328(    12)
      4      4  H        1   1.083037(     3)      2  121.037(    13)      3 -175.536(    22)      0
      5      5  H        2   1.081822(     4)      1  122.656(    14)      3  175.341(    23)      0
      6      6  H        3   1.080847(     5)      1  121.646(    15)      2  173.560(    24)      0
      7      7  C        3   1.341849(     6)      1  118.129(    16)      6  172.555(    25)      0
      8      8  C        2   1.501435(     7)      1  118.681(    17)      5  179.157(    26)      0
      9      9  H        7   1.083508(     8)      3  124.279(    18)      1 -169.608(    27)      0
     10     10  O        7   1.347477(     9)      3  123.510(    19)      9  174.604(    28)      0
     11     11  H        8   1.087854(    10)      2  112.375(    20)      1  149.935(    29)      0
     12     12  H        8   1.100510(    11)      2  111.055(    21)     11  121.169(    30)      0
 ---------------------------------------------------------------------------------------------------
                         Z-Matrix orientation:                         
 ---------------------------------------------------------------------
 Center     Atomic      Atomic             Coordinates (Angstroms)
 Number     Number       Type             X           Y           Z
 ---------------------------------------------------------------------
      1          6           0        0.000000    0.000000    0.000000
      2          6           0        0.000000    0.000000    1.335633
      3          6           0        1.269081    0.000000   -0.712991
      4          1           0       -0.925169    0.072235   -0.558403
      5          1           0       -0.907808    0.073986    1.919371
      6          1           0        1.315637   -0.103201   -1.787892
      7          6           0        2.383302    0.283968   -0.021303
      8          6           0        1.311153   -0.126292    2.056214
      9          1           0        3.350715    0.470270   -0.472295
     10          8           0        2.402895    0.473024    1.312701
     11          1           0        1.305192    0.380579    3.018749
     12          1           0        1.567422   -1.182571    2.228613
 ---------------------------------------------------------------------
                    Distance matrix (angstroms):
                    1          2          3          4          5
     1  C    0.000000
     2  C    1.335633   0.000000
     3  C    1.455652   2.409860   0.000000
     4  H    1.083037   2.109153   2.200874   0.000000
     5  H    2.124518   1.081822   3.416672   2.477836   0.000000
     6  H    2.222186   3.390864   1.080847   2.561958   4.326535
     7  C    2.400254   2.757180   1.341849   3.358465   3.826449
     8  C    2.441943   1.501435   2.772403   3.446269   2.232179
     9  H    3.416359   3.836281   2.147624   4.295234   4.900217
    10  O    2.778640   2.449119   2.369117   3.838968   3.389400
    11  H    3.310772   2.163619   3.751270   4.226772   2.489979
    12  H    2.970185   2.157012   3.184418   3.943984   2.793086
                    6          7          8          9         10
     6  H    0.000000
     7  C    2.100154   0.000000
     8  C    3.844178   2.373583   0.000000
     9  H    2.490223   1.083508   3.302886   0.000000
    10  O    3.335843   1.347477   1.450480   2.021035   0.000000
    11  H    4.830937   3.227007   1.087854   4.047172   2.030787
    12  H    4.166623   2.806870   1.100510   3.634133   2.068310
                   11         12
    11  H    0.000000
    12  H    1.771022   0.000000
 Symmetry turned off by external request.
 Stoichiometry    C5H6O
 Framework group  C1[X(C5H6O)]
 Deg. of freedom    30
 Full point group                 C1      NOp   1
 Rotational constants (GHZ):           5.5686938           5.3720365           2.8450331
 Standard basis: def2TZVP (5D, 7F)
 The following finite field(s) will be applied:
 An electric field of              0.0031 -0.0022 -0.0065
   222 basis functions,   354 primitive gaussians,   252 cartesian basis functions
    22 alpha electrons       22 beta electrons
       nuclear repulsion energy       223.4426405435 Hartrees.
 NAtoms=   12 NActive=   12 NUniq=   12 SFac= 1.00D+00 NAtFMM=   60 NAOKFM=F Big=F
 Integral buffers will be    131072 words long.
 Raffenetti 2 integral format.
 Two-electron integral symmetry is turned off.
 One-electron integrals computed using PRISM.
   1 Symmetry operations used in ECPInt.
 ECPInt:  NShTT=    4095 NPrTT=   12396 LenC2=    4075 LenP2D=   10417.
 LDataN:  DoStor=T MaxTD1= 6 Len=  172
 NBasis=   222 RedAO= T EigKep=  9.55D-05  NBF=   222
 NBsUse=   222 1.00D-06 EigRej= -1.00D+00 NBFU=   222
 The nuclear repulsion energy is now       223.3680758406 hartrees.
 Initial guess from the checkpoint file:  "checkpoint.chk"
 B after Tr=     0.000804    0.002252   -0.000007
         Rot=    0.999999    0.000131    0.000006    0.001288 Ang=   0.15 deg.
 Keep R1 ints in memory in canonical form, NReq=319363885.
 Requested convergence on RMS density matrix=1.00D-08 within 128 cycles.
 Requested convergence on MAX density matrix=1.00D-06.
 Requested convergence on             energy=1.00D-06.
 No special actions if energy rises.
 SCF Done:  E(RB3LYP) =  -269.424848818     A.U. after    8 cycles
            NFock=  8  Conv=0.79D-08     -V/T= 2.0050
   1 Symmetry operations used in ECPInt.
 ECPInt:  NShTT=    4095 NPrTT=   12396 LenC2=    4075 LenP2D=   10417.
 LDataN:  DoStor=T MaxTD1= 7 Len=  274
 Calling FoFJK, ICntrl=      2127 FMM=F ISym2X=0 I1Cent= 0 IOpClX= 0 NMat=1 NMatS=1 NMatT=0.
 -------------------------------------------------------------------
 Center     Atomic                   Forces (Hartrees/Bohr)
 Number     Number              X              Y              Z
 -------------------------------------------------------------------
      1        6          -0.000637563    0.000312616    0.000019232
      2        6           0.000715341    0.000284854   -0.000253173
      3        6           0.000098005   -0.000572159   -0.000110506
      4        1          -0.000003972   -0.000014230    0.000027985
      5        1           0.000012567   -0.000051915    0.000058500
      6        1          -0.000010032   -0.000014497    0.000004684
      7        6          -0.000211048    0.000256164    0.000559622
      8        6          -0.000369543   -0.000162096    0.000270782
      9        1          -0.000004037    0.000020293   -0.000048464
     10        8           0.000305164   -0.000237194   -0.000495617
     11        1           0.000056301    0.000116432   -0.000092763
     12        1           0.000048817    0.000061732    0.000059717
 -------------------------------------------------------------------
 Cartesian Forces:  Max     0.000715341 RMS     0.000269295
 -----------------------------------------------------------------------------------------------
                       Internal Coordinate Forces (Hartree/Bohr or radian)
  Cent   Atom   N1       Length/X         N2         Alpha/Y        N3         Beta/Z          J
 -----------------------------------------------------------------------------------------------
      1  C 
      2  C        1   0.000043(     1)
      3  C        1   0.000199(     2)      2   0.000961(    12)
      4  H        1  -0.000012(     3)      2  -0.000052(    13)      3  -0.000025(    22)     0
      5  H        2   0.000017(     4)      1   0.000119(    14)      3   0.000136(    23)     0
      6  H        3  -0.000004(     5)      1  -0.000022(    15)      2   0.000327(    24)     0
      7  C        3   0.000091(     6)      1   0.000901(    16)      6   0.000352(    25)     0
      8  C        2  -0.000118(     7)      1   0.000907(    17)      5   0.000049(    26)     0
      9  H        7   0.000020(     8)      3  -0.000088(    18)      1   0.000495(    27)     0
     10  O        7  -0.000520(     9)      3   0.000716(    19)      9   0.000455(    28)     0
     11  H        8  -0.000028(    10)      2   0.000012(    20)      1  -0.000357(    29)     0
     12  H        8  -0.000039(    11)      2   0.000178(    21)     11  -0.000059(    30)     0
 -----------------------------------------------------------------------------------------------
 Internal  Forces:  Max     0.000961282 RMS     0.000378631

 GradGradGradGradGradGradGradGradGradGradGradGradGradGradGradGradGradGrad
 Berny optimization.
 Search for a local minimum.
 Step number   2 out of a maximum of   40
 All quantities printed in internal units (Hartrees-Bohrs-Radians)
 Update second derivatives using D2CorN and points    1    2
 DE= -9.44D-06 DEPred=-7.34D-06 R= 1.29D+00
 TightC=F SS=  1.41D+00  RLast= 8.29D-03 DXNew= 1.6818D-01 2.4874D-02
 Trust test= 1.29D+00 RLast= 8.29D-03 DXMaxT set to 1.00D-01
 ITU=  1  0
     Eigenvalues ---    0.02821   0.03793   0.04759   0.06647   0.07174
     Eigenvalues ---    0.12700   0.16483   0.18176   0.19864   0.21763
     Eigenvalues ---    0.27127   0.30889   0.32960   0.33580   0.34623
     Eigenvalues ---    0.35005   0.35568   0.35635   0.35769   0.35921
     Eigenvalues ---    0.38977   0.42296   0.51699   0.53522   0.56002
     Eigenvalues ---    0.56853   0.59084   1.96948   4.32358  22.54757
 RFO step:  Lambda=-6.76508651D-06 EMin= 2.82142017D-02
 Quartic linear search produced a step of  0.39083.
 Variable       Old X    -DE/DX   Delta X   Delta X   Delta X     New X
                                 (Linear)    (Quad)   (Total)
    R2        2.52398   0.00004  -0.00006  -0.00015  -0.00021   2.52377
    R3        2.75078   0.00020   0.00050  -0.00056  -0.00006   2.75072
    R4        2.04664  -0.00001   0.00002  -0.00007  -0.00005   2.04659
    R5        2.04435   0.00002  -0.00006   0.00012   0.00006   2.04441
    R6        2.04251  -0.00000   0.00035  -0.00026   0.00009   2.04260
    R7        2.53573   0.00009   0.00013  -0.00018  -0.00005   2.53568
    R8        2.83730  -0.00012   0.00008   0.00008   0.00016   2.83746
    R9        2.04753   0.00002   0.00029  -0.00011   0.00019   2.04772
   R10        2.54636  -0.00052  -0.00085  -0.00057  -0.00142   2.54494
   R11        2.05575  -0.00003  -0.00017  -0.00002  -0.00019   2.05555
   R12        2.07966  -0.00004  -0.00015  -0.00008  -0.00023   2.07944
    A3        2.08267   0.00096   0.00007  -0.00004   0.00003   2.08270
    A4        2.11249  -0.00005  -0.00040  -0.00011  -0.00051   2.11199
    A5        2.14074   0.00012   0.00002  -0.00036  -0.00034   2.14040
    A6        2.12312  -0.00002  -0.00008   0.00003  -0.00005   2.12307
    A7        2.06173   0.00090   0.00028  -0.00046  -0.00018   2.06155
    A8        2.07137   0.00091   0.00050   0.00152   0.00202   2.07339
    A9        2.16908  -0.00009   0.00006  -0.00139  -0.00132   2.16775
   A10        2.15566   0.00072   0.00005   0.00176   0.00181   2.15747
   A11        1.96131   0.00001   0.00007  -0.00003   0.00004   1.96135
   A12        1.93828   0.00018  -0.00063   0.00150   0.00086   1.93914
    D4       -3.06367  -0.00003   0.00090   0.00118   0.00208  -3.06159
    D5        3.06027   0.00014  -0.00054  -0.00134  -0.00188   3.05840
    D6        3.02920   0.00033   0.00166   0.00308   0.00475   3.03394
    D7        3.01166   0.00035   0.00019  -0.00056  -0.00037   3.01129
    D8        3.12689   0.00005   0.00062   0.00091   0.00154   3.12842
    D9       -2.96021   0.00049  -0.00076  -0.00005  -0.00081  -2.96103
   D10        3.04742   0.00046  -0.00085   0.00065  -0.00020   3.04723
   D11        2.61686  -0.00036  -0.00148  -0.00729  -0.00877   2.60809
   D12        2.11479  -0.00006  -0.00073   0.00167   0.00095   2.11574
         Item               Value     Threshold  Converged?
 Maximum Force            0.000961     0.000450     NO 
 RMS     Force            0.000379     0.000300     NO 
 Maximum Displacement     0.008771     0.001800     NO 
 RMS     Displacement     0.002032     0.001200     NO 
 Predicted change in Energy=-3.550446D-06
 GradGradGradGradGradGradGradGradGradGradGradGradGradGradGradGradGradGrad

 ---------------------------------------------------------------------------------------------------
                            Z-MATRIX (ANGSTROMS AND DEGREES)
   CD    Cent   Atom    N1       Length/X        N2       Alpha/Y        N3        Beta/Z          J
 ---------------------------------------------------------------------------------------------------
      1      1  C 
      2      2  C        1   1.335523(     1)
      3      3  C        1   1.455619(     2)      2  119.330(    12)
      4      4  H        1   1.083011(     3)      2  121.008(    13)      3 -175.416(    22)      0
      5      5  H        2   1.081857(     4)      1  122.636(    14)      3  175.233(    23)      0
      6      6  H        3   1.080897(     5)      1  121.643(    15)      2  173.832(    24)      0
      7      7  C        3   1.341822(     6)      1  118.118(    16)      6  172.534(    25)      0
      8      8  C        2   1.501519(     7)      1  118.797(    17)      5  179.246(    26)      0
      9      9  H        7   1.083607(     8)      3  124.203(    18)      1 -169.654(    27)      0
     10     10  O        7   1.346726(     9)      3  123.614(    19)      9  174.593(    28)      0
     11     11  H        8   1.087751(    10)      2  112.377(    20)      1  149.433(    29)      0
     12     12  H        8   1.100390(    11)      2  111.105(    21)     11  121.223(    30)      0
 ---------------------------------------------------------------------------------------------------
                         Z-Matrix orientation:                         
 ---------------------------------------------------------------------
 Center     Atomic      Atomic             Coordinates (Angstroms)
 Number     Number       Type             X           Y           Z
 ---------------------------------------------------------------------
      1          6           0        0.000000    0.000000    0.000000
      2          6           0        0.000000    0.000000    1.335523
      3          6           0        1.269031    0.000000   -0.713014
      4          1           0       -0.925276    0.074184   -0.557919
      5          1           0       -0.907894    0.075708    1.918969
      6          1           0        1.315271   -0.098868   -1.788386
      7          6           0        2.383723    0.278959   -0.020099
      8          6           0        1.309729   -0.126603    2.058808
      9          1           0        3.351266    0.464062   -0.471541
     10          8           0        2.405722    0.464246    1.313639
     11          1           0        1.304915    0.387769    3.017244
     12          1           0        1.562203   -1.182306    2.239380
 ---------------------------------------------------------------------
                    Distance matrix (angstroms):
                    1          2          3          4          5
     1  C    0.000000
     2  C    1.335523   0.000000
     3  C    1.455619   2.409759   0.000000
     4  H    1.083011   2.108734   2.201032   0.000000
     5  H    2.124252   1.081857   3.416441   2.476950   0.000000
     6  H    2.222170   3.390947   1.080897   2.562040   4.326364
     7  C    2.400074   2.756386   1.341822   3.358669   3.825708
     8  C    2.443381   1.501519   2.775010   3.447147   2.231219
     9  H    3.415946   3.835599   2.146944   4.295146   4.899572
    10  O    2.780049   2.450205   2.369581   3.840629   3.390788
    11  H    3.310126   2.163644   3.750530   4.225385   2.490003
    12  H    2.975424   2.157611   3.193811   3.948569   2.790456
                    6          7          8          9         10
     6  H    0.000000
     7  C    2.100281   0.000000
     8  C    3.847298   2.374825   0.000000
     9  H    2.489226   1.083607   3.304455   0.000000
    10  O    3.335977   1.346726   1.451062   2.020129   0.000000
    11  H    4.830218   3.225076   1.087751   4.045367   2.029753
    12  H    4.178243   2.813438   1.100390   3.641479   2.068733
                   11         12
    11  H    0.000000
    12  H    1.770990   0.000000
 Symmetry turned off by external request.
 Stoichiometry    C5H6O
 Framework group  C1[X(C5H6O)]
 Deg. of freedom    30
 Full point group                 C1      NOp   1
 Rotational constants (GHZ):           5.5671025           5.3711794           2.8426092
 Standard basis: def2TZVP (5D, 7F)
 The following finite field(s) will be applied:
 An electric field of              0.0031 -0.0022 -0.0065
   222 basis functions,   354 primitive gaussians,   252 cartesian basis functions
    22 alpha electrons       22 beta electrons
       nuclear repulsion energy       223.4173831657 Hartrees.
 NAtoms=   12 NActive=   12 NUniq=   12 SFac= 1.00D+00 NAtFMM=   60 NAOKFM=F Big=F
 Integral buffers will be    131072 words long.
 Raffenetti 2 integral format.
 Two-electron integral symmetry is turned off.
 One-electron integrals computed using PRISM.
   1 Symmetry operations used in ECPInt.
 ECPInt:  NShTT=    4095 NPrTT=   12396 LenC2=    4075 LenP2D=   10419.
 LDataN:  DoStor=T MaxTD1= 6 Len=  172
 NBasis=   222 RedAO= T EigKep=  9.54D-05  NBF=   222
 NBsUse=   222 1.00D-06 EigRej= -1.00D+00 NBFU=   222
 The nuclear repulsion energy is now       223.3427846963 hartrees.
 Initial guess from the checkpoint file:  "checkpoint.chk"
 B after Tr=     0.000296    0.002518    0.001054
         Rot=    0.999999    0.000030    0.000135    0.001402 Ang=   0.16 deg.
 Keep R1 ints in memory in canonical form, NReq=319363885.
 Requested convergence on RMS density matrix=1.00D-08 within 128 cycles.
 Requested convergence on MAX density matrix=1.00D-06.
 Requested convergence on             energy=1.00D-06.
 No special actions if energy rises.
 SCF Done:  E(RB3LYP) =  -269.424853897     A.U. after    9 cycles
            NFock=  9  Conv=0.34D-08     -V/T= 2.0050
   1 Symmetry operations used in ECPInt.
 ECPInt:  NShTT=    4095 NPrTT=   12396 LenC2=    4075 LenP2D=   10419.
 LDataN:  DoStor=T MaxTD1= 7 Len=  274
 Calling FoFJK, ICntrl=      2127 FMM=F ISym2X=0 I1Cent= 0 IOpClX= 0 NMat=1 NMatS=1 NMatT=0.
 -------------------------------------------------------------------
 Center     Atomic                   Forces (Hartrees/Bohr)
 Number     Number              X              Y              Z
 -------------------------------------------------------------------
      1        6          -0.000577048    0.000460680    0.000052121
      2        6           0.000662141    0.000324597   -0.000009291
      3        6           0.000035855   -0.000626118   -0.000071798
      4        1          -0.000010284   -0.000062838    0.000006409
      5        1          -0.000007415   -0.000104155    0.000033727
      6        1           0.000026315   -0.000050386    0.000064530
      7        6           0.000025033    0.000259888   -0.000024123
      8        6          -0.000188650   -0.000000840    0.000065213
      9        1          -0.000014363   -0.000009007   -0.000013418
     10        8           0.000111896   -0.000262365   -0.000209951
     11        1          -0.000104871    0.000020165    0.000068141
     12        1           0.000041392    0.000050378    0.000038440
 -------------------------------------------------------------------
 Cartesian Forces:  Max     0.000662141 RMS     0.000221740
 -----------------------------------------------------------------------------------------------
                       Internal Coordinate Forces (Hartree/Bohr or radian)
  Cent   Atom   N1       Length/X         N2         Alpha/Y        N3         Beta/Z          J
 -----------------------------------------------------------------------------------------------
      1  C 
      2  C        1   0.000196(     1)
      3  C        1   0.000286(     2)      2   0.001312(    12)
      4  H        1   0.000001(     3)      2  -0.000017(    13)      3  -0.000111(    22)     0
      5  H        2   0.000017(     4)      1   0.000059(    14)      3   0.000500(    23)     0
      6  H        3  -0.000058(     5)      1   0.000053(    15)      2   0.000375(    24)     0
      7  C        3  -0.000028(     6)      1   0.000959(    16)      6   0.000475(    25)     0
      8  C        2  -0.000143(     7)      1   0.000978(    17)      5   0.000321(    26)     0
      9  H        7  -0.000009(     8)      3  -0.000039(    18)      1   0.000514(    27)     0
     10  O        7  -0.000242(     9)      3   0.000196(    19)      9   0.000523(    28)     0
     11  H        8   0.000070(    10)      2  -0.000193(    20)      1   0.000061(    29)     0
     12  H        8  -0.000033(    11)      2   0.000138(    21)     11  -0.000030(    30)     0
 -----------------------------------------------------------------------------------------------
 Internal  Forces:  Max     0.001312281 RMS     0.000415711

 GradGradGradGradGradGradGradGradGradGradGradGradGradGradGradGradGradGrad
 Berny optimization.
 Search for a local minimum.
 Step number   3 out of a maximum of   40
 All quantities printed in internal units (Hartrees-Bohrs-Radians)
 Update second derivatives using D2CorN and points    1    2    3
 DE= -5.08D-06 DEPred=-3.55D-06 R= 1.43D+00
 TightC=F SS=  1.41D+00  RLast= 1.11D-02 DXNew= 1.6818D-01 3.3392D-02
 Trust test= 1.43D+00 RLast= 1.11D-02 DXMaxT set to 1.00D-01
 ITU=  1  1  0
     Eigenvalues ---    0.03251   0.03510   0.04673   0.06403   0.07024
     Eigenvalues ---    0.12729   0.16316   0.18235   0.19872   0.21740
     Eigenvalues ---    0.27137   0.30886   0.32951   0.33568   0.34625
     Eigenvalues ---    0.35019   0.35554   0.35635   0.35770   0.35930
     Eigenvalues ---    0.38952   0.41577   0.51686   0.53523   0.56005
     Eigenvalues ---    0.56827   0.59085   1.96887   4.31666  22.54532
 RFO step:  Lambda=-2.80847262D-06 EMin= 3.25087748D-02
 Quartic linear search produced a step of  0.46834.
 Variable       Old X    -DE/DX   Delta X   Delta X   Delta X     New X
                                 (Linear)    (Quad)   (Total)
    R2        2.52377   0.00020  -0.00010   0.00003  -0.00007   2.52370
    R3        2.75072   0.00029  -0.00003   0.00022   0.00020   2.75092
    R4        2.04659   0.00000  -0.00002   0.00002  -0.00000   2.04659
    R5        2.04441   0.00002   0.00003   0.00004   0.00007   2.04448
    R6        2.04260  -0.00006   0.00004  -0.00019  -0.00015   2.04245
    R7        2.53568  -0.00003  -0.00002  -0.00012  -0.00014   2.53553
    R8        2.83746  -0.00014   0.00007  -0.00036  -0.00029   2.83718
    R9        2.04772  -0.00001   0.00009  -0.00002   0.00006   2.04778
   R10        2.54494  -0.00024  -0.00066   0.00018  -0.00048   2.54446
   R11        2.05555   0.00007  -0.00009   0.00031   0.00022   2.05577
   R12        2.07944  -0.00003  -0.00011  -0.00011  -0.00022   2.07922
    A3        2.08270   0.00131   0.00001   0.00051   0.00052   2.08322
    A4        2.11199  -0.00002  -0.00024  -0.00028  -0.00051   2.11147
    A5        2.14040   0.00006  -0.00016  -0.00002  -0.00017   2.14023
    A6        2.12307   0.00005  -0.00002   0.00021   0.00019   2.12326
    A7        2.06155   0.00096  -0.00008   0.00007  -0.00002   2.06154
    A8        2.07339   0.00098   0.00095   0.00020   0.00115   2.07454
    A9        2.16775  -0.00004  -0.00062   0.00018  -0.00044   2.16731
   A10        2.15747   0.00020   0.00085  -0.00050   0.00035   2.15782
   A11        1.96135  -0.00019   0.00002  -0.00085  -0.00083   1.96053
   A12        1.93914   0.00014   0.00040  -0.00001   0.00039   1.93953
    D4       -3.06159  -0.00011   0.00098  -0.00194  -0.00097  -3.06256
    D5        3.05840   0.00050  -0.00088   0.00192   0.00104   3.05944
    D6        3.03394   0.00037   0.00222  -0.00097   0.00126   3.03520
    D7        3.01129   0.00047  -0.00017   0.00006  -0.00011   3.01118
    D8        3.12842   0.00032   0.00072   0.00012   0.00084   3.12927
    D9       -2.96103   0.00051  -0.00038  -0.00038  -0.00076  -2.96179
   D10        3.04723   0.00052  -0.00009   0.00133   0.00124   3.04847
   D11        2.60809   0.00006  -0.00411  -0.00205  -0.00616   2.60193
   D12        2.11574  -0.00003   0.00044  -0.00091  -0.00047   2.11526
         Item               Value     Threshold  Converged?
 Maximum Force            0.001312     0.000450     NO 
 RMS     Force            0.000416     0.000300     NO 
 Maximum Displacement     0.006159     0.001800     NO 
 RMS     Displacement     0.001267     0.001200     NO 
 Predicted change in Energy=-1.571274D-06
 GradGradGradGradGradGradGradGradGradGradGradGradGradGradGradGradGradGrad

 ---------------------------------------------------------------------------------------------------
                            Z-MATRIX (ANGSTROMS AND DEGREES)
   CD    Cent   Atom    N1       Length/X        N2       Alpha/Y        N3        Beta/Z          J
 ---------------------------------------------------------------------------------------------------
      1      1  C 
      2      2  C        1   1.335486(     1)
      3      3  C        1   1.455723(     2)      2  119.360(    12)
      4      4  H        1   1.083011(     3)      2  120.978(    13)      3 -175.472(    22)      0
      5      5  H        2   1.081894(     4)      1  122.626(    14)      3  175.293(    23)      0
      6      6  H        3   1.080820(     5)      1  121.654(    15)      2  173.904(    24)      0
      7      7  C        3   1.341747(     6)      1  118.117(    16)      6  172.528(    25)      0
      8      8  C        2   1.501368(     7)      1  118.863(    17)      5  179.294(    26)      0
      9      9  H        7   1.083641(     8)      3  124.178(    18)      1 -169.698(    27)      0
     10     10  O        7   1.346471(     9)      3  123.634(    19)      9  174.664(    28)      0
     11     11  H        8   1.087866(    10)      2  112.330(    20)      1  149.080(    29)      0
     12     12  H        8   1.100276(    11)      2  111.127(    21)     11  121.196(    30)      0
 ---------------------------------------------------------------------------------------------------
                         Z-Matrix orientation:                         
 ---------------------------------------------------------------------
 Center     Atomic      Atomic             Coordinates (Angstroms)
 Number     Number       Type             X           Y           Z
 ---------------------------------------------------------------------
      1          6           0        0.000000    0.000000    0.000000
      2          6           0        0.000000    0.000000    1.335486
      3          6           0        1.268749    0.000000   -0.713726
      4          1           0       -0.925633    0.073311   -0.557442
      5          1           0       -0.908106    0.074775    1.918794
      6          1           0        1.314571   -0.097700   -1.789145
      7          6           0        2.383885    0.277624   -0.021135
      8          6           0        1.309005   -0.124044    2.060211
      9          1           0        3.351287    0.461916   -0.473292
     10          8           0        2.407213    0.461070    1.312577
     11          1           0        1.303297    0.395891    3.015767
     12          1           0        1.560322   -1.178764    2.247326
 ---------------------------------------------------------------------
                    Distance matrix (angstroms):
                    1          2          3          4          5
     1  C    0.000000
     2  C    1.335486   0.000000
     3  C    1.455723   2.410185   0.000000
     4  H    1.083011   2.108399   2.201162   0.000000
     5  H    2.124151   1.081894   3.416789   2.476298   0.000000
     6  H    2.222315   3.391307   1.080820   2.562197   4.326529
     7  C    2.400089   2.756883   1.341747   3.358910   3.826444
     8  C    2.444044   1.501368   2.777001   3.447414   2.230495
     9  H    3.415918   3.836166   2.146658   4.295363   4.900447
    10  O    2.780309   2.451078   2.369512   3.841248   3.392353
    11  H    3.309103   2.163020   3.750605   4.223743   2.489331
    12  H    2.979021   2.157671   3.200363   3.951504   2.787908
                    6          7          8          9         10
     6  H    0.000000
     7  C    2.100038   0.000000
     8  C    3.849451   2.376701   0.000000
     9  H    2.488544   1.083641   3.306494   0.000000
    10  O    3.335681   1.346471   1.451681   2.020051   0.000000
    11  H    4.830211   3.225590   1.087866   4.046252   2.030698
    12  H    4.185952   2.818729   1.100276   3.647074   2.068825
                   11         12
    11  H    0.000000
    12  H    1.770905   0.000000
 Symmetry turned off by external request.
 Stoichiometry    C5H6O
 Framework group  C1[X(C5H6O)]
 Deg. of freedom    30
 Full point group                 C1      NOp   1
 Rotational constants (GHZ):           5.5634157           5.3719787           2.8405479
 Standard basis: def2TZVP (5D, 7F)
 The following finite field(s) will be applied:
 An electric field of              0.0031 -0.0022 -0.0065
   222 basis functions,   354 primitive gaussians,   252 cartesian basis functions
    22 alpha electrons       22 beta electrons
       nuclear repulsion energy       223.3872804946 Hartrees.
 NAtoms=   12 NActive=   12 NUniq=   12 SFac= 1.00D+00 NAtFMM=   60 NAOKFM=F Big=F
 Integral buffers will be    131072 words long.
 Raffenetti 2 integral format.
 Two-electron integral symmetry is turned off.
 One-electron integrals computed using PRISM.
   1 Symmetry operations used in ECPInt.
 ECPInt:  NShTT=    4095 NPrTT=   12396 LenC2=    4075 LenP2D=   10419.
 LDataN:  DoStor=T MaxTD1= 6 Len=  172
 NBasis=   222 RedAO= T EigKep=  9.53D-05  NBF=   222
 NBsUse=   222 1.00D-06 EigRej= -1.00D+00 NBFU=   222
 The nuclear repulsion energy is now       223.3128118625 hartrees.
 Initial guess from the checkpoint file:  "checkpoint.chk"
 B after Tr=    -0.000209    0.000316    0.000152
         Rot=    1.000000    0.000448   -0.000056    0.000404 Ang=   0.07 deg.
 Keep R1 ints in memory in canonical form, NReq=319363885.
 Requested convergence on RMS density matrix=1.00D-08 within 128 cycles.
 Requested convergence on MAX density matrix=1.00D-06.
 Requested convergence on             energy=1.00D-06.
 No special actions if energy rises.
 SCF Done:  E(RB3LYP) =  -269.424856303     A.U. after    8 cycles
            NFock=  8  Conv=0.53D-08     -V/T= 2.0050
   1 Symmetry operations used in ECPInt.
 ECPInt:  NShTT=    4095 NPrTT=   12396 LenC2=    4075 LenP2D=   10419.
 LDataN:  DoStor=T MaxTD1= 7 Len=  274
 Calling FoFJK, ICntrl=      2127 FMM=F ISym2X=0 I1Cent= 0 IOpClX= 0 NMat=1 NMatS=1 NMatT=0.
 -------------------------------------------------------------------
 Center     Atomic                   Forces (Hartrees/Bohr)
 Number     Number              X              Y              Z
 -------------------------------------------------------------------
      1        6          -0.000588879    0.000368273    0.000043939
      2        6           0.000651806    0.000410690   -0.000061879
      3        6          -0.000015758   -0.000538239   -0.000023848
      4        1          -0.000002053   -0.000075762   -0.000010475
      5        1          -0.000005162   -0.000093354    0.000010382
      6        1          -0.000003627   -0.000051953    0.000018022
      7        6          -0.000065698    0.000108509   -0.000067944
      8        6          -0.000028038   -0.000014370   -0.000110274
      9        1          -0.000007680   -0.000014629    0.000052646
     10        8           0.000046190   -0.000124486    0.000078246
     11        1          -0.000013791    0.000008585    0.000016233
     12        1           0.000032690    0.000016734    0.000054952
 -------------------------------------------------------------------
 Cartesian Forces:  Max     0.000651806 RMS     0.000201073
 -----------------------------------------------------------------------------------------------
                       Internal Coordinate Forces (Hartree/Bohr or radian)
  Cent   Atom   N1       Length/X         N2         Alpha/Y        N3         Beta/Z          J
 -----------------------------------------------------------------------------------------------
      1  C 
      2  C        1  -0.000091(     1)
      3  C        1  -0.000069(     2)      2  -0.000213(    12)
      4  H        1   0.000002(     3)      2   0.000023(    13)      3  -0.000133(    22)     0
      5  H        2   0.000003(     4)      1   0.000021(    14)      3   0.000272(    23)     0
      6  H        3  -0.000013(     5)      1  -0.000012(    15)      2   0.000320(    24)     0
      7  C        3   0.000004(     6)      1  -0.000170(    16)      6   0.000413(    25)     0
      8  C        2  -0.000028(     7)      1  -0.000033(    17)      5   0.000112(    26)     0
      9  H        7  -0.000031(     8)      3   0.000088(    18)      1   0.000269(    27)     0
     10  O        7   0.000061(     9)      3   0.000058(    19)      9   0.000296(    28)     0
     11  H        8   0.000018(    10)      2  -0.000026(    20)      1  -0.000055(    29)     0
     12  H        8   0.000001(    11)      2   0.000119(    21)     11  -0.000064(    30)     0
 -----------------------------------------------------------------------------------------------
 Internal  Forces:  Max     0.000412841 RMS     0.000148982

 GradGradGradGradGradGradGradGradGradGradGradGradGradGradGradGradGradGrad
 Berny optimization.
 Search for a local minimum.
 Step number   4 out of a maximum of   40
 All quantities printed in internal units (Hartrees-Bohrs-Radians)
 Update second derivatives using D2CorN and points    1    2    3    4
 DE= -2.41D-06 DEPred=-1.57D-06 R= 1.53D+00
 TightC=F SS=  1.41D+00  RLast= 6.94D-03 DXNew= 1.6818D-01 2.0826D-02
 Trust test= 1.53D+00 RLast= 6.94D-03 DXMaxT set to 1.00D-01
 ITU=  1  1  1  0
     Eigenvalues ---    0.02261   0.03680   0.04694   0.06298   0.07017
     Eigenvalues ---    0.12671   0.16212   0.18266   0.19882   0.21743
     Eigenvalues ---    0.27141   0.30878   0.32936   0.33563   0.34624
     Eigenvalues ---    0.35018   0.35552   0.35635   0.35770   0.35930
     Eigenvalues ---    0.38938   0.41089   0.51715   0.53510   0.56033
     Eigenvalues ---    0.56823   0.59099   1.96923   4.31048  22.54578
 RFO step:  Lambda=-1.14843173D-06 EMin= 2.26136623D-02
 Quartic linear search produced a step of  0.55002.
 Variable       Old X    -DE/DX   Delta X   Delta X   Delta X     New X
                                 (Linear)    (Quad)   (Total)
    R2        2.52370  -0.00009  -0.00004  -0.00015  -0.00019   2.52351
    R3        2.75092  -0.00007   0.00011  -0.00018  -0.00007   2.75085
    R4        2.04659   0.00000  -0.00000   0.00001   0.00001   2.04660
    R5        2.04448   0.00000   0.00004  -0.00001   0.00003   2.04452
    R6        2.04245  -0.00001  -0.00008   0.00004  -0.00004   2.04241
    R7        2.53553   0.00000  -0.00008   0.00006  -0.00002   2.53551
    R8        2.83718  -0.00003  -0.00016   0.00006  -0.00010   2.83707
    R9        2.04778  -0.00003   0.00004  -0.00011  -0.00007   2.04771
   R10        2.54446   0.00006  -0.00027   0.00004  -0.00023   2.54423
   R11        2.05577   0.00002   0.00012  -0.00001   0.00010   2.05587
   R12        2.07922   0.00000  -0.00012   0.00003  -0.00009   2.07913
    A3        2.08322  -0.00021   0.00029  -0.00021   0.00007   2.08329
    A4        2.11147   0.00002  -0.00028   0.00022  -0.00006   2.11141
    A5        2.14023   0.00002  -0.00010  -0.00022  -0.00032   2.13991
    A6        2.12326  -0.00001   0.00011  -0.00005   0.00005   2.12332
    A7        2.06154  -0.00017  -0.00001  -0.00008  -0.00009   2.06144
    A8        2.07454  -0.00003   0.00063   0.00052   0.00115   2.07569
    A9        2.16731   0.00009  -0.00024   0.00028   0.00003   2.16735
   A10        2.15782   0.00006   0.00019   0.00057   0.00076   2.15858
   A11        1.96053  -0.00003  -0.00046  -0.00015  -0.00060   1.95992
   A12        1.93953   0.00012   0.00022   0.00060   0.00081   1.94035
    D4       -3.06256  -0.00013  -0.00053  -0.00162  -0.00215  -3.06471
    D5        3.05944   0.00027   0.00057   0.00135   0.00192   3.06136
    D6        3.03520   0.00032   0.00069  -0.00032   0.00037   3.03557
    D7        3.01118   0.00041  -0.00006   0.00094   0.00088   3.01206
    D8        3.12927   0.00011   0.00046  -0.00103  -0.00057   3.12870
    D9       -2.96179   0.00027  -0.00042  -0.00126  -0.00168  -2.96347
   D10        3.04847   0.00030   0.00068   0.00098   0.00166   3.05013
   D11        2.60193  -0.00006  -0.00339  -0.00220  -0.00559   2.59634
   D12        2.11526  -0.00006  -0.00026   0.00001  -0.00025   2.11501
         Item               Value     Threshold  Converged?
 Maximum Force            0.000413     0.000450     YES
 RMS     Force            0.000149     0.000300     YES
 Maximum Displacement     0.005590     0.001800     NO 
 RMS     Displacement     0.001286     0.001200     NO 
 Predicted change in Energy=-7.957258D-07
 GradGradGradGradGradGradGradGradGradGradGradGradGradGradGradGradGradGrad

 ---------------------------------------------------------------------------------------------------
                            Z-MATRIX (ANGSTROMS AND DEGREES)
   CD    Cent   Atom    N1       Length/X        N2       Alpha/Y        N3        Beta/Z          J
 ---------------------------------------------------------------------------------------------------
      1      1  C 
      2      2  C        1   1.335385(     1)
      3      3  C        1   1.455685(     2)      2  119.364(    12)
      4      4  H        1   1.083015(     3)      2  120.975(    13)      3 -175.595(    22)      0
      5      5  H        2   1.081911(     4)      1  122.608(    14)      3  175.403(    23)      0
      6      6  H        3   1.080799(     5)      1  121.657(    15)      2  173.925(    24)      0
      7      7  C        3   1.341736(     6)      1  118.112(    16)      6  172.578(    25)      0
      8      8  C        2   1.501315(     7)      1  118.928(    17)      5  179.261(    26)      0
      9      9  H        7   1.083603(     8)      3  124.180(    18)      1 -169.794(    27)      0
     10     10  O        7   1.346351(     9)      3  123.677(    19)      9  174.759(    28)      0
     11     11  H        8   1.087921(    10)      2  112.295(    20)      1  148.759(    29)      0
     12     12  H        8   1.100227(    11)      2  111.174(    21)     11  121.181(    30)      0
 ---------------------------------------------------------------------------------------------------
                         Z-Matrix orientation:                         
 ---------------------------------------------------------------------
 Center     Atomic      Atomic             Coordinates (Angstroms)
 Number     Number       Type             X           Y           Z
 ---------------------------------------------------------------------
      1          6           0        0.000000    0.000000    0.000000
      2          6           0        0.000000    0.000000    1.335385
      3          6           0        1.268664    0.000000   -0.713800
      4          1           0       -0.925828    0.071321   -0.557384
      5          1           0       -0.908447    0.073047    1.918411
      6          1           0        1.314443   -0.097355   -1.789231
      7          6           0        2.383943    0.276199   -0.020892
      8          6           0        1.308295   -0.122196    2.061593
      9          1           0        3.351759    0.458941   -0.472703
     10          8           0        2.408361    0.458337    1.312858
     11          1           0        1.302021    0.402713    3.014485
     12          1           0        1.558681   -1.175996    2.254753
 ---------------------------------------------------------------------
                    Distance matrix (angstroms):
                    1          2          3          4          5
     1  C    0.000000
     2  C    1.335385   0.000000
     3  C    1.455685   2.410117   0.000000
     4  H    1.083015   2.108274   2.201215   0.000000
     5  H    2.123891   1.081911   3.416677   2.475856   0.000000
     6  H    2.222293   3.391234   1.080799   2.562170   4.326302
     7  C    2.399981   2.756621   1.341736   3.359224   3.826487
     8  C    2.444736   1.501315   2.778365   3.447869   2.229926
     9  H    3.415899   3.835896   2.146635   4.295948   4.900581
    10  O    2.780984   2.451690   2.369879   3.842448   3.393576
    11  H    3.308256   2.162595   3.750120   4.222722   2.489222
    12  H    2.982677   2.158168   3.206148   3.954327   2.785670
                    6          7          8          9         10
     6  H    0.000000
     7  C    2.100094   0.000000
     8  C    3.850910   2.377495   0.000000
     9  H    2.488648   1.083603   3.306981   0.000000
    10  O    3.335927   1.346351   1.451815   2.019462   0.000000
    11  H    4.829691   3.224915   1.087921   4.045376   2.030423
    12  H    4.192485   2.822852   1.100227   3.650639   2.068856
                   11         12
    11  H    0.000000
    12  H    1.770704   0.000000
 Symmetry turned off by external request.
 Stoichiometry    C5H6O
 Framework group  C1[X(C5H6O)]
 Deg. of freedom    30
 Full point group                 C1      NOp   1
 Rotational constants (GHZ):           5.5624828           5.3715142           2.8391061
 Standard basis: def2TZVP (5D, 7F)
 The following finite field(s) will be applied:
 An electric field of              0.0031 -0.0022 -0.0065
   222 basis functions,   354 primitive gaussians,   252 cartesian basis functions
    22 alpha electrons       22 beta electrons
       nuclear repulsion energy       223.3715614491 Hartrees.
 NAtoms=   12 NActive=   12 NUniq=   12 SFac= 1.00D+00 NAtFMM=   60 NAOKFM=F Big=F
 Integral buffers will be    131072 words long.
 Raffenetti 2 integral format.
 Two-electron integral symmetry is turned off.
 One-electron integrals computed using PRISM.
   1 Symmetry operations used in ECPInt.
 ECPInt:  NShTT=    4095 NPrTT=   12396 LenC2=    4075 LenP2D=   10417.
 LDataN:  DoStor=T MaxTD1= 6 Len=  172
 NBasis=   222 RedAO= T EigKep=  9.51D-05  NBF=   222
 NBsUse=   222 1.00D-06 EigRej= -1.00D+00 NBFU=   222
 The nuclear repulsion energy is now       223.2969572527 hartrees.
 Initial guess from the checkpoint file:  "checkpoint.chk"
 B after Tr=     0.000191   -0.000079    0.000443
         Rot=    1.000000    0.000373    0.000093    0.000340 Ang=   0.06 deg.
 Keep R1 ints in memory in canonical form, NReq=319363885.
 Requested convergence on RMS density matrix=1.00D-08 within 128 cycles.
 Requested convergence on MAX density matrix=1.00D-06.
 Requested convergence on             energy=1.00D-06.
 No special actions if energy rises.
 SCF Done:  E(RB3LYP) =  -269.424857307     A.U. after    8 cycles
            NFock=  8  Conv=0.75D-08     -V/T= 2.0050
   1 Symmetry operations used in ECPInt.
 ECPInt:  NShTT=    4095 NPrTT=   12396 LenC2=    4075 LenP2D=   10417.
 LDataN:  DoStor=T MaxTD1= 7 Len=  274
 Calling FoFJK, ICntrl=      2127 FMM=F ISym2X=0 I1Cent= 0 IOpClX= 0 NMat=1 NMatS=1 NMatT=0.
 -------------------------------------------------------------------
 Center     Atomic                   Forces (Hartrees/Bohr)
 Number     Number              X              Y              Z
 -------------------------------------------------------------------
      1        6          -0.000595120    0.000241232    0.000009503
      2        6           0.000593612    0.000382843    0.000003879
      3        6           0.000043559   -0.000462164    0.000029001
      4        1           0.000003857   -0.000034870    0.000001160
      5        1          -0.000002916   -0.000066277    0.000015922
      6        1           0.000005916   -0.000031503    0.000012494
      7        6           0.000011356   -0.000007547   -0.000152509
      8        6           0.000052748    0.000084950   -0.000049279
      9        1           0.000003832   -0.000005031   -0.000000582
     10        8          -0.000061753   -0.000054145    0.000065003
     11        1          -0.000038497   -0.000040114    0.000046854
     12        1          -0.000016593   -0.000007374    0.000018554
 -------------------------------------------------------------------
 Cartesian Forces:  Max     0.000595120 RMS     0.000181633
 -----------------------------------------------------------------------------------------------
                       Internal Coordinate Forces (Hartree/Bohr or radian)
  Cent   Atom   N1       Length/X         N2         Alpha/Y        N3         Beta/Z          J
 -----------------------------------------------------------------------------------------------
      1  C 
      2  C        1   0.000036(     1)
      3  C        1   0.000025(     2)      2   0.000059(    12)
      4  H        1  -0.000006(     3)      2   0.000005(    13)      3  -0.000060(    22)     0
      5  H        2   0.000007(     4)      1   0.000030(    14)      3   0.000208(    23)     0
      6  H        3  -0.000009(     5)      1   0.000009(    15)      2   0.000167(    24)     0
      7  C        3  -0.000098(     6)      1  -0.000036(    16)      6   0.000224(    25)     0
      8  C        2   0.000003(     7)      1   0.000123(    17)      5   0.000094(    26)     0
      9  H        7   0.000003(     8)      3   0.000001(    18)      1   0.000099(    27)     0
     10  O        7   0.000056(     9)      3  -0.000183(    19)      9   0.000109(    28)     0
     11  H        8   0.000022(    10)      2  -0.000035(    20)      1   0.000081(    29)     0
     12  H        8   0.000007(    11)      2  -0.000016(    21)     11  -0.000046(    30)     0
 -----------------------------------------------------------------------------------------------
 Internal  Forces:  Max     0.000223588 RMS     0.000088628

 GradGradGradGradGradGradGradGradGradGradGradGradGradGradGradGradGradGrad
 Berny optimization.
 Search for a local minimum.
 Step number   5 out of a maximum of   40
 All quantities printed in internal units (Hartrees-Bohrs-Radians)
 Update second derivatives using D2CorN and points    1    2    3    4    5

 DE= -1.00D-06 DEPred=-7.96D-07 R= 1.26D+00
 TightC=F SS=  1.41D+00  RLast= 7.04D-03 DXNew= 1.6818D-01 2.1131D-02
 Trust test= 1.26D+00 RLast= 7.04D-03 DXMaxT set to 1.00D-01
 ITU=  1  1  1  1  0
     Eigenvalues ---    0.02019   0.03863   0.04713   0.06250   0.07005
     Eigenvalues ---    0.12653   0.16194   0.18230   0.19885   0.21746
     Eigenvalues ---    0.27141   0.30875   0.32931   0.33564   0.34625
     Eigenvalues ---    0.35018   0.35550   0.35635   0.35770   0.35932
     Eigenvalues ---    0.38930   0.40903   0.51710   0.53552   0.56019
     Eigenvalues ---    0.56828   0.59084   1.96937   4.30859  22.54572
 RFO step:  Lambda=-3.61466271D-07 EMin= 2.01867868D-02
 Quartic linear search produced a step of  0.21088.
 Variable       Old X    -DE/DX   Delta X   Delta X   Delta X     New X
                                 (Linear)    (Quad)   (Total)
    R2        2.52351   0.00004  -0.00004   0.00003  -0.00001   2.52350
    R3        2.75085   0.00003  -0.00002   0.00011   0.00009   2.75094
    R4        2.04660  -0.00001   0.00000  -0.00002  -0.00002   2.04658
    R5        2.04452   0.00001   0.00001   0.00002   0.00002   2.04454
    R6        2.04241  -0.00001  -0.00001  -0.00002  -0.00003   2.04239
    R7        2.53551  -0.00010  -0.00000  -0.00013  -0.00013   2.53538
    R8        2.83707   0.00000  -0.00002  -0.00007  -0.00009   2.83698
    R9        2.04771   0.00000  -0.00002   0.00003   0.00001   2.04773
   R10        2.54423   0.00006  -0.00005   0.00021   0.00017   2.54440
   R11        2.05587   0.00002   0.00002   0.00006   0.00009   2.05596
   R12        2.07913   0.00001  -0.00002   0.00003   0.00001   2.07913
    A3        2.08329   0.00006   0.00002   0.00010   0.00012   2.08341
    A4        2.11141   0.00000  -0.00001  -0.00003  -0.00005   2.11136
    A5        2.13991   0.00003  -0.00007   0.00007  -0.00000   2.13991
    A6        2.12332   0.00001   0.00001   0.00001   0.00002   2.12334
    A7        2.06144  -0.00004  -0.00002   0.00013   0.00011   2.06155
    A8        2.07569   0.00012   0.00024  -0.00000   0.00024   2.07593
    A9        2.16735   0.00000   0.00001   0.00009   0.00009   2.16744
   A10        2.15858  -0.00018   0.00016  -0.00029  -0.00013   2.15845
   A11        1.95992  -0.00004  -0.00013  -0.00004  -0.00016   1.95976
   A12        1.94035  -0.00002   0.00017  -0.00037  -0.00020   1.94015
    D4       -3.06471  -0.00006  -0.00045  -0.00083  -0.00128  -3.06599
    D5        3.06136   0.00021   0.00040   0.00109   0.00150   3.06286
    D6        3.03557   0.00017   0.00008  -0.00056  -0.00049   3.03509
    D7        3.01206   0.00022   0.00018   0.00071   0.00090   3.01295
    D8        3.12870   0.00009  -0.00012  -0.00062  -0.00074   3.12795
    D9       -2.96347   0.00010  -0.00035  -0.00073  -0.00109  -2.96455
   D10        3.05013   0.00011   0.00035   0.00010   0.00045   3.05058
   D11        2.59634   0.00008  -0.00118  -0.00004  -0.00122   2.59513
   D12        2.11501  -0.00005  -0.00005  -0.00051  -0.00057   2.11444
         Item               Value     Threshold  Converged?
 Maximum Force            0.000224     0.000450     YES
 RMS     Force            0.000089     0.000300     YES
 Maximum Displacement     0.001499     0.001800     YES
 RMS     Displacement     0.000545     0.001200     YES
 Predicted change in Energy=-1.880560D-07
 Optimization completed.
    -- Stationary point found.
                       ----------------------------
                       !   Optimized Parameters   !
                       ! (Angstroms and Degrees)  !
 ----------------------                            ----------------------
 !      Name          Value   Derivative information (Atomic Units)     !
 ------------------------------------------------------------------------
 !       R2          1.3354   -DE/DX =    0.0                           !
 !       R3          1.4557   -DE/DX =    0.0                           !
 !       R4          1.083    -DE/DX =    0.0                           !
 !       R5          1.0819   -DE/DX =    0.0                           !
 !       R6          1.0808   -DE/DX =    0.0                           !
 !       R7          1.3417   -DE/DX =   -0.0001                        !
 !       R8          1.5013   -DE/DX =    0.0                           !
 !       R9          1.0836   -DE/DX =    0.0                           !
 !       R10         1.3464   -DE/DX =    0.0001                        !
 !       R11         1.0879   -DE/DX =    0.0                           !
 !       R12         1.1002   -DE/DX =    0.0                           !
 !       A3        119.3638   -DE/DX =    0.0001                        !
 !       A4        120.9747   -DE/DX =    0.0                           !
 !       A5        122.6078   -DE/DX =    0.0                           !
 !       A6        121.657    -DE/DX =    0.0                           !
 !       A7        118.1121   -DE/DX =    0.0                           !
 !       A8        118.9283   -DE/DX =    0.0001                        !
 !       A9        124.1799   -DE/DX =    0.0                           !
 !       A10       123.6774   -DE/DX =   -0.0002                        !
 !       A11       112.2954   -DE/DX =    0.0                           !
 !       A12       111.1738   -DE/DX =    0.0                           !
 !       D4       -175.5949   -DE/DX =   -0.0001                        !
 !       D5        175.4028   -DE/DX =    0.0002                        !
 !       D6        173.9255   -DE/DX =    0.0002                        !
 !       D7        172.5781   -DE/DX =    0.0002                        !
 !       D8        179.2612   -DE/DX =    0.0001                        !
 !       D9       -169.7942   -DE/DX =    0.0001                        !
 !       D10       174.7595   -DE/DX =    0.0001                        !
 !       D11       148.7593   -DE/DX =    0.0001                        !
 !       D12       121.1812   -DE/DX =    0.0                           !
 ------------------------------------------------------------------------
 GradGradGradGradGradGradGradGradGradGradGradGradGradGradGradGradGradGrad

 ---------------------------------------------------------------------------------------------------
                            Z-MATRIX (ANGSTROMS AND DEGREES)
   CD    Cent   Atom    N1       Length/X        N2       Alpha/Y        N3        Beta/Z          J
 ---------------------------------------------------------------------------------------------------
      1      1  C 
      2      2  C        1   1.335385(     1)
      3      3  C        1   1.455685(     2)      2  119.364(    12)
      4      4  H        1   1.083015(     3)      2  120.975(    13)      3 -175.595(    22)      0
      5      5  H        2   1.081911(     4)      1  122.608(    14)      3  175.403(    23)      0
      6      6  H        3   1.080799(     5)      1  121.657(    15)      2  173.925(    24)      0
      7      7  C        3   1.341736(     6)      1  118.112(    16)      6  172.578(    25)      0
      8      8  C        2   1.501315(     7)      1  118.928(    17)      5  179.261(    26)      0
      9      9  H        7   1.083603(     8)      3  124.180(    18)      1 -169.794(    27)      0
     10     10  O        7   1.346351(     9)      3  123.677(    19)      9  174.759(    28)      0
     11     11  H        8   1.087921(    10)      2  112.295(    20)      1  148.759(    29)      0
     12     12  H        8   1.100227(    11)      2  111.174(    21)     11  121.181(    30)      0
 ---------------------------------------------------------------------------------------------------
                         Z-Matrix orientation:                         
 ---------------------------------------------------------------------
 Center     Atomic      Atomic             Coordinates (Angstroms)
 Number     Number       Type             X           Y           Z
 ---------------------------------------------------------------------
      1          6           0        0.000000    0.000000    0.000000
      2          6           0        0.000000    0.000000    1.335385
      3          6           0        1.268664    0.000000   -0.713800
      4          1           0       -0.925828    0.071321   -0.557384
      5          1           0       -0.908447    0.073047    1.918411
      6          1           0        1.314443   -0.097355   -1.789231
      7          6           0        2.383943    0.276199   -0.020892
      8          6           0        1.308295   -0.122196    2.061593
      9          1           0        3.351759    0.458941   -0.472703
     10          8           0        2.408361    0.458337    1.312858
     11          1           0        1.302021    0.402713    3.014485
     12          1           0        1.558681   -1.175996    2.254753
 ---------------------------------------------------------------------
                    Distance matrix (angstroms):
                    1          2          3          4          5
     1  C    0.000000
     2  C    1.335385   0.000000
     3  C    1.455685   2.410117   0.000000
     4  H    1.083015   2.108274   2.201215   0.000000
     5  H    2.123891   1.081911   3.416677   2.475856   0.000000
     6  H    2.222293   3.391234   1.080799   2.562170   4.326302
     7  C    2.399981   2.756621   1.341736   3.359224   3.826487
     8  C    2.444736   1.501315   2.778365   3.447869   2.229926
     9  H    3.415899   3.835896   2.146635   4.295948   4.900581
    10  O    2.780984   2.451690   2.369879   3.842448   3.393576
    11  H    3.308256   2.162595   3.750120   4.222722   2.489222
    12  H    2.982677   2.158168   3.206148   3.954327   2.785670
                    6          7          8          9         10
     6  H    0.000000
     7  C    2.100094   0.000000
     8  C    3.850910   2.377495   0.000000
     9  H    2.488648   1.083603   3.306981   0.000000
    10  O    3.335927   1.346351   1.451815   2.019462   0.000000
    11  H    4.829691   3.224915   1.087921   4.045376   2.030423
    12  H    4.192485   2.822852   1.100227   3.650639   2.068856
                   11         12
    11  H    0.000000
    12  H    1.770704   0.000000
 Symmetry turned off by external request.
 Stoichiometry    C5H6O
 Framework group  C1[X(C5H6O)]
 Deg. of freedom    30
 Full point group                 C1      NOp   1
 Rotational constants (GHZ):           5.5624828           5.3715142           2.8391061

 **********************************************************************

            Population analysis using the SCF density.

 **********************************************************************

 Alpha  occ. eigenvalues --  -19.15976 -10.23580 -10.22468 -10.17547 -10.17227
 Alpha  occ. eigenvalues --  -10.16881  -1.06927  -0.81257  -0.77378  -0.66436
 Alpha  occ. eigenvalues --   -0.62625  -0.53401  -0.50577  -0.48635  -0.46114
 Alpha  occ. eigenvalues --   -0.43743  -0.40576  -0.37851  -0.35920  -0.32899
 Alpha  occ. eigenvalues --   -0.30149  -0.20903
 Alpha virt. eigenvalues --   -0.03255   0.03749   0.05612   0.07036   0.07919
 Alpha virt. eigenvalues --    0.09247   0.10218   0.11622   0.13933   0.16573
 Alpha virt. eigenvalues --    0.17428   0.19733   0.20681   0.22053   0.23559
 Alpha virt. eigenvalues --    0.24319   0.25583   0.27082   0.28335   0.30549
 Alpha virt. eigenvalues --    0.30954   0.33595   0.34771   0.36492   0.36814
 Alpha virt. eigenvalues --    0.38341   0.39002   0.40458   0.42402   0.43197
 Alpha virt. eigenvalues --    0.43793   0.45702   0.46396   0.49906   0.51566
 Alpha virt. eigenvalues --    0.53226   0.55629   0.58523   0.59965   0.63183
 Alpha virt. eigenvalues --    0.65530   0.66364   0.68919   0.72644   0.73466
 Alpha virt. eigenvalues --    0.77875   0.80864   0.84693   0.86002   0.89045
 Alpha virt. eigenvalues --    0.91398   0.93149   0.95490   0.97670   0.99298
 Alpha virt. eigenvalues --    1.05842   1.07515   1.09109   1.11204   1.12398
 Alpha virt. eigenvalues --    1.15647   1.18504   1.19429   1.24084   1.26435
 Alpha virt. eigenvalues --    1.29771   1.33319   1.36333   1.40339   1.43256
 Alpha virt. eigenvalues --    1.44773   1.45392   1.49111   1.51423   1.52835
 Alpha virt. eigenvalues --    1.56280   1.60435   1.62645   1.65536   1.68023
 Alpha virt. eigenvalues --    1.70391   1.72330   1.74897   1.77264   1.79908
 Alpha virt. eigenvalues --    1.85122   1.87653   1.90665   1.91781   1.97186
 Alpha virt. eigenvalues --    2.00323   2.01203   2.06932   2.10620   2.12393
 Alpha virt. eigenvalues --    2.14602   2.18274   2.21086   2.22715   2.27174
 Alpha virt. eigenvalues --    2.28079   2.36900   2.39336   2.45489   2.45909
 Alpha virt. eigenvalues --    2.50995   2.52470   2.52922   2.57875   2.60156
 Alpha virt. eigenvalues --    2.61357   2.62244   2.65769   2.68097   2.71064
 Alpha virt. eigenvalues --    2.71371   2.74318   2.76236   2.79537   2.80443
 Alpha virt. eigenvalues --    2.82942   2.84124   2.87349   2.88932   2.91464
 Alpha virt. eigenvalues --    2.94269   2.98541   3.02122   3.02724   3.07619
 Alpha virt. eigenvalues --    3.08526   3.11105   3.13803   3.15296   3.16148
 Alpha virt. eigenvalues --    3.19080   3.19956   3.22418   3.23935   3.25953
 Alpha virt. eigenvalues --    3.28393   3.30027   3.33058   3.36227   3.37277
 Alpha virt. eigenvalues --    3.40167   3.42235   3.45039   3.45522   3.48532
 Alpha virt. eigenvalues --    3.54849   3.58362   3.62743   3.68737   3.69497
 Alpha virt. eigenvalues --    3.78872   3.84261   3.86311   3.91113   3.93878
 Alpha virt. eigenvalues --    3.97328   4.02942   4.04643   4.11997   4.18235
 Alpha virt. eigenvalues --    4.20482   4.25242   4.28147   4.36769   4.39968
 Alpha virt. eigenvalues --    4.45559   4.51641   4.59074   4.63357   4.66329
 Alpha virt. eigenvalues --    4.67613   4.80053   4.84968   4.91770   4.94702
 Alpha virt. eigenvalues --    5.12229   5.18431   5.36121   5.45373   5.74935
 Alpha virt. eigenvalues --    5.86048   5.91595   6.23892   6.33876   6.65280
 Alpha virt. eigenvalues --    6.76909   6.87086   7.15103   7.26022  22.07093
 Alpha virt. eigenvalues --   22.31917  22.42872  22.74870  22.93059  44.05461
          Condensed to atoms (all electrons):
               1          2          3          4          5          6
     1  C    4.882708   0.657620   0.336566   0.413195  -0.034874  -0.051363
     2  C    0.657620   4.999684  -0.064798  -0.023806   0.403186   0.005592
     3  C    0.336566  -0.064798   5.180515  -0.058859   0.004353   0.399920
     4  H    0.413195  -0.023806  -0.058859   0.563784  -0.007617  -0.005354
     5  H   -0.034874   0.403186   0.004353  -0.007617   0.509559  -0.000237
     6  H   -0.051363   0.005592   0.399920  -0.005354  -0.000237   0.619910
     7  C   -0.045301  -0.026499   0.558422   0.004010   0.002297  -0.038714
     8  C   -0.042785   0.354981  -0.035846   0.006655  -0.029263  -0.000390
     9  H    0.008475  -0.001881  -0.096604  -0.000374   0.000160  -0.005701
    10  O   -0.015629  -0.025645  -0.070330  -0.001025   0.003163   0.006150
    11  H    0.001700  -0.033633   0.005866  -0.000274  -0.004871   0.000147
    12  H   -0.005903  -0.075841  -0.006844  -0.000280   0.005599  -0.000346
               7          8          9         10         11         12
     1  C   -0.045301  -0.042785   0.008475  -0.015629   0.001700  -0.005903
     2  C   -0.026499   0.354981  -0.001881  -0.025645  -0.033633  -0.075841
     3  C    0.558422  -0.035846  -0.096604  -0.070330   0.005866  -0.006844
     4  H    0.004010   0.006655  -0.000374  -0.001025  -0.000274  -0.000280
     5  H    0.002297  -0.029263   0.000160   0.003163  -0.004871   0.005599
     6  H   -0.038714  -0.000390  -0.005701   0.006150   0.000147  -0.000346
     7  C    4.749903  -0.048039   0.440751   0.346435  -0.003399   0.033356
     8  C   -0.048039   4.687952   0.005939   0.267430   0.422968   0.386335
     9  H    0.440751   0.005939   0.604363  -0.043061  -0.000645   0.001978
    10  O    0.346435   0.267430  -0.043061   7.889287  -0.028534  -0.065123
    11  H   -0.003399   0.422968  -0.000645  -0.028534   0.545332  -0.048937
    12  H    0.033356   0.386335   0.001978  -0.065123  -0.048937   0.697755
 Mulliken charges:
               1
     1  C   -0.104409
     2  C   -0.168960
     3  C   -0.152360
     4  H    0.109946
     5  H    0.148546
     6  H    0.070384
     7  C    0.026778
     8  C    0.024061
     9  H    0.086601
    10  O   -0.263119
    11  H    0.144280
    12  H    0.078251
 Sum of Mulliken charges =  -0.00000
 Mulliken charges with hydrogens summed into heavy atoms:
               1
     1  C    0.005536
     2  C   -0.020414
     3  C   -0.081976
     7  C    0.113379
     8  C    0.246593
    10  O   -0.263119
 Electronic spatial extent (au):  <R**2>=            785.5294
 Charge=              0.0000 electrons
 Dipole moment (field-independent basis, Debye):
    X=             -1.1553    Y=             -0.1526    Z=              1.2320  Tot=              1.6958
 Quadrupole moment (field-independent basis, Debye-Ang):
   XX=            -37.3388   YY=            -38.6478   ZZ=            -30.3297
   XY=             -0.6240   XZ=             -1.2920   YZ=             -0.7409
 Traceless Quadrupole moment (field-independent basis, Debye-Ang):
   XX=             -1.9001   YY=             -3.2091   ZZ=              5.1091
   XY=             -0.6240   XZ=             -1.2920   YZ=             -0.7409
 Octapole moment (field-independent basis, Debye-Ang**2):
  XXX=           -134.2095  YYY=             -9.4529  ZZZ=            -54.7962  XYY=            -45.2904
  XXY=             -3.0950  XXZ=            -30.7354  XZZ=            -42.5703  YZZ=             -3.3107
  YYZ=            -22.7575  XYZ=             -2.8724
 Hexadecapole moment (field-independent basis, Debye-Ang**3):
 XXXX=           -589.7493 YYYY=            -61.4589 ZZZZ=           -335.6868 XXXY=            -22.7281
 XXXZ=           -112.6516 YYYX=            -26.0229 YYYZ=             -3.4874 ZZZX=            -72.1054
 ZZZY=              2.4227 XXYY=           -114.2122 XXZZ=           -167.5391 YYZZ=            -75.0877
 XXYZ=             -8.8242 YYXZ=            -24.9283 ZZXY=            -11.2654
 N-N= 2.232969572527D+02 E-N=-1.074437383961D+03  KE= 2.680782876302D+02
 1\1\GINC-BHC0174\FOpt\RB3LYP\def2TZVP\C5H6O1\DHANAWAY\18-Mar-2022\1\\#
  Opt=(Z-matrix, MaxStep=10) B3LYP/Def2TZVP geom=allcheckpoint guess=re
 ad Field=read NoSymm\\int_zmat_initalOpt\\0,1\C\C,1,R2\C,1,R3,2,A3\H,1
 ,R4,2,A4,3,D4,0\H,2,R5,1,A5,3,D5,0\H,3,R6,1,A6,2,D6,0\C,3,R7,1,A7,6,D7
 ,0\C,2,R8,1,A8,5,D8,0\H,7,R9,3,A9,1,D9,0\O,7,R10,3,A10,9,D10,0\H,8,R11
 ,2,A11,1,D11,0\H,8,R12,2,A12,11,D12,0\\R2=1.33538504\R3=1.45568456\R4=
 1.08301487\R5=1.08191077\R6=1.08079896\R7=1.34173598\R8=1.50131526\R9=
 1.08360271\R10=1.34635075\R11=1.08792095\R12=1.10022676\A3=119.3638108
 6\A4=120.97468049\A5=122.60779231\A6=121.65702188\A7=118.11207055\A8=1
 18.92830517\A9=124.17987017\A10=123.67742644\A11=112.29535346\A12=111.
 17377633\D4=-175.59492103\D5=175.40278554\D6=173.92545562\D7=172.57809
 275\D8=179.26122486\D9=-169.79416942\D10=174.75945503\D11=148.75934631
 \D12=121.18120955\\Version=ES64L-G16RevA.03\HF=-269.4248573\RMSD=7.495
 e-09\RMSF=1.816e-04\Dipole=-0.4545169,-0.0600398,0.4847044\Quadrupole=
 -1.4126467,-2.3858541,3.7985008,-0.4639551,-0.9605959,-0.5508162\PG=C0
 1 [X(C5H6O1)]\\@


 HE WHO LOVES TO READ, AND KNOWS HOW TO REFLECT,
 HAS LAID BY A PERPETUAL FEAST FOR HIS OLD AGE.
 -- UNCLE ESEK, "SCRIBNER'S MONTHLY", SEPT. 1880
 Job cpu time:       0 days  0 hours 18 minutes 46.0 seconds.
 Elapsed time:       0 days  0 hours  1 minutes 59.8 seconds.
 File lengths (MBytes):  RWF=     24 Int=      0 D2E=      0 Chk=     32 Scr=      1
 Normal termination of Gaussian 16 at Fri Mar 18 14:45:19 2022.
