 Entering Gaussian System, Link 0=g16
 Input=ts_initalOpt_zmat_sp.gjf
 Output=ts_initalOpt_zmat_sp.out
 Initial command:
 /software/gaussian/g16-a03/l1.exe "/local_scratch/11171703/Gau-16197.inp" -scrdir="/local_scratch/11171703/"
 Entering Link 1 = /software/gaussian/g16-a03/l1.exe PID=     16198.
  
 Copyright (c) 1988,1990,1992,1993,1995,1998,2003,2009,2016,
            Gaussian, Inc.  All Rights Reserved.
  
 This is part of the Gaussian(R) 16 program.  It is based on
 the Gaussian(R) 09 system (copyright 2009, Gaussian, Inc.),
 the Gaussian(R) 03 system (copyright 2003, Gaussian, Inc.),
 the Gaussian(R) 98 system (copyright 1998, Gaussian, Inc.),
 the Gaussian(R) 94 system (copyright 1995, Gaussian, Inc.),
 the Gaussian 92(TM) system (copyright 1992, Gaussian, Inc.),
 the Gaussian 90(TM) system (copyright 1990, Gaussian, Inc.),
 the Gaussian 88(TM) system (copyright 1988, Gaussian, Inc.),
 the Gaussian 86(TM) system (copyright 1986, Carnegie Mellon
 University), and the Gaussian 82(TM) system (copyright 1983,
 Carnegie Mellon University). Gaussian is a federally registered
 trademark of Gaussian, Inc.
  
 This software contains proprietary and confidential information,
 including trade secrets, belonging to Gaussian, Inc.
  
 This software is provided under written license and may be
 used, copied, transmitted, or stored only in accord with that
 written license.
  
 The following legend is applicable only to US Government
 contracts under FAR:
  
                    RESTRICTED RIGHTS LEGEND
  
 Use, reproduction and disclosure by the US Government is
 subject to restrictions as set forth in subparagraphs (a)
 and (c) of the Commercial Computer Software - Restricted
 Rights clause in FAR 52.227-19.
  
 Gaussian, Inc.
 340 Quinnipiac St., Bldg. 40, Wallingford CT 06492
  
  
 ---------------------------------------------------------------
 Warning -- This program may not be used in any manner that
 competes with the business of Gaussian, Inc. or will provide
 assistance to any competitor of Gaussian, Inc.  The licensee
 of this program is prohibited from giving any competitor of
 Gaussian, Inc. access to this program.  By using this program,
 the user acknowledges that Gaussian, Inc. is engaged in the
 business of creating and licensing software in the field of
 computational chemistry and represents and warrants to the
 licensee that it is not a competitor of Gaussian, Inc. and that
 it will not use this program in any manner prohibited above.
 ---------------------------------------------------------------
  

 Cite this work as:
 Gaussian 16, Revision A.03,
 M. J. Frisch, G. W. Trucks, H. B. Schlegel, G. E. Scuseria, 
 M. A. Robb, J. R. Cheeseman, G. Scalmani, V. Barone, 
 G. A. Petersson, H. Nakatsuji, X. Li, M. Caricato, A. V. Marenich, 
 J. Bloino, B. G. Janesko, R. Gomperts, B. Mennucci, H. P. Hratchian, 
 J. V. Ortiz, A. F. Izmaylov, J. L. Sonnenberg, D. Williams-Young, 
 F. Ding, F. Lipparini, F. Egidi, J. Goings, B. Peng, A. Petrone, 
 T. Henderson, D. Ranasinghe, V. G. Zakrzewski, J. Gao, N. Rega, 
 G. Zheng, W. Liang, M. Hada, M. Ehara, K. Toyota, R. Fukuda, 
 J. Hasegawa, M. Ishida, T. Nakajima, Y. Honda, O. Kitao, H. Nakai, 
 T. Vreven, K. Throssell, J. A. Montgomery, Jr., J. E. Peralta, 
 F. Ogliaro, M. J. Bearpark, J. J. Heyd, E. N. Brothers, K. N. Kudin, 
 V. N. Staroverov, T. A. Keith, R. Kobayashi, J. Normand, 
 K. Raghavachari, A. P. Rendell, J. C. Burant, S. S. Iyengar, 
 J. Tomasi, M. Cossi, J. M. Millam, M. Klene, C. Adamo, R. Cammi, 
 J. W. Ochterski, R. L. Martin, K. Morokuma, O. Farkas, 
 J. B. Foresman, and D. J. Fox, Gaussian, Inc., Wallingford CT, 2016.
 
 ******************************************
 Gaussian 16:  ES64L-G16RevA.03 25-Dec-2016
                10-Jun-2022 
 ******************************************
 %nprocshared=12
 Will use up to   12 processors via shared memory.
 %chk=checkpoint.chk
 %mem=12GB
 --------------------------
 # sp B3LYP/Def2TZVP NoSymm
 --------------------------
 1/38=1,172=1/1;
 2/12=2,15=1,17=6,18=5,40=1/2;
 3/5=44,7=101,11=2,25=1,30=1,74=-5/1,2,3;
 4//1;
 5/5=2,38=5/2;
 6/7=2,8=2,9=2,10=2,28=1/1;
 99/5=1,9=1/99;
 ---------------------------
 ts_initalOpt_zmat_AlignedSp
 ---------------------------
 Symbolic Z-matrix:
 Charge =  0 Multiplicity = 1
 N
 O                    1    R2
 C                    1    R3       2    A3
 C                    1    R4       2    A4       3    D4       0
 H                    3    R5       1    A5       2    D5       0
 H                    3    R6       1    A6       5    D6       0
 H                    3    R7       1    A7       5    D7       0
 H                    4    R8       1    A8       2    D8       0
 H                    4    R9       1    A9       8    D9       0
 H                    4    R10      1    A10      8    D10      0
 C                    1    R11      2    A11      3    D11      0
 C                    11   R12      1    A12      2    D12      0
 H                    11   R13      1    A13      12   D13      0
 H                    11   R14      1    A14      12   D14      0
 H                    12   R15      11   A15      1    D15      0
 H                    12   R16      11   A16      15   D16      0
 H                    12   R17      11   A17      15   D17      0
       Variables:
  R2                    1.34147                  
  R3                    1.46375                  
  R4                    1.46375                  
  R5                    1.09362                  
  R6                    1.08725                  
  R7                    1.09141                  
  R8                    1.08725                  
  R9                    1.09362                  
  R10                   1.09141                  
  R11                   2.05334                  
  R12                   1.40461                  
  R13                   1.08337                  
  R14                   1.08337                  
  R15                   1.36165                  
  R16                   1.08558                  
  R17                   1.08558                  
  A3                  111.97282                  
  A4                  111.97276                  
  A5                  110.44962                  
  A6                  108.34422                  
  A7                  109.68657                  
  A8                  108.34416                  
  A9                  110.44957                  
  A10                 109.68667                  
  A11                 100.44823                  
  A12                  99.25786                  
  A13                  96.40243                  
  A14                  96.40242                  
  A15                  93.84134                  
  A16                 117.82419                  
  A17                 117.82418                  
  D4                  129.04348                  
  D5                   66.37271                  
  D6                 -119.3085                   
  D7                  120.87721                  
  D8                   52.93562                  
  D9                 -119.30842                  
  D10                 119.81425                  
  D11                -115.47831                  
  D12                  -0.00028                  
  D13                 122.41661                  
  D14                -122.41683                  
  D15                   0.00014                  
  D16                -108.40558                  
  D17                 108.40554                  
 
                          Input orientation:                          
 ---------------------------------------------------------------------
 Center     Atomic      Atomic             Coordinates (Angstroms)
 Number     Number       Type             X           Y           Z
 ---------------------------------------------------------------------
      1          7           0        0.000000    0.000000    0.000000
      2          8           0        0.000000    0.000000    1.341475
      3          6           0        1.357427    0.000000   -0.547687
      4          6           0       -0.855058   -1.054271   -0.547686
      5          1           0        1.865429   -0.938799   -0.309801
      6          1           0        1.907487    0.823495   -0.098906
      7          1           0        1.316963    0.129683   -1.630613
      8          1           0       -1.841126   -0.962758   -0.098902
      9          1           0       -0.445916   -2.040179   -0.309800
     10          1           0       -0.930294   -0.941155   -1.630612
     11          6           0       -0.868638    1.822913   -0.372367
     12          6           0       -1.072385    2.250477    0.949982
     13          1           0       -0.054259    2.226640   -0.961842
     14          1           0       -1.695176    1.444723   -0.961854
     15          1           0       -0.535419    1.123612    1.493970
     16          1           0       -2.091012    2.270476    1.324793
     17          1           0       -0.446282    3.054214    1.324800
 ---------------------------------------------------------------------
                    Distance matrix (angstroms):
                    1          2          3          4          5
     1  N    0.000000
     2  O    1.341475   0.000000
     3  C    1.463752   2.326272   0.000000
     4  C    1.463752   2.326272   2.450832   0.000000
     5  H    2.111196   2.662308   1.093618   2.733308   0.000000
     6  H    2.080008   2.528112   1.087251   3.370321   1.775367
     7  H    2.100025   3.253385   1.091413   2.700398   1.785221
     8  H    2.080007   2.528108   3.370320   1.087250   3.712628
     9  H    2.111195   2.662307   2.733307   1.093618   2.560342
    10  H    2.100027   3.253386   2.700401   1.091414   3.092024
    11  C    2.053339   2.648547   2.882554   2.882553   3.886656
    12  C    2.667793   2.523474   3.634783   3.634776   4.515450
    13  H    2.426110   3.204082   2.668766   3.402526   3.759038
    14  H    2.426109   3.204086   3.402520   2.668764   4.334081
    15  H    1.944511   1.253967   3.002289   3.002283   3.642966
    16  H    3.358939   3.086693   4.533540   4.010948   5.350213
    17  H    3.358941   3.086692   4.010960   4.533536   4.894904
                    6          7          8          9         10
     6  H    0.000000
     7  H    1.782195   0.000000
     8  H    4.152445   3.676016   0.000000
     9  H    3.712628   3.092020   1.775366   0.000000
    10  H    3.676019   2.489349   1.782194   1.785222   0.000000
    11  C    2.963189   3.037608   2.963187   3.886655   3.037607
    12  C    3.466421   4.106850   3.466410   4.515444   4.106844
    13  H    2.561625   2.593209   3.756304   4.334085   3.354044
    14  H    3.756299   3.354034   2.561630   3.759037   2.593201
    15  H    2.931743   3.765930   2.931731   3.642962   3.765926
    16  H    4.484269   4.993167   3.541631   4.894894   4.516222
    17  H    3.541649   4.516235   4.484259   5.350211   4.993165
                   11         12         13         14         15
    11  C    0.000000
    12  C    1.404610   0.000000
    13  H    1.083369   2.166153   0.000000
    14  H    1.083369   2.166155   1.817691   0.000000
    15  H    2.020711   1.361646   2.734813   2.734817   0.000000
    16  H    2.138893   1.085581   3.062513   2.463191   1.940049
    17  H    2.138893   1.085581   2.463188   3.062513   1.940048
                   16         17
    16  H    0.000000
    17  H    1.821917   0.000000
 Symmetry turned off by external request.
 Stoichiometry    C4H11NO
 Framework group  C1[X(C4H11NO)]
 Deg. of freedom    45
 Full point group                 C1      NOp   1
 Rotational constants (GHZ):           4.8036059           2.5284776           2.4816006
 Standard basis: def2TZVP (5D, 7F)
   252 basis functions,   394 primitive gaussians,   282 cartesian basis functions
    25 alpha electrons       25 beta electrons
       nuclear repulsion energy       269.1407953772 Hartrees.
 NAtoms=   17 NActive=   17 NUniq=   17 SFac= 1.00D+00 NAtFMM=   60 NAOKFM=F Big=F
 Integral buffers will be    131072 words long.
 Raffenetti 2 integral format.
 Two-electron integral symmetry is turned off.
 One-electron integrals computed using PRISM.
   1 Symmetry operations used in ECPInt.
 ECPInt:  NShTT=    6105 NPrTT=   17556 LenC2=    6059 LenP2D=   14552.
 LDataN:  DoStor=T MaxTD1= 6 Len=  172
 NBasis=   252 RedAO= T EigKep=  1.86D-04  NBF=   252
 NBsUse=   252 1.00D-06 EigRej= -1.00D+00 NBFU=   252
 ExpMin= 9.52D-02 ExpMax= 2.70D+04 ExpMxC= 9.22D+02 IAcc=3 IRadAn=         5 AccDes= 0.00D+00
 Harris functional with IExCor=  402 and IRadAn=       5 diagonalized for initial guess.
 HarFok:  IExCor=  402 AccDes= 0.00D+00 IRadAn=         5 IDoV= 1 UseB2=F ITyADJ=14
 ICtDFT=  3500011 ScaDFX=  1.000000  1.000000  1.000000  1.000000
 FoFCou: FMM=F IPFlag=           0 FMFlag=      100000 FMFlg1=           0
         NFxFlg=           0 DoJE=T BraDBF=F KetDBF=T FulRan=T
         wScrn=  0.000000 ICntrl=       500 IOpCl=  0 I1Cent=   200000004 NGrid=           0
         NMat0=    1 NMatS0=      1 NMatT0=    0 NMatD0=    1 NMtDS0=    0 NMtDT0=    0
 Symmetry not used in FoFCou.
 Requested convergence on RMS density matrix=1.00D-08 within 128 cycles.
 Requested convergence on MAX density matrix=1.00D-06.
 Requested convergence on             energy=1.00D-06.
 No special actions if energy rises.
 Integral accuracy reduced to 1.0D-05 until final iterations.
 Initial convergence to 1.0D-05 achieved.  Increase integral accuracy.
 SCF Done:  E(RB3LYP) =  -289.018861345     A.U. after   14 cycles
            NFock= 14  Conv=0.57D-08     -V/T= 2.0052

 **********************************************************************

            Population analysis using the SCF density.

 **********************************************************************

 Alpha  occ. eigenvalues --  -19.11060 -14.40685 -10.20521 -10.20521 -10.19199
 Alpha  occ. eigenvalues --  -10.13593  -1.07028  -0.83992  -0.75767  -0.73464
 Alpha  occ. eigenvalues --   -0.62191  -0.58313  -0.51019  -0.49329  -0.48483
 Alpha  occ. eigenvalues --   -0.45715  -0.42598  -0.41608  -0.40924  -0.39404
 Alpha  occ. eigenvalues --   -0.38939  -0.35030  -0.26296  -0.26106  -0.23935
 Alpha virt. eigenvalues --    0.00094   0.02359   0.06288   0.06431   0.08440
 Alpha virt. eigenvalues --    0.08483   0.09592   0.09759   0.11476   0.11730
 Alpha virt. eigenvalues --    0.13782   0.15454   0.17192   0.17813   0.18043
 Alpha virt. eigenvalues --    0.19097   0.20412   0.23792   0.23849   0.25115
 Alpha virt. eigenvalues --    0.27811   0.27997   0.30282   0.31898   0.32094
 Alpha virt. eigenvalues --    0.34483   0.36447   0.36958   0.39315   0.40475
 Alpha virt. eigenvalues --    0.40825   0.41972   0.44261   0.45429   0.45479
 Alpha virt. eigenvalues --    0.45935   0.47082   0.47700   0.49561   0.51616
 Alpha virt. eigenvalues --    0.52341   0.53272   0.53542   0.55992   0.56700
 Alpha virt. eigenvalues --    0.61505   0.63272   0.66943   0.67785   0.71828
 Alpha virt. eigenvalues --    0.74949   0.78805   0.81431   0.83617   0.88629
 Alpha virt. eigenvalues --    0.89009   0.89928   0.93534   0.95038   0.95404
 Alpha virt. eigenvalues --    0.97129   1.00002   1.00912   1.02593   1.04497
 Alpha virt. eigenvalues --    1.07414   1.09471   1.11596   1.14516   1.19902
 Alpha virt. eigenvalues --    1.21979   1.31827   1.31872   1.37682   1.39321
 Alpha virt. eigenvalues --    1.41676   1.45340   1.48264   1.50414   1.50494
 Alpha virt. eigenvalues --    1.51128   1.51310   1.54131   1.55860   1.58073
 Alpha virt. eigenvalues --    1.58734   1.59333   1.60789   1.62966   1.65859
 Alpha virt. eigenvalues --    1.68194   1.69914   1.72577   1.74907   1.76994
 Alpha virt. eigenvalues --    1.79474   1.81286   1.83253   1.88062   1.88621
 Alpha virt. eigenvalues --    1.95206   1.97258   1.97275   2.00528   2.00586
 Alpha virt. eigenvalues --    2.06166   2.07217   2.09878   2.11203   2.12446
 Alpha virt. eigenvalues --    2.14009   2.19480   2.24537   2.24823   2.27711
 Alpha virt. eigenvalues --    2.30935   2.33607   2.35916   2.38853   2.40390
 Alpha virt. eigenvalues --    2.43638   2.44535   2.45834   2.46603   2.47432
 Alpha virt. eigenvalues --    2.48050   2.50051   2.53001   2.54402   2.57155
 Alpha virt. eigenvalues --    2.57553   2.60492   2.61881   2.63405   2.65032
 Alpha virt. eigenvalues --    2.68444   2.69514   2.71299   2.75123   2.76902
 Alpha virt. eigenvalues --    2.77707   2.87702   2.88219   2.93951   2.96423
 Alpha virt. eigenvalues --    2.96872   3.00521   3.05616   3.08363   3.08630
 Alpha virt. eigenvalues --    3.09880   3.13370   3.13986   3.15006   3.17079
 Alpha virt. eigenvalues --    3.21495   3.21660   3.23186   3.23718   3.27558
 Alpha virt. eigenvalues --    3.29924   3.30052   3.32429   3.36843   3.38539
 Alpha virt. eigenvalues --    3.39002   3.46535   3.51491   3.53320   3.55208
 Alpha virt. eigenvalues --    3.56574   3.57825   3.60031   3.61217   3.62808
 Alpha virt. eigenvalues --    3.66713   3.69007   3.75519   3.81090   3.91746
 Alpha virt. eigenvalues --    3.98198   4.01964   4.09858   4.09935   4.10334
 Alpha virt. eigenvalues --    4.14689   4.16965   4.20545   4.22495   4.36157
 Alpha virt. eigenvalues --    4.39027   4.39500   4.41686   4.45710   4.49939
 Alpha virt. eigenvalues --    4.55392   4.64068   4.73552   4.79680   4.85889
 Alpha virt. eigenvalues --    4.89948   4.98742   5.05341   5.13082   5.20854
 Alpha virt. eigenvalues --    5.32709   5.33631   5.45439   5.47352   5.54126
 Alpha virt. eigenvalues --    5.57706   5.57708   5.80876   6.14685   6.19457
 Alpha virt. eigenvalues --    6.44145   6.71707   6.90298   6.95499   7.09063
 Alpha virt. eigenvalues --    7.67368  22.18148  22.39518  22.40442  22.55669
 Alpha virt. eigenvalues --   32.33080  44.01192
          Condensed to atoms (all electrons):
               1          2          3          4          5          6
     1  N    6.395010   0.177703   0.265577   0.265578  -0.032034  -0.031672
     2  O    0.177703   8.391795  -0.057839  -0.057840   0.002804   0.005424
     3  C    0.265577  -0.057839   4.938126  -0.071137   0.397955   0.400114
     4  C    0.265578  -0.057840  -0.071137   4.938125  -0.007788   0.011129
     5  H   -0.032034   0.002804   0.397955  -0.007788   0.561010  -0.022066
     6  H   -0.031672   0.005424   0.400114   0.011129  -0.022066   0.531653
     7  H   -0.040085   0.008158   0.393144  -0.001234  -0.032107  -0.023425
     8  H   -0.031671   0.005424   0.011129   0.400114  -0.000585  -0.000420
     9  H   -0.032033   0.002804  -0.007789   0.397954   0.008379  -0.000585
    10  H   -0.040085   0.008158  -0.001233   0.393144  -0.000669  -0.000528
    11  C    0.175263  -0.089294  -0.019823  -0.019819   0.008836  -0.011046
    12  C   -0.079760  -0.131259   0.000375   0.000378  -0.001474   0.002028
    13  H   -0.029296   0.004001  -0.002325   0.004086  -0.000341   0.001273
    14  H   -0.029298   0.004001   0.004086  -0.002324  -0.000536   0.000424
    15  H   -0.056852   0.183271   0.006550   0.006550  -0.000988   0.002014
    16  H    0.005143  -0.001252  -0.000886   0.000974   0.000047   0.000084
    17  H    0.005143  -0.001251   0.000974  -0.000886   0.000049  -0.000770
               7          8          9         10         11         12
     1  N   -0.040085  -0.031671  -0.032033  -0.040085   0.175263  -0.079760
     2  O    0.008158   0.005424   0.002804   0.008158  -0.089294  -0.131259
     3  C    0.393144   0.011129  -0.007789  -0.001233  -0.019823   0.000375
     4  C   -0.001234   0.400114   0.397954   0.393144  -0.019819   0.000378
     5  H   -0.032107  -0.000585   0.008379  -0.000669   0.008836  -0.001474
     6  H   -0.023425  -0.000420  -0.000585  -0.000528  -0.011046   0.002028
     7  H    0.583002  -0.000528  -0.000669  -0.001105  -0.005108   0.003491
     8  H   -0.000528   0.531653  -0.022066  -0.023426  -0.011048   0.002028
     9  H   -0.000669  -0.022066   0.561009  -0.032106   0.008836  -0.001474
    10  H   -0.001105  -0.023426  -0.032106   0.583003  -0.005108   0.003491
    11  C   -0.005108  -0.011048   0.008836  -0.005108   5.050867   0.390594
    12  C    0.003491   0.002028  -0.001474   0.003491   0.390594   5.318262
    13  H    0.002452   0.000424  -0.000536  -0.000331   0.388214  -0.022847
    14  H   -0.000331   0.001272  -0.000341   0.002452   0.388215  -0.022848
    15  H   -0.000553   0.002014  -0.000988  -0.000553  -0.038681   0.243901
    16  H    0.000073  -0.000770   0.000049  -0.000362  -0.026919   0.378244
    17  H   -0.000362   0.000084   0.000047   0.000073  -0.026918   0.378244
              13         14         15         16         17
     1  N   -0.029296  -0.029298  -0.056852   0.005143   0.005143
     2  O    0.004001   0.004001   0.183271  -0.001252  -0.001251
     3  C   -0.002325   0.004086   0.006550  -0.000886   0.000974
     4  C    0.004086  -0.002324   0.006550   0.000974  -0.000886
     5  H   -0.000341  -0.000536  -0.000988   0.000047   0.000049
     6  H    0.001273   0.000424   0.002014   0.000084  -0.000770
     7  H    0.002452  -0.000331  -0.000553   0.000073  -0.000362
     8  H    0.000424   0.001272   0.002014  -0.000770   0.000084
     9  H   -0.000536  -0.000341  -0.000988   0.000049   0.000047
    10  H   -0.000331   0.002452  -0.000553  -0.000362   0.000073
    11  C    0.388214   0.388215  -0.038681  -0.026919  -0.026918
    12  C   -0.022847  -0.022848   0.243901   0.378244   0.378244
    13  H    0.585452  -0.033633   0.003142   0.006070  -0.014795
    14  H   -0.033633   0.585451   0.003142  -0.014795   0.006070
    15  H    0.003142   0.003142   0.363096  -0.007721  -0.007720
    16  H    0.006070  -0.014795  -0.007721   0.588666  -0.033339
    17  H   -0.014795   0.006070  -0.007720  -0.033339   0.588665
 Mulliken charges:
               1
     1  N    0.113368
     2  O   -0.454808
     3  C   -0.256997
     4  C   -0.257003
     5  H    0.119508
     6  H    0.136371
     7  H    0.115186
     8  H    0.136372
     9  H    0.119508
    10  H    0.115185
    11  C   -0.157060
    12  C   -0.461374
    13  H    0.108991
    14  H    0.108991
    15  H    0.300376
    16  H    0.106692
    17  H    0.106693
 Sum of Mulliken charges =  -0.00000
 Mulliken charges with hydrogens summed into heavy atoms:
               1
     1  N    0.113368
     2  O   -0.154432
     3  C    0.114068
     4  C    0.114062
    11  C    0.060922
    12  C   -0.247989
 Electronic spatial extent (au):  <R**2>=            706.2154
 Charge=             -0.0000 electrons
 Dipole moment (field-independent basis, Debye):
    X=              0.2974    Y=             -0.6242    Z=             -2.9285  Tot=              3.0090
 Quadrupole moment (field-independent basis, Debye-Ang):
   XX=            -37.5507   YY=            -40.6415   ZZ=            -42.5976
   XY=              1.9055   XZ=             -0.3931   YZ=              0.8250
 Traceless Quadrupole moment (field-independent basis, Debye-Ang):
   XX=              2.7126   YY=             -0.3783   ZZ=             -2.3343
   XY=              1.9055   XZ=             -0.3931   YZ=              0.8250
 Octapole moment (field-independent basis, Debye-Ang**2):
  XXX=             29.1182  YYY=            -72.5873  ZZZ=            -17.8239  XYY=             16.2482
  XXY=            -22.6173  XXZ=             -4.0808  XZZ=              9.1576  YZZ=            -19.2179
  YYZ=             -3.2261  XYZ=             -0.5269
 Hexadecapole moment (field-independent basis, Debye-Ang**3):
 XXXX=           -267.1707 YYYY=           -512.7668 ZZZZ=           -218.6526 XXXY=             65.9344
 XXXZ=             22.2268 YYYX=             85.4755 YYYZ=            -48.4878 ZZZX=             23.0307
 ZZZY=            -48.3315 XXYY=           -132.7381 XXZZ=            -82.2308 YYZZ=           -117.0372
 XXYZ=            -15.9092 YYXZ=              8.4594 ZZXY=             21.4581
 N-N= 2.691407953772D+02 E-N=-1.211908701913D+03  KE= 2.875296017951D+02
 1\1\GINC-BHC0021\SP\RB3LYP\def2TZVP\C4H11N1O1\DHANAWAY\10-Jun-2022\0\\
 # sp B3LYP/Def2TZVP NoSymm\\ts_initalOpt_zmat_AlignedSp\\0,1\N\O,1,1.3
 4147491\C,1,1.46375226,2,111.97281764\C,1,1.4637524,2,111.9727586,3,12
 9.04348015,0\H,3,1.09361798,1,110.4496159,2,66.37270831,0\H,3,1.087250
 93,1,108.34421539,5,-119.30850278,0\H,3,1.09141309,1,109.68657402,5,12
 0.87721249,0\H,4,1.08725027,1,108.3441555,2,52.93561818,0\H,4,1.093617
 95,1,110.44957424,8,-119.30842111,0\H,4,1.09141357,1,109.6866664,8,119
 .81425197,0\C,1,2.05333931,2,100.44822575,3,-115.4783116,0\C,11,1.4046
 098,1,99.25786083,2,-0.00028338,0\H,11,1.08336948,1,96.40243061,12,122
 .41661073,0\H,11,1.08336876,1,96.40241597,12,-122.41683017,0\H,12,1.36
 164623,11,93.84133909,1,0.00013746,0\H,12,1.08558103,11,117.82418724,1
 5,-108.40557796,0\H,12,1.08558101,11,117.82417729,15,108.40553951,0\\V
 ersion=ES64L-G16RevA.03\HF=-289.0188613\RMSD=5.667e-09\Dipole=0.117018
 8,-0.2455867,-1.1521618\Quadrupole=2.0167473,-0.2812317,-1.7355157,1.4
 166883,-0.2922926,0.6134019\PG=C01 [X(C4H11N1O1)]\\@


 I FIND THAT THE THREE TRULY GREAT TIMES FOR THINKING THOUGHTS
 ARE WHEN I AM STANDING IN THE SHOWER, SITTING ON THE JOHN, OR WALKING.

                                    -- COLIN FLETCHER
 Job cpu time:       0 days  0 hours  7 minutes  4.3 seconds.
 Elapsed time:       0 days  0 hours  0 minutes 35.6 seconds.
 File lengths (MBytes):  RWF=     40 Int=      0 D2E=      0 Chk=     32 Scr=      1
 Normal termination of Gaussian 16 at Fri Jun 10 11:01:40 2022.
