 Entering Gaussian System, Link 0=g16
 Input=ts_zmat_field_N25.gjf
 Output=ts_zmat_field_N25.out
 Initial command:
 /software/gaussian/g16-a03/l1.exe "/local_scratch/11171764/Gau-18474.inp" -scrdir="/local_scratch/11171764/"
 Entering Link 1 = /software/gaussian/g16-a03/l1.exe PID=     18475.
  
 Copyright (c) 1988,1990,1992,1993,1995,1998,2003,2009,2016,
            Gaussian, Inc.  All Rights Reserved.
  
 This is part of the Gaussian(R) 16 program.  It is based on
 the Gaussian(R) 09 system (copyright 2009, Gaussian, Inc.),
 the Gaussian(R) 03 system (copyright 2003, Gaussian, Inc.),
 the Gaussian(R) 98 system (copyright 1998, Gaussian, Inc.),
 the Gaussian(R) 94 system (copyright 1995, Gaussian, Inc.),
 the Gaussian 92(TM) system (copyright 1992, Gaussian, Inc.),
 the Gaussian 90(TM) system (copyright 1990, Gaussian, Inc.),
 the Gaussian 88(TM) system (copyright 1988, Gaussian, Inc.),
 the Gaussian 86(TM) system (copyright 1986, Carnegie Mellon
 University), and the Gaussian 82(TM) system (copyright 1983,
 Carnegie Mellon University). Gaussian is a federally registered
 trademark of Gaussian, Inc.
  
 This software contains proprietary and confidential information,
 including trade secrets, belonging to Gaussian, Inc.
  
 This software is provided under written license and may be
 used, copied, transmitted, or stored only in accord with that
 written license.
  
 The following legend is applicable only to US Government
 contracts under FAR:
  
                    RESTRICTED RIGHTS LEGEND
  
 Use, reproduction and disclosure by the US Government is
 subject to restrictions as set forth in subparagraphs (a)
 and (c) of the Commercial Computer Software - Restricted
 Rights clause in FAR 52.227-19.
  
 Gaussian, Inc.
 340 Quinnipiac St., Bldg. 40, Wallingford CT 06492
  
  
 ---------------------------------------------------------------
 Warning -- This program may not be used in any manner that
 competes with the business of Gaussian, Inc. or will provide
 assistance to any competitor of Gaussian, Inc.  The licensee
 of this program is prohibited from giving any competitor of
 Gaussian, Inc. access to this program.  By using this program,
 the user acknowledges that Gaussian, Inc. is engaged in the
 business of creating and licensing software in the field of
 computational chemistry and represents and warrants to the
 licensee that it is not a competitor of Gaussian, Inc. and that
 it will not use this program in any manner prohibited above.
 ---------------------------------------------------------------
  

 Cite this work as:
 Gaussian 16, Revision A.03,
 M. J. Frisch, G. W. Trucks, H. B. Schlegel, G. E. Scuseria, 
 M. A. Robb, J. R. Cheeseman, G. Scalmani, V. Barone, 
 G. A. Petersson, H. Nakatsuji, X. Li, M. Caricato, A. V. Marenich, 
 J. Bloino, B. G. Janesko, R. Gomperts, B. Mennucci, H. P. Hratchian, 
 J. V. Ortiz, A. F. Izmaylov, J. L. Sonnenberg, D. Williams-Young, 
 F. Ding, F. Lipparini, F. Egidi, J. Goings, B. Peng, A. Petrone, 
 T. Henderson, D. Ranasinghe, V. G. Zakrzewski, J. Gao, N. Rega, 
 G. Zheng, W. Liang, M. Hada, M. Ehara, K. Toyota, R. Fukuda, 
 J. Hasegawa, M. Ishida, T. Nakajima, Y. Honda, O. Kitao, H. Nakai, 
 T. Vreven, K. Throssell, J. A. Montgomery, Jr., J. E. Peralta, 
 F. Ogliaro, M. J. Bearpark, J. J. Heyd, E. N. Brothers, K. N. Kudin, 
 V. N. Staroverov, T. A. Keith, R. Kobayashi, J. Normand, 
 K. Raghavachari, A. P. Rendell, J. C. Burant, S. S. Iyengar, 
 J. Tomasi, M. Cossi, J. M. Millam, M. Klene, C. Adamo, R. Cammi, 
 J. W. Ochterski, R. L. Martin, K. Morokuma, O. Farkas, 
 J. B. Foresman, and D. J. Fox, Gaussian, Inc., Wallingford CT, 2016.
 
 ******************************************
 Gaussian 16:  ES64L-G16RevA.03 25-Dec-2016
                10-Jun-2022 
 ******************************************
 %nprocshared=12
 Will use up to   12 processors via shared memory.
 %chk=checkpoint.chk
 %mem=12GB
 ----------------------------------------------------------------------
 # Opt=(TS, CalcFC, noeigentest, Z-matrix, MaxStep=10) Field=read NoSym
 m B3LYP/Def2TZVP freq=noraman pop=none
 ----------------------------------------------------------------------
 1/5=1,8=10,10=4,11=1,18=40,26=3,38=1/1,3;
 2/12=2,15=1,17=6,18=5,29=3,40=1/2;
 3/5=44,7=101,11=2,14=-6,25=1,30=1,71=2,74=-5,140=1/1,2,3;
 4//1;
 5/5=2,38=5/2;
 8/6=4,10=90,11=11/1;
 11/6=1,8=1,9=11,15=111,16=1,31=1/1,2,10;
 10/6=1,13=1,31=1/2;
 7/10=1,18=20,25=1,30=1/1,2,3,16;
 1/5=1,8=10,10=4,11=1,18=40,26=3/3(2);
 2/15=1,29=3/2;
 99//99;
 2/15=1,29=3/2;
 3/5=44,7=101,11=2,14=-2,25=1,30=1,71=1,74=-5/1,2,3;
 4/5=5,16=3,69=1/1;
 5/5=2,38=5/2;
 7/30=1/1,2,3,16;
 1/5=1,8=10,11=1,18=40,26=3/3(-5);
 2/15=1,29=3/2;
 99/9=1/99;
 -----------------
 ts_zmat_initalOpt
 -----------------
 Symbolic Z-matrix:
 Charge =  0 Multiplicity = 1
 N
 O                    1    R2
 C                    1    R3       2    A3
 C                    1    R4       2    A4       3    D4       0
 H                    3    R5       1    A5       2    D5       0
 H                    3    R6       1    A6       5    D6       0
 H                    3    R7       1    A7       5    D7       0
 H                    4    R8       1    A8       2    D8       0
 H                    4    R9       1    A9       8    D9       0
 H                    4    R10      1    A10      8    D10      0
 C                    1    R11      2    A11      3    D11      0
 C                    11   R12      1    A12      2    D12      0
 H                    11   R13      1    A13      12   D13      0
 H                    11   R14      1    A14      12   D14      0
 H                    12   R15      11   A15      1    D15      0
 H                    12   R16      11   A16      15   D16      0
 H                    12   R17      11   A17      15   D17      0
       Variables:
  R2                    1.34147                  
  R3                    1.46375                  
  R4                    1.46375                  
  R5                    1.09362                  
  R6                    1.08725                  
  R7                    1.09141                  
  R8                    1.08725                  
  R9                    1.09362                  
  R10                   1.09141                  
  R11                   2.05334                  
  R12                   1.40461                  
  R13                   1.08337                  
  R14                   1.08337                  
  R15                   1.36165                  
  R16                   1.08558                  
  R17                   1.08558                  
  A3                  111.97282                  
  A4                  111.97276                  
  A5                  110.44962                  
  A6                  108.34422                  
  A7                  109.68657                  
  A8                  108.34416                  
  A9                  110.44957                  
  A10                 109.68667                  
  A11                 100.44823                  
  A12                  99.25786                  
  A13                  96.40243                  
  A14                  96.40242                  
  A15                  93.84134                  
  A16                 117.82419                  
  A17                 117.82418                  
  D4                  129.04348                  
  D5                   66.37271                  
  D6                 -119.3085                   
  D7                  120.87721                  
  D8                   52.93562                  
  D9                 -119.30842                  
  D10                 119.81425                  
  D11                -115.47831                  
  D12                  -0.00028                  
  D13                 122.41661                  
  D14                -122.41683                  
  D15                   0.00014                  
  D16                -108.40558                  
  D17                 108.40554                  
 

 GradGradGradGradGradGradGradGradGradGradGradGradGradGradGradGradGradGrad
 Berny optimization.
 Initialization pass.
                       ----------------------------
                       !    Initial Parameters    !
                       ! (Angstroms and Degrees)  !
 ----------------------                            ----------------------
 !      Name          Value   Derivative information (Atomic Units)     !
 ------------------------------------------------------------------------
 !       R2          1.3415   calculate D2E/DX2 analytically            !
 !       R3          1.4638   calculate D2E/DX2 analytically            !
 !       R4          1.4638   calculate D2E/DX2 analytically            !
 !       R5          1.0936   calculate D2E/DX2 analytically            !
 !       R6          1.0873   calculate D2E/DX2 analytically            !
 !       R7          1.0914   calculate D2E/DX2 analytically            !
 !       R8          1.0873   calculate D2E/DX2 analytically            !
 !       R9          1.0936   calculate D2E/DX2 analytically            !
 !       R10         1.0914   calculate D2E/DX2 analytically            !
 !       R11         2.0533   calculate D2E/DX2 analytically            !
 !       R12         1.4046   calculate D2E/DX2 analytically            !
 !       R13         1.0834   calculate D2E/DX2 analytically            !
 !       R14         1.0834   calculate D2E/DX2 analytically            !
 !       R15         1.3616   calculate D2E/DX2 analytically            !
 !       R16         1.0856   calculate D2E/DX2 analytically            !
 !       R17         1.0856   calculate D2E/DX2 analytically            !
 !       A3        111.9728   calculate D2E/DX2 analytically            !
 !       A4        111.9728   calculate D2E/DX2 analytically            !
 !       A5        110.4496   calculate D2E/DX2 analytically            !
 !       A6        108.3442   calculate D2E/DX2 analytically            !
 !       A7        109.6866   calculate D2E/DX2 analytically            !
 !       A8        108.3442   calculate D2E/DX2 analytically            !
 !       A9        110.4496   calculate D2E/DX2 analytically            !
 !       A10       109.6867   calculate D2E/DX2 analytically            !
 !       A11       100.4482   calculate D2E/DX2 analytically            !
 !       A12        99.2579   calculate D2E/DX2 analytically            !
 !       A13        96.4024   calculate D2E/DX2 analytically            !
 !       A14        96.4024   calculate D2E/DX2 analytically            !
 !       A15        93.8413   calculate D2E/DX2 analytically            !
 !       A16       117.8242   calculate D2E/DX2 analytically            !
 !       A17       117.8242   calculate D2E/DX2 analytically            !
 !       D4        129.0435   calculate D2E/DX2 analytically            !
 !       D5         66.3727   calculate D2E/DX2 analytically            !
 !       D6       -119.3085   calculate D2E/DX2 analytically            !
 !       D7        120.8772   calculate D2E/DX2 analytically            !
 !       D8         52.9356   calculate D2E/DX2 analytically            !
 !       D9       -119.3084   calculate D2E/DX2 analytically            !
 !       D10       119.8143   calculate D2E/DX2 analytically            !
 !       D11      -115.4783   calculate D2E/DX2 analytically            !
 !       D12        -0.0003   calculate D2E/DX2 analytically            !
 !       D13       122.4166   calculate D2E/DX2 analytically            !
 !       D14      -122.4168   calculate D2E/DX2 analytically            !
 !       D15         0.0001   calculate D2E/DX2 analytically            !
 !       D16      -108.4056   calculate D2E/DX2 analytically            !
 !       D17       108.4055   calculate D2E/DX2 analytically            !
 ------------------------------------------------------------------------
 Trust Radius=1.00D-01 FncErr=1.00D-07 GrdErr=1.00D-06 EigMax=2.50D+02 EigMin=1.00D-04
 Number of steps in this run=     55 maximum allowed number of steps=    100.
 Search for a saddle point of order  1.
 GradGradGradGradGradGradGradGradGradGradGradGradGradGradGradGradGradGrad

 ---------------------------------------------------------------------------------------------------
                            Z-MATRIX (ANGSTROMS AND DEGREES)
   CD    Cent   Atom    N1       Length/X        N2       Alpha/Y        N3        Beta/Z          J
 ---------------------------------------------------------------------------------------------------
      1      1  N 
      2      2  O        1   1.341475(     1)
      3      3  C        1   1.463752(     2)      2  111.973(    17)
      4      4  C        1   1.463752(     3)      2  111.973(    18)      3  129.043(    32)      0
      5      5  H        3   1.093618(     4)      1  110.450(    19)      2   66.373(    33)      0
      6      6  H        3   1.087251(     5)      1  108.344(    20)      5 -119.309(    34)      0
      7      7  H        3   1.091413(     6)      1  109.687(    21)      5  120.877(    35)      0
      8      8  H        4   1.087250(     7)      1  108.344(    22)      2   52.936(    36)      0
      9      9  H        4   1.093618(     8)      1  110.450(    23)      8 -119.308(    37)      0
     10     10  H        4   1.091414(     9)      1  109.687(    24)      8  119.814(    38)      0
     11     11  C        1   2.053339(    10)      2  100.448(    25)      3 -115.478(    39)      0
     12     12  C       11   1.404610(    11)      1   99.258(    26)      2   -0.000(    40)      0
     13     13  H       11   1.083369(    12)      1   96.402(    27)     12  122.417(    41)      0
     14     14  H       11   1.083369(    13)      1   96.402(    28)     12 -122.417(    42)      0
     15     15  H       12   1.361646(    14)     11   93.841(    29)      1    0.000(    43)      0
     16     16  H       12   1.085581(    15)     11  117.824(    30)     15 -108.406(    44)      0
     17     17  H       12   1.085581(    16)     11  117.824(    31)     15  108.406(    45)      0
 ---------------------------------------------------------------------------------------------------
                         Z-Matrix orientation:                         
 ---------------------------------------------------------------------
 Center     Atomic      Atomic             Coordinates (Angstroms)
 Number     Number       Type             X           Y           Z
 ---------------------------------------------------------------------
      1          7           0        0.000000    0.000000    0.000000
      2          8           0        0.000000    0.000000    1.341475
      3          6           0        1.357427    0.000000   -0.547687
      4          6           0       -0.855058   -1.054271   -0.547686
      5          1           0        1.865429   -0.938799   -0.309801
      6          1           0        1.907487    0.823495   -0.098906
      7          1           0        1.316963    0.129683   -1.630613
      8          1           0       -1.841126   -0.962758   -0.098902
      9          1           0       -0.445916   -2.040179   -0.309800
     10          1           0       -0.930294   -0.941155   -1.630612
     11          6           0       -0.868638    1.822913   -0.372367
     12          6           0       -1.072385    2.250477    0.949982
     13          1           0       -0.054259    2.226640   -0.961842
     14          1           0       -1.695176    1.444723   -0.961854
     15          1           0       -0.535419    1.123612    1.493970
     16          1           0       -2.091012    2.270476    1.324793
     17          1           0       -0.446282    3.054214    1.324800
 ---------------------------------------------------------------------
                    Distance matrix (angstroms):
                    1          2          3          4          5
     1  N    0.000000
     2  O    1.341475   0.000000
     3  C    1.463752   2.326272   0.000000
     4  C    1.463752   2.326272   2.450832   0.000000
     5  H    2.111196   2.662308   1.093618   2.733308   0.000000
     6  H    2.080008   2.528112   1.087251   3.370321   1.775367
     7  H    2.100025   3.253385   1.091413   2.700398   1.785221
     8  H    2.080007   2.528108   3.370320   1.087250   3.712628
     9  H    2.111195   2.662307   2.733307   1.093618   2.560342
    10  H    2.100027   3.253386   2.700401   1.091414   3.092024
    11  C    2.053339   2.648547   2.882554   2.882553   3.886656
    12  C    2.667793   2.523474   3.634783   3.634776   4.515450
    13  H    2.426110   3.204082   2.668766   3.402526   3.759038
    14  H    2.426109   3.204086   3.402520   2.668764   4.334081
    15  H    1.944511   1.253967   3.002289   3.002283   3.642966
    16  H    3.358939   3.086693   4.533540   4.010948   5.350213
    17  H    3.358941   3.086692   4.010960   4.533536   4.894904
                    6          7          8          9         10
     6  H    0.000000
     7  H    1.782195   0.000000
     8  H    4.152445   3.676016   0.000000
     9  H    3.712628   3.092020   1.775366   0.000000
    10  H    3.676019   2.489349   1.782194   1.785222   0.000000
    11  C    2.963189   3.037608   2.963187   3.886655   3.037607
    12  C    3.466421   4.106850   3.466410   4.515444   4.106844
    13  H    2.561625   2.593209   3.756304   4.334085   3.354044
    14  H    3.756299   3.354034   2.561630   3.759037   2.593201
    15  H    2.931743   3.765930   2.931731   3.642962   3.765926
    16  H    4.484269   4.993167   3.541631   4.894894   4.516222
    17  H    3.541649   4.516235   4.484259   5.350211   4.993165
                   11         12         13         14         15
    11  C    0.000000
    12  C    1.404610   0.000000
    13  H    1.083369   2.166153   0.000000
    14  H    1.083369   2.166155   1.817691   0.000000
    15  H    2.020711   1.361646   2.734813   2.734817   0.000000
    16  H    2.138893   1.085581   3.062513   2.463191   1.940049
    17  H    2.138893   1.085581   2.463188   3.062513   1.940048
                   16         17
    16  H    0.000000
    17  H    1.821917   0.000000
 Symmetry turned off by external request.
 Stoichiometry    C4H11NO
 Framework group  C1[X(C4H11NO)]
 Deg. of freedom    45
 Full point group                 C1      NOp   1
 Rotational constants (GHZ):           4.8036059           2.5284776           2.4816006
 Standard basis: def2TZVP (5D, 7F)
 The following finite field(s) will be applied:
 An electric field of             -0.0022 -0.0009 -0.0007
   252 basis functions,   394 primitive gaussians,   282 cartesian basis functions
    25 alpha electrons       25 beta electrons
       nuclear repulsion energy       269.1407953772 Hartrees.
 NAtoms=   17 NActive=   17 NUniq=   17 SFac= 1.00D+00 NAtFMM=   60 NAOKFM=F Big=F
 Integral buffers will be    131072 words long.
 Raffenetti 2 integral format.
 Two-electron integral symmetry is turned off.
 One-electron integrals computed using PRISM.
   1 Symmetry operations used in ECPInt.
 ECPInt:  NShTT=    6105 NPrTT=   17556 LenC2=    6059 LenP2D=   14552.
 LDataN:  DoStor=T MaxTD1= 6 Len=  172
 NBasis=   252 RedAO= T EigKep=  1.86D-04  NBF=   252
 NBsUse=   252 1.00D-06 EigRej= -1.00D+00 NBFU=   252
 The nuclear repulsion energy is now       269.1381248202 hartrees.
 ExpMin= 9.52D-02 ExpMax= 2.70D+04 ExpMxC= 9.22D+02 IAcc=3 IRadAn=         5 AccDes= 0.00D+00
 Harris functional with IExCor=  402 and IRadAn=       5 diagonalized for initial guess.
 HarFok:  IExCor=  402 AccDes= 0.00D+00 IRadAn=         5 IDoV= 1 UseB2=F ITyADJ=14
 ICtDFT=  3500011 ScaDFX=  1.000000  1.000000  1.000000  1.000000
 FoFCou: FMM=F IPFlag=           0 FMFlag=      100000 FMFlg1=           0
         NFxFlg=           0 DoJE=T BraDBF=F KetDBF=T FulRan=T
         wScrn=  0.000000 ICntrl=       500 IOpCl=  0 I1Cent=   200000004 NGrid=           0
         NMat0=    1 NMatS0=      1 NMatT0=    0 NMatD0=    1 NMtDS0=    0 NMtDT0=    0
 Symmetry not used in FoFCou.
 Requested convergence on RMS density matrix=1.00D-08 within 128 cycles.
 Requested convergence on MAX density matrix=1.00D-06.
 Requested convergence on             energy=1.00D-06.
 No special actions if energy rises.
 Integral accuracy reduced to 1.0D-05 until final iterations.
 Initial convergence to 1.0D-05 achieved.  Increase integral accuracy.
 SCF Done:  E(RB3LYP) =  -289.018235142     A.U. after   14 cycles
            NFock= 14  Conv=0.59D-08     -V/T= 2.0052
 DoSCS=F DFT=T ScalE2(SS,OS)=  1.000000  1.000000
 Range of M.O.s used for correlation:     1   252
 NBasis=   252 NAE=    25 NBE=    25 NFC=     0 NFV=     0
 NROrb=    252 NOA=    25 NOB=    25 NVA=   227 NVB=   227

 **** Warning!!: The largest alpha MO coefficient is  0.19482267D+02

   1 Symmetry operations used in ECPInt.
 ECPInt:  NShTT=    6105 NPrTT=   17556 LenC2=    6059 LenP2D=   14552.
 LDataN:  DoStor=T MaxTD1= 7 Len=  274
 Symmetrizing basis deriv contribution to polar:
 IMax=3 JMax=2 DiffMx= 0.00D+00
 G2DrvN: will do    18 centers at a time, making    1 passes.
 Calling FoFCou, ICntrl=  3107 FMM=F I1Cent=   0 AccDes= 0.00D+00.
 End of G2Drv F.D. properties file   721 does not exist.
 End of G2Drv F.D. properties file   722 does not exist.
 End of G2Drv F.D. properties file   788 does not exist.
          IDoAtm=11111111111111111
          Differentiating once with respect to nuclear coordinates.
 Keep R1 ints in memory in canonical form, NReq=521444020.
          There are    54 degrees of freedom in the 1st order CPHF.  IDoFFX=6 NUNeed=     0.
     48 vectors produced by pass  0 Test12= 1.05D-14 1.85D-09 XBig12= 1.63D-01 1.12D-01.
 AX will form    48 AO Fock derivatives at one time.
     48 vectors produced by pass  1 Test12= 1.05D-14 1.85D-09 XBig12= 1.30D-02 2.41D-02.
     48 vectors produced by pass  2 Test12= 1.05D-14 1.85D-09 XBig12= 1.92D-04 2.47D-03.
     48 vectors produced by pass  3 Test12= 1.05D-14 1.85D-09 XBig12= 9.18D-07 2.09D-04.
     48 vectors produced by pass  4 Test12= 1.05D-14 1.85D-09 XBig12= 1.82D-09 6.68D-06.
     37 vectors produced by pass  5 Test12= 1.05D-14 1.85D-09 XBig12= 2.15D-12 2.24D-07.
      4 vectors produced by pass  6 Test12= 1.05D-14 1.85D-09 XBig12= 1.99D-15 8.07D-09.
 InvSVY:  IOpt=1 It=  1 EMax= 4.44D-16
 Solved reduced A of dimension   281 with    54 vectors.
 End of Minotr F.D. properties file   721 does not exist.
 End of Minotr F.D. properties file   722 does not exist.
 End of Minotr F.D. properties file   788 does not exist.
   1 Symmetry operations used in ECPInt.
 ECPInt:  NShTT=    6105 NPrTT=   17556 LenC2=    6059 LenP2D=   14552.
 LDataN:  DoStor=T MaxTD1= 8 Len=  415
 Calling FoFJK, ICntrl=    100147 FMM=F ISym2X=0 I1Cent= 0 IOpClX= 0 NMat=1 NMatS=1 NMatT=0.
 -------------------------------------------------------------------
 Center     Atomic                   Forces (Hartrees/Bohr)
 Number     Number              X              Y              Z
 -------------------------------------------------------------------
      1        7          -0.000100157   -0.000258496    0.000229442
      2        8          -0.001086322   -0.000170434   -0.000483260
      3        6           0.000556314    0.000005015   -0.000096153
      4        6           0.000439324    0.000338947    0.000388651
      5        1           0.000011435    0.000197428    0.000059004
      6        1           0.000020513   -0.000215280   -0.000085161
      7        1           0.000025013    0.000101479   -0.000002757
      8        1          -0.000155523    0.000099277    0.000165613
      9        1           0.000096513   -0.000120928   -0.000000977
     10        1           0.000102669    0.000033271   -0.000189375
     11        6           0.000168303    0.000366294    0.000157368
     12        6           0.000008534    0.000189159   -0.000358513
     13        1          -0.000040947   -0.000043333    0.000116110
     14        1          -0.000187781   -0.000120314   -0.000164890
     15        1           0.000333581   -0.000104145    0.000116923
     16        1          -0.000132342   -0.000042681    0.000102516
     17        1          -0.000059127   -0.000255260    0.000045461
 -------------------------------------------------------------------
 Cartesian Forces:  Max     0.001086322 RMS     0.000253304
 -----------------------------------------------------------------------------------------------
                       Internal Coordinate Forces (Hartree/Bohr or radian)
  Cent   Atom   N1       Length/X         N2         Alpha/Y        N3         Beta/Z          J
 -----------------------------------------------------------------------------------------------
      1  N 
      2  O        1  -0.000483(     1)
      3  C        1   0.000616(     2)      2  -0.000311(    17)
      4  C        1  -0.000671(     3)      2  -0.000305(    18)      3  -0.000297(    32)     0
      5  H        3  -0.000151(     4)      1   0.000091(    19)      2   0.000081(    33)     0
      6  H        3  -0.000188(     5)      1   0.000238(    20)      5   0.000142(    34)     0
      7  H        3   0.000014(     6)      1   0.000043(    21)      5   0.000197(    35)     0
      8  H        4   0.000218(     7)      1  -0.000241(    22)      2   0.000032(    36)     0
      9  H        4   0.000145(     8)      1  -0.000043(    23)      8  -0.000097(    37)     0
     10  H        4   0.000184(     9)      1  -0.000165(    24)      8   0.000165(    38)     0
     11  C        1  -0.000050(    10)      2  -0.000754(    25)      3  -0.000164(    39)     0
     12  C       11  -0.000175(    11)      1  -0.000787(    26)      2   0.000001(    40)     0
     13  H       11  -0.000110(    12)      1  -0.000062(    27)     12  -0.000129(    41)     0
     14  H       11   0.000275(    13)      1  -0.000058(    28)     12  -0.000046(    42)     0
     15  H       12   0.000264(    14)     11   0.000032(    29)      1   0.000502(    43)     0
     16  H       12   0.000159(    15)     11   0.000066(    30)     15   0.000109(    44)     0
     17  H       12  -0.000207(    16)     11   0.000163(    31)     15  -0.000265(    45)     0
 -----------------------------------------------------------------------------------------------
 Internal  Forces:  Max     0.000786593 RMS     0.000283715

 GradGradGradGradGradGradGradGradGradGradGradGradGradGradGradGradGradGrad
 Berny optimization.
 Search for a saddle point.
 Step number   1 out of a maximum of   55
 All quantities printed in internal units (Hartrees-Bohrs-Radians)
 Swapping is turned off.
 Second derivative matrix not updated -- analytic derivatives used.
 ITU=  0
     Eigenvalues ---   -0.10287   0.01833   0.01995   0.02594   0.02726
     Eigenvalues ---    0.05742   0.07047   0.07238   0.09106   0.09681
     Eigenvalues ---    0.09687   0.11888   0.14011   0.14204   0.14943
     Eigenvalues ---    0.18450   0.19529   0.21783   0.22185   0.22659
     Eigenvalues ---    0.24207   0.26323   0.28367   0.29022   0.30350
     Eigenvalues ---    0.30662   0.31969   0.33017   0.33597   0.34150
     Eigenvalues ---    0.34337   0.34575   0.34710   0.35040   0.35201
     Eigenvalues ---    0.35471   0.35714   0.35779   0.36552   0.37933
     Eigenvalues ---    0.40276   0.43843   0.59433   1.06766   1.61561
 Eigenvectors required to have negative eigenvalues:
                          R15       R11       A11       R12       D17
   1                    0.76688   0.42748  -0.24876  -0.18253  -0.16232
                          D16       A15       R2        A14       A13
   1                    0.16198  -0.13929   0.12631  -0.10631  -0.10594
 RFO step:  Lambda0=2.515488078D-06 Lambda=-1.31983548D-05.
 Linear search not attempted -- option 19 set.
 Variable       Old X    -DE/DX   Delta X   Delta X   Delta X     New X
                                 (Linear)    (Quad)   (Total)
    R2        2.53502  -0.00048   0.00000  -0.00159  -0.00159   2.53343
    R3        2.76609   0.00062   0.00000   0.00260   0.00260   2.76870
    R4        2.76609  -0.00067   0.00000  -0.00176  -0.00176   2.76433
    R5        2.06664  -0.00015   0.00000  -0.00059  -0.00059   2.06605
    R6        2.05461  -0.00019   0.00000  -0.00056  -0.00056   2.05405
    R7        2.06247   0.00001   0.00000  -0.00002  -0.00002   2.06245
    R8        2.05461   0.00022   0.00000   0.00065   0.00065   2.05525
    R9        2.06664   0.00014   0.00000   0.00039   0.00039   2.06703
   R10        2.06247   0.00018   0.00000   0.00059   0.00059   2.06306
   R11        3.88025  -0.00005   0.00000  -0.00151  -0.00151   3.87874
   R12        2.65433  -0.00017   0.00000   0.00042   0.00042   2.65475
   R13        2.04727  -0.00011   0.00000  -0.00030  -0.00030   2.04697
   R14        2.04727   0.00027   0.00000   0.00073   0.00073   2.04800
   R15        2.57314   0.00026   0.00000  -0.00480  -0.00480   2.56833
   R16        2.05145   0.00016   0.00000   0.00046   0.00046   2.05192
   R17        2.05145  -0.00021   0.00000  -0.00050  -0.00050   2.05095
    A3        1.95429  -0.00031   0.00000  -0.00088  -0.00088   1.95342
    A4        1.95429  -0.00030   0.00000  -0.00071  -0.00071   1.95359
    A5        1.92771   0.00009   0.00000  -0.00047  -0.00047   1.92724
    A6        1.89096   0.00024   0.00000  -0.00001  -0.00001   1.89095
    A7        1.91439   0.00004   0.00000   0.00044   0.00044   1.91483
    A8        1.89096  -0.00024   0.00000  -0.00037  -0.00037   1.89059
    A9        1.92771  -0.00004   0.00000  -0.00032  -0.00032   1.92739
   A10        1.91439  -0.00016   0.00000  -0.00018  -0.00018   1.91422
   A11        1.75315  -0.00075   0.00000   0.00097   0.00097   1.75412
   A12        1.73238  -0.00079   0.00000  -0.00073  -0.00073   1.73165
   A13        1.68254  -0.00006   0.00000   0.00099   0.00099   1.68353
   A14        1.68254  -0.00006   0.00000   0.00004   0.00004   1.68258
   A15        1.63784   0.00003   0.00000   0.00148   0.00148   1.63932
   A16        2.05642   0.00007   0.00000   0.00040   0.00040   2.05682
   A17        2.05642   0.00016   0.00000   0.00018   0.00018   2.05660
    D4        2.25223  -0.00030   0.00000  -0.00291  -0.00291   2.24933
    D5        1.15842   0.00008   0.00000   0.00201   0.00201   1.16043
    D6       -2.08233   0.00014   0.00000   0.00174   0.00174  -2.08058
    D7        2.10971   0.00020   0.00000   0.00173   0.00173   2.11144
    D8        0.92390   0.00003   0.00000   0.00421   0.00421   0.92811
    D9       -2.08232  -0.00010   0.00000  -0.00013  -0.00013  -2.08245
   D10        2.09115   0.00016   0.00000   0.00072   0.00072   2.09188
   D11       -2.01548  -0.00016   0.00000  -0.00185  -0.00185  -2.01733
   D12       -0.00000   0.00000   0.00000  -0.00882  -0.00882  -0.00882
   D13        2.13657  -0.00013   0.00000  -0.00136  -0.00136   2.13522
   D14       -2.13658  -0.00005   0.00000  -0.00101  -0.00101  -2.13759
   D15        0.00000   0.00050   0.00000   0.00802   0.00802   0.00802
   D16       -1.89203   0.00011   0.00000  -0.00289  -0.00289  -1.89492
   D17        1.89203  -0.00027   0.00000  -0.00340  -0.00340   1.88864
         Item               Value     Threshold  Converged?
 Maximum Force            0.000787     0.000450     NO 
 RMS     Force            0.000284     0.000300     YES
 Maximum Displacement     0.008816     0.001800     NO 
 RMS     Displacement     0.002368     0.001200     NO 
 Predicted change in Energy=-5.341402D-06
 GradGradGradGradGradGradGradGradGradGradGradGradGradGradGradGradGradGrad

 ---------------------------------------------------------------------------------------------------
                            Z-MATRIX (ANGSTROMS AND DEGREES)
   CD    Cent   Atom    N1       Length/X        N2       Alpha/Y        N3        Beta/Z          J
 ---------------------------------------------------------------------------------------------------
      1      1  N 
      2      2  O        1   1.340632(     1)
      3      3  C        1   1.465131(     2)      2  111.923(    17)
      4      4  C        1   1.462821(     3)      2  111.932(    18)      3  128.877(    32)      0
      5      5  H        3   1.093307(     4)      1  110.423(    19)      2   66.488(    33)      0
      6      6  H        3   1.086955(     5)      1  108.344(    20)      5 -119.209(    34)      0
      7      7  H        3   1.091402(     6)      1  109.712(    21)      5  120.976(    35)      0
      8      8  H        4   1.087594(     7)      1  108.323(    22)      2   53.177(    36)      0
      9      9  H        4   1.093824(     8)      1  110.431(    23)      8 -119.316(    37)      0
     10     10  H        4   1.091725(     9)      1  109.676(    24)      8  119.856(    38)      0
     11     11  C        1   2.052538(    10)      2  100.504(    25)      3 -115.585(    39)      0
     12     12  C       11   1.404833(    11)      1   99.216(    26)      2   -0.505(    40)      0
     13     13  H       11   1.083212(    12)      1   96.459(    27)     12  122.339(    41)      0
     14     14  H       11   1.083756(    13)      1   96.405(    28)     12 -122.475(    42)      0
     15     15  H       12   1.359104(    14)     11   93.926(    29)      1    0.459(    43)      0
     16     16  H       12   1.085827(    15)     11  117.847(    30)     15 -108.571(    44)      0
     17     17  H       12   1.085314(    16)     11  117.834(    31)     15  108.211(    45)      0
 ---------------------------------------------------------------------------------------------------
                         Z-Matrix orientation:                         
 ---------------------------------------------------------------------
 Center     Atomic      Atomic             Coordinates (Angstroms)
 Number     Number       Type             X           Y           Z
 ---------------------------------------------------------------------
      1          7           0        0.000000    0.000000    0.000000
      2          8           0        0.000000    0.000000    1.340632
      3          6           0        1.359185    0.000000   -0.547014
      4          6           0       -0.851689   -1.056381   -0.546378
      5          1           0        1.865711   -0.939519   -0.310254
      6          1           0        1.909843    0.820937   -0.095007
      7          1           0        1.320334    0.133472   -1.629526
      8          1           0       -1.839225   -0.964489   -0.100074
      9          1           0       -0.441443   -2.041052   -0.304363
     10          1           0       -0.923573   -0.946871   -1.630215
     11          6           0       -0.871520    1.820263   -0.374180
     12          6           0       -1.087253    2.242519    0.948210
     13          1           0       -0.053791    2.229876   -0.954596
     14          1           0       -1.691560    1.440935   -0.972655
     15          1           0       -0.542289    1.123167    1.493399
     16          1           0       -2.108468    2.253189    1.317028
     17          1           0       -0.470154    3.049835    1.329441
 ---------------------------------------------------------------------
                    Distance matrix (angstroms):
                    1          2          3          4          5
     1  N    0.000000
     2  O    1.340632   0.000000
     3  C    1.465131   2.326067   0.000000
     4  C    1.462821   2.324247   2.450287   0.000000
     5  H    2.111831   2.662517   1.093307   2.730142   0.000000
     6  H    2.080977   2.526361   1.086955   3.369587   1.774115
     7  H    2.101536   3.253143   1.091402   2.703081   1.785840
     8  H    2.079183   2.527572   3.370434   1.087594   3.710977
     9  H    2.110309   2.658341   2.732587   1.093824   2.556632
    10  H    2.099322   3.251997   2.698310   1.091725   3.085848
    11  C    2.052538   2.648298   2.884315   2.881861   3.887533
    12  C    2.666479   2.522896   3.640006   3.629329   4.519855
    13  H    2.426210   3.200518   2.671137   3.406284   3.760948
    14  H    2.425640   3.207642   3.400663   2.669024   4.331226
    15  H    1.945719   1.256551   3.006724   3.001142   3.647780
    16  H    3.355154   3.085945   4.536092   4.000629   5.351217
    17  H    3.360052   3.085881   4.021077   4.530483   4.905080
                    6          7          8          9         10
     6  H    0.000000
     7  H    1.781818   0.000000
     8  H    4.152504   3.677983   0.000000
     9  H    3.709900   3.096526   1.776097   0.000000
    10  H    3.675630   2.490434   1.783273   1.785375   0.000000
    11  C    2.968597   3.037332   2.960816   3.885820   3.039303
    12  C    3.477324   4.109657   3.456770   4.509434   4.104544
    13  H    2.565124   2.595893   3.757919   4.337500   3.362247
    14  H    3.758293   3.348499   2.563059   3.759474   2.593031
    15  H    2.937232   3.768491   2.929080   3.640660   3.766617
    16  H    4.493552   4.993202   3.526205   4.883481   4.508947
    17  H    3.558290   4.523993   4.475786   5.346707   4.993878
                   11         12         13         14         15
    11  C    0.000000
    12  C    1.404833   0.000000
    13  H    1.083212   2.165382   0.000000
    14  H    1.083756   2.167360   1.817977   0.000000
    15  H    2.020441   1.359104   2.730589   2.739201   0.000000
    16  H    2.139544   1.085827   3.063090   2.464999   1.939323
    17  H    2.138987   1.085314   2.462218   3.062685   1.934976
                   16         17
    16  H    0.000000
    17  H    1.821777   0.000000
 Symmetry turned off by external request.
 Stoichiometry    C4H11NO
 Framework group  C1[X(C4H11NO)]
 Deg. of freedom    45
 Full point group                 C1      NOp   1
 Rotational constants (GHZ):           4.8062791           2.5288716           2.4818045
 Standard basis: def2TZVP (5D, 7F)
 The following finite field(s) will be applied:
 An electric field of             -0.0022 -0.0009 -0.0007
   252 basis functions,   394 primitive gaussians,   282 cartesian basis functions
    25 alpha electrons       25 beta electrons
       nuclear repulsion energy       269.1662640711 Hartrees.
 NAtoms=   17 NActive=   17 NUniq=   17 SFac= 1.00D+00 NAtFMM=   60 NAOKFM=F Big=F
 Integral buffers will be    131072 words long.
 Raffenetti 2 integral format.
 Two-electron integral symmetry is turned off.
 One-electron integrals computed using PRISM.
   1 Symmetry operations used in ECPInt.
 ECPInt:  NShTT=    6105 NPrTT=   17556 LenC2=    6059 LenP2D=   14551.
 LDataN:  DoStor=T MaxTD1= 6 Len=  172
 NBasis=   252 RedAO= T EigKep=  1.86D-04  NBF=   252
 NBsUse=   252 1.00D-06 EigRej= -1.00D+00 NBFU=   252
 The nuclear repulsion energy is now       269.1642206407 hartrees.
 Initial guess from the checkpoint file:  "checkpoint.chk"
 B after Tr=    -0.000300   -0.002569    0.000355
         Rot=    0.999998   -0.000009    0.001044   -0.001664 Ang=  -0.23 deg.
 Requested convergence on RMS density matrix=1.00D-08 within 128 cycles.
 Requested convergence on MAX density matrix=1.00D-06.
 Requested convergence on             energy=1.00D-06.
 No special actions if energy rises.
 SCF Done:  E(RB3LYP) =  -289.018240496     A.U. after    9 cycles
            NFock=  9  Conv=0.39D-08     -V/T= 2.0052
   1 Symmetry operations used in ECPInt.
 ECPInt:  NShTT=    6105 NPrTT=   17556 LenC2=    6059 LenP2D=   14551.
 LDataN:  DoStor=T MaxTD1= 7 Len=  274
 Calling FoFJK, ICntrl=      2127 FMM=F ISym2X=0 I1Cent= 0 IOpClX= 0 NMat=1 NMatS=1 NMatT=0.
 -------------------------------------------------------------------
 Center     Atomic                   Forces (Hartrees/Bohr)
 Number     Number              X              Y              Z
 -------------------------------------------------------------------
      1        7           0.001039947    0.000016236    0.000003586
      2        8          -0.001044739   -0.000258876    0.000001860
      3        6           0.000002679    0.000248393   -0.000001657
      4        6          -0.000001754   -0.000000680   -0.000001484
      5        1          -0.000000119   -0.000000234    0.000000052
      6        1           0.000000289    0.000000260    0.000000082
      7        1           0.000000244    0.000000023   -0.000000119
      8        1          -0.000000352   -0.000000124    0.000000179
      9        1           0.000000135    0.000000372    0.000000128
     10        1          -0.000000219   -0.000000010   -0.000000399
     11        6           0.000003002   -0.000002585   -0.000002706
     12        6           0.000001038   -0.000005808    0.000004505
     13        1           0.000000454   -0.000000271    0.000000026
     14        1          -0.000000651    0.000000638   -0.000000190
     15        1           0.000000836    0.000001065   -0.000003690
     16        1          -0.000000018   -0.000000055    0.000000365
     17        1          -0.000000769    0.000001656   -0.000000540
 -------------------------------------------------------------------
 Cartesian Forces:  Max     0.001044739 RMS     0.000212459
 -----------------------------------------------------------------------------------------------
                       Internal Coordinate Forces (Hartree/Bohr or radian)
  Cent   Atom   N1       Length/X         N2         Alpha/Y        N3         Beta/Z          J
 -----------------------------------------------------------------------------------------------
      1  N 
      2  O        1   0.000002(     1)
      3  C        1   0.000003(     2)      2   0.000001(    17)
      4  C        1   0.000002(     3)      2   0.000002(    18)      3   0.000003(    32)     0
      5  H        3   0.000000(     4)      1  -0.000000(    19)      2   0.000000(    33)     0
      6  H        3   0.000000(     5)      1   0.000000(    20)      5  -0.000000(    34)     0
      7  H        3   0.000000(     6)      1   0.000001(    21)      5   0.000000(    35)     0
      8  H        4   0.000000(     7)      1   0.000000(    22)      2  -0.000000(    36)     0
      9  H        4  -0.000000(     8)      1  -0.000001(    23)      8   0.000000(    37)     0
     10  H        4   0.000000(     9)      1   0.000000(    24)      8  -0.000000(    38)     0
     11  C        1  -0.000006(    10)      2  -0.000003(    25)      3   0.000000(    39)     0
     12  C       11  -0.000001(    11)      1  -0.000015(    26)      2   0.000001(    40)     0
     13  H       11   0.000000(    12)      1  -0.000001(    27)     12  -0.000000(    41)     0
     14  H       11   0.000000(    13)      1   0.000002(    28)     12   0.000000(    42)     0
     15  H       12  -0.000002(    14)     11  -0.000008(    29)      1   0.000007(    43)     0
     16  H       12   0.000000(    15)     11   0.000001(    30)     15   0.000000(    44)     0
     17  H       12   0.000001(    16)     11  -0.000000(    31)     15   0.000003(    45)     0
 -----------------------------------------------------------------------------------------------
 Internal  Forces:  Max     0.000015499 RMS     0.000003154

 GradGradGradGradGradGradGradGradGradGradGradGradGradGradGradGradGradGrad
 Berny optimization.
 Search for a saddle point.
 Step number   2 out of a maximum of   55
 All quantities printed in internal units (Hartrees-Bohrs-Radians)
 Swapping is turned off.
 Update second derivatives using D2CorN and points    1    2
 ITU=  0  0
     Eigenvalues ---   -0.10290   0.01830   0.01995   0.02592   0.02723
     Eigenvalues ---    0.05741   0.07047   0.07238   0.09107   0.09680
     Eigenvalues ---    0.09690   0.11888   0.14011   0.14204   0.14943
     Eigenvalues ---    0.18450   0.19529   0.21784   0.22185   0.22658
     Eigenvalues ---    0.24208   0.26323   0.28367   0.29022   0.30350
     Eigenvalues ---    0.30662   0.31969   0.33017   0.33597   0.34149
     Eigenvalues ---    0.34336   0.34575   0.34710   0.35039   0.35201
     Eigenvalues ---    0.35470   0.35713   0.35779   0.36552   0.37935
     Eigenvalues ---    0.40276   0.43844   0.59433   1.06767   1.61557
 Eigenvectors required to have negative eigenvalues:
                          R15       R11       A11       R12       D17
   1                    0.76684   0.42756  -0.24875  -0.18254  -0.16232
                          D16       A15       R2        A14       A13
   1                    0.16201  -0.13922   0.12628  -0.10633  -0.10595
 RFO step:  Lambda0=3.328359810D-11 Lambda= 0.00000000D+00.
 Linear search not attempted -- option 19 set.
 Variable       Old X    -DE/DX   Delta X   Delta X   Delta X     New X
                                 (Linear)    (Quad)   (Total)
    R2        2.53343   0.00000   0.00000   0.00001   0.00001   2.53344
    R3        2.76870   0.00000   0.00000   0.00001   0.00001   2.76871
    R4        2.76433   0.00000   0.00000   0.00000   0.00000   2.76434
    R5        2.06605   0.00000   0.00000   0.00000   0.00000   2.06605
    R6        2.05405   0.00000   0.00000   0.00000   0.00000   2.05405
    R7        2.06245   0.00000   0.00000   0.00000   0.00000   2.06245
    R8        2.05525   0.00000   0.00000   0.00000   0.00000   2.05526
    R9        2.06703  -0.00000   0.00000  -0.00000  -0.00000   2.06703
   R10        2.06306   0.00000   0.00000   0.00000   0.00000   2.06306
   R11        3.87874  -0.00001   0.00000  -0.00004  -0.00004   3.87870
   R12        2.65475  -0.00000   0.00000  -0.00000  -0.00000   2.65475
   R13        2.04697   0.00000   0.00000   0.00000   0.00000   2.04697
   R14        2.04800   0.00000   0.00000   0.00000   0.00000   2.04800
   R15        2.56833  -0.00000   0.00000   0.00004   0.00004   2.56837
   R16        2.05192   0.00000   0.00000   0.00000   0.00000   2.05192
   R17        2.05095   0.00000   0.00000   0.00000   0.00000   2.05095
    A3        1.95342   0.00000   0.00000   0.00000   0.00000   1.95342
    A4        1.95359   0.00000   0.00000   0.00000   0.00000   1.95359
    A5        1.92724  -0.00000   0.00000  -0.00000  -0.00000   1.92724
    A6        1.89095   0.00000   0.00000  -0.00000  -0.00000   1.89095
    A7        1.91483   0.00000   0.00000  -0.00000  -0.00000   1.91483
    A8        1.89059   0.00000   0.00000  -0.00000  -0.00000   1.89059
    A9        1.92739  -0.00000   0.00000  -0.00000  -0.00000   1.92739
   A10        1.91422   0.00000   0.00000  -0.00000  -0.00000   1.91421
   A11        1.75412  -0.00000   0.00000  -0.00000  -0.00000   1.75412
   A12        1.73165  -0.00002   0.00000   0.00000   0.00000   1.73165
   A13        1.68353  -0.00000   0.00000   0.00001   0.00001   1.68354
   A14        1.68258   0.00000   0.00000  -0.00000  -0.00000   1.68258
   A15        1.63932  -0.00001   0.00000  -0.00002  -0.00002   1.63930
   A16        2.05682   0.00000   0.00000   0.00000   0.00000   2.05682
   A17        2.05660  -0.00000   0.00000   0.00000   0.00000   2.05660
    D4        2.24933   0.00000   0.00000   0.00001   0.00001   2.24934
    D5        1.16043   0.00000   0.00000   0.00002   0.00002   1.16045
    D6       -2.08058  -0.00000   0.00000  -0.00000  -0.00000  -2.08059
    D7        2.11144   0.00000   0.00000  -0.00000  -0.00000   2.11144
    D8        0.92811  -0.00000   0.00000  -0.00001  -0.00001   0.92810
    D9       -2.08245   0.00000   0.00000   0.00000   0.00000  -2.08245
   D10        2.09188  -0.00000   0.00000  -0.00000  -0.00000   2.09188
   D11       -2.01733   0.00000   0.00000   0.00001   0.00001  -2.01732
   D12       -0.00882   0.00000   0.00000  -0.00007  -0.00007  -0.00889
   D13        2.13522  -0.00000   0.00000  -0.00001  -0.00001   2.13521
   D14       -2.13759   0.00000   0.00000  -0.00000  -0.00000  -2.13759
   D15        0.00802   0.00001   0.00000   0.00007   0.00007   0.00809
   D16       -1.89492   0.00000   0.00000   0.00001   0.00001  -1.89491
   D17        1.88864   0.00000   0.00000   0.00001   0.00001   1.88864
         Item               Value     Threshold  Converged?
 Maximum Force            0.000015     0.000450     YES
 RMS     Force            0.000003     0.000300     YES
 Maximum Displacement     0.000068     0.001800     YES
 RMS     Displacement     0.000017     0.001200     YES
 Predicted change in Energy=-3.954524D-10
 Optimization completed.
    -- Stationary point found.
                       ----------------------------
                       !   Optimized Parameters   !
                       ! (Angstroms and Degrees)  !
 ----------------------                            ----------------------
 !      Name          Value   Derivative information (Atomic Units)     !
 ------------------------------------------------------------------------
 !       R2          1.3406   -DE/DX =    0.0                           !
 !       R3          1.4651   -DE/DX =    0.0                           !
 !       R4          1.4628   -DE/DX =    0.0                           !
 !       R5          1.0933   -DE/DX =    0.0                           !
 !       R6          1.087    -DE/DX =    0.0                           !
 !       R7          1.0914   -DE/DX =    0.0                           !
 !       R8          1.0876   -DE/DX =    0.0                           !
 !       R9          1.0938   -DE/DX =    0.0                           !
 !       R10         1.0917   -DE/DX =    0.0                           !
 !       R11         2.0525   -DE/DX =    0.0                           !
 !       R12         1.4048   -DE/DX =    0.0                           !
 !       R13         1.0832   -DE/DX =    0.0                           !
 !       R14         1.0838   -DE/DX =    0.0                           !
 !       R15         1.3591   -DE/DX =    0.0                           !
 !       R16         1.0858   -DE/DX =    0.0                           !
 !       R17         1.0853   -DE/DX =    0.0                           !
 !       A3        111.9227   -DE/DX =    0.0                           !
 !       A4        111.9323   -DE/DX =    0.0                           !
 !       A5        110.4227   -DE/DX =    0.0                           !
 !       A6        108.3436   -DE/DX =    0.0                           !
 !       A7        109.7119   -DE/DX =    0.0                           !
 !       A8        108.3228   -DE/DX =    0.0                           !
 !       A9        110.4311   -DE/DX =    0.0                           !
 !       A10       109.6765   -DE/DX =    0.0                           !
 !       A11       100.5038   -DE/DX =    0.0                           !
 !       A12        99.2163   -DE/DX =    0.0                           !
 !       A13        96.4592   -DE/DX =    0.0                           !
 !       A14        96.4048   -DE/DX =    0.0                           !
 !       A15        93.9261   -DE/DX =    0.0                           !
 !       A16       117.847    -DE/DX =    0.0                           !
 !       A17       117.8344   -DE/DX =    0.0                           !
 !       D4        128.8769   -DE/DX =    0.0                           !
 !       D5         66.4878   -DE/DX =    0.0                           !
 !       D6       -119.2087   -DE/DX =    0.0                           !
 !       D7        120.9764   -DE/DX =    0.0                           !
 !       D8         53.177    -DE/DX =    0.0                           !
 !       D9       -119.3157   -DE/DX =    0.0                           !
 !       D10       119.8557   -DE/DX =    0.0                           !
 !       D11      -115.5845   -DE/DX =    0.0                           !
 !       D12        -0.5054   -DE/DX =    0.0                           !
 !       D13       122.3389   -DE/DX =    0.0                           !
 !       D14      -122.4748   -DE/DX =    0.0                           !
 !       D15         0.4594   -DE/DX =    0.0                           !
 !       D16      -108.5709   -DE/DX =    0.0                           !
 !       D17       108.211    -DE/DX =    0.0                           !
 ------------------------------------------------------------------------
 GradGradGradGradGradGradGradGradGradGradGradGradGradGradGradGradGradGrad

 ---------------------------------------------------------------------------------------------------
                            Z-MATRIX (ANGSTROMS AND DEGREES)
   CD    Cent   Atom    N1       Length/X        N2       Alpha/Y        N3        Beta/Z          J
 ---------------------------------------------------------------------------------------------------
      1      1  N 
      2      2  O        1   1.340632(     1)
      3      3  C        1   1.465131(     2)      2  111.923(    17)
      4      4  C        1   1.462821(     3)      2  111.932(    18)      3  128.877(    32)      0
      5      5  H        3   1.093307(     4)      1  110.423(    19)      2   66.488(    33)      0
      6      6  H        3   1.086955(     5)      1  108.344(    20)      5 -119.209(    34)      0
      7      7  H        3   1.091402(     6)      1  109.712(    21)      5  120.976(    35)      0
      8      8  H        4   1.087594(     7)      1  108.323(    22)      2   53.177(    36)      0
      9      9  H        4   1.093824(     8)      1  110.431(    23)      8 -119.316(    37)      0
     10     10  H        4   1.091725(     9)      1  109.676(    24)      8  119.856(    38)      0
     11     11  C        1   2.052538(    10)      2  100.504(    25)      3 -115.585(    39)      0
     12     12  C       11   1.404833(    11)      1   99.216(    26)      2   -0.505(    40)      0
     13     13  H       11   1.083212(    12)      1   96.459(    27)     12  122.339(    41)      0
     14     14  H       11   1.083756(    13)      1   96.405(    28)     12 -122.475(    42)      0
     15     15  H       12   1.359104(    14)     11   93.926(    29)      1    0.459(    43)      0
     16     16  H       12   1.085827(    15)     11  117.847(    30)     15 -108.571(    44)      0
     17     17  H       12   1.085314(    16)     11  117.834(    31)     15  108.211(    45)      0
 ---------------------------------------------------------------------------------------------------
                         Z-Matrix orientation:                         
 ---------------------------------------------------------------------
 Center     Atomic      Atomic             Coordinates (Angstroms)
 Number     Number       Type             X           Y           Z
 ---------------------------------------------------------------------
      1          7           0        0.000000    0.000000    0.000000
      2          8           0        0.000000    0.000000    1.340632
      3          6           0        1.359185    0.000000   -0.547014
      4          6           0       -0.851689   -1.056381   -0.546378
      5          1           0        1.865711   -0.939519   -0.310254
      6          1           0        1.909843    0.820937   -0.095007
      7          1           0        1.320334    0.133472   -1.629526
      8          1           0       -1.839225   -0.964489   -0.100074
      9          1           0       -0.441443   -2.041052   -0.304363
     10          1           0       -0.923573   -0.946871   -1.630215
     11          6           0       -0.871520    1.820263   -0.374180
     12          6           0       -1.087253    2.242519    0.948210
     13          1           0       -0.053791    2.229876   -0.954596
     14          1           0       -1.691560    1.440935   -0.972655
     15          1           0       -0.542289    1.123167    1.493399
     16          1           0       -2.108468    2.253189    1.317028
     17          1           0       -0.470154    3.049835    1.329441
 ---------------------------------------------------------------------
                    Distance matrix (angstroms):
                    1          2          3          4          5
     1  N    0.000000
     2  O    1.340632   0.000000
     3  C    1.465131   2.326067   0.000000
     4  C    1.462821   2.324247   2.450287   0.000000
     5  H    2.111831   2.662517   1.093307   2.730142   0.000000
     6  H    2.080977   2.526361   1.086955   3.369587   1.774115
     7  H    2.101536   3.253143   1.091402   2.703081   1.785840
     8  H    2.079183   2.527572   3.370434   1.087594   3.710977
     9  H    2.110309   2.658341   2.732587   1.093824   2.556632
    10  H    2.099322   3.251997   2.698310   1.091725   3.085848
    11  C    2.052538   2.648298   2.884315   2.881861   3.887533
    12  C    2.666479   2.522896   3.640006   3.629329   4.519855
    13  H    2.426210   3.200518   2.671137   3.406284   3.760948
    14  H    2.425640   3.207642   3.400663   2.669024   4.331226
    15  H    1.945719   1.256551   3.006724   3.001142   3.647780
    16  H    3.355154   3.085945   4.536092   4.000629   5.351217
    17  H    3.360052   3.085881   4.021077   4.530483   4.905080
                    6          7          8          9         10
     6  H    0.000000
     7  H    1.781818   0.000000
     8  H    4.152504   3.677983   0.000000
     9  H    3.709900   3.096526   1.776097   0.000000
    10  H    3.675630   2.490434   1.783273   1.785375   0.000000
    11  C    2.968597   3.037332   2.960816   3.885820   3.039303
    12  C    3.477324   4.109657   3.456770   4.509434   4.104544
    13  H    2.565124   2.595893   3.757919   4.337500   3.362247
    14  H    3.758293   3.348499   2.563059   3.759474   2.593031
    15  H    2.937232   3.768491   2.929080   3.640660   3.766617
    16  H    4.493552   4.993202   3.526205   4.883481   4.508947
    17  H    3.558290   4.523993   4.475786   5.346707   4.993878
                   11         12         13         14         15
    11  C    0.000000
    12  C    1.404833   0.000000
    13  H    1.083212   2.165382   0.000000
    14  H    1.083756   2.167360   1.817977   0.000000
    15  H    2.020441   1.359104   2.730589   2.739201   0.000000
    16  H    2.139544   1.085827   3.063090   2.464999   1.939323
    17  H    2.138987   1.085314   2.462218   3.062685   1.934976
                   16         17
    16  H    0.000000
    17  H    1.821777   0.000000
 Symmetry turned off by external request.
 Stoichiometry    C4H11NO
 Framework group  C1[X(C4H11NO)]
 Deg. of freedom    45
 Full point group                 C1      NOp   1
 Rotational constants (GHZ):           4.8062791           2.5288716           2.4818045
 1\1\GINC-BHC0021\FTS\RB3LYP\def2TZVP\C4H11N1O1\DHANAWAY\10-Jun-2022\1\
 \# Opt=(TS, CalcFC, noeigentest, Z-matrix, MaxStep=10) Field=read NoSy
 mm B3LYP/Def2TZVP freq=noraman pop=none\\ts_zmat_initalOpt\\0,1\N\O,1,
 R2\C,1,R3,2,A3\C,1,R4,2,A4,3,D4,0\H,3,R5,1,A5,2,D5,0\H,3,R6,1,A6,5,D6,
 0\H,3,R7,1,A7,5,D7,0\H,4,R8,1,A8,2,D8,0\H,4,R9,1,A9,8,D9,0\H,4,R10,1,A
 10,8,D10,0\C,1,R11,2,A11,3,D11,0\C,11,R12,1,A12,2,D12,0\H,11,R13,1,A13
 ,12,D13,0\H,11,R14,1,A14,12,D14,0\H,12,R15,11,A15,1,D15,0\H,12,R16,11,
 A16,15,D16,0\H,12,R17,11,A17,15,D17,0\\R2=1.34063179\R3=1.46513063\R4=
 1.46282086\R5=1.0933066\R6=1.08695515\R7=1.09140167\R8=1.08759377\R9=1
 .09382379\R10=1.09172462\R11=2.05253818\R12=1.40483312\R13=1.08321164\
 R14=1.08375644\R15=1.35910418\R16=1.08582702\R17=1.08531415\A3=111.922
 66946\A4=111.93225395\A5=110.4227433\A6=108.34358154\A7=109.71191938\A
 8=108.32282191\A9=110.43114216\A10=109.67649447\A11=100.50380795\A12=9
 9.21627431\A13=96.45924232\A14=96.40483813\A15=93.92614401\A16=117.847
 02645\A17=117.8343514\D4=128.87688926\D5=66.4877597\D6=-119.20871728\D
 7=120.97643676\D8=53.17703878\D9=-119.3157242\D10=119.85574671\D11=-11
 5.58454412\D12=-0.50540972\D13=122.33888036\D14=-122.47482642\D15=0.45
 944048\D16=-108.57092802\D17=108.21100801\\Version=ES64L-G16RevA.03\HF
 =-289.0182405\RMSD=3.917e-09\RMSF=2.125e-04\Dipole=0.2538845,-0.186163
 5,-1.103225\PG=C01 [X(C4H11N1O1)]\\@


 I am not a vegetarian because I love animals;
 I am a vegetarian because I hate plants.
                               -- A. Whitney Brown
 Job cpu time:       0 days  1 hours  1 minutes  3.4 seconds.
 Elapsed time:       0 days  0 hours  5 minutes  6.0 seconds.
 File lengths (MBytes):  RWF=     95 Int=      0 D2E=      0 Chk=     32 Scr=      1
 Normal termination of Gaussian 16 at Fri Jun 10 11:12:10 2022.
 Link1:  Proceeding to internal job step number  2.
 --------------------------------------------------------------------
 #N Geom=AllCheck Guess=TCheck SCRF=Check GenChk RB3LYP/def2TZVP Freq
 --------------------------------------------------------------------
 1/5=1,8=10,10=4,11=1,29=7,30=1,38=1,40=1/1,3;
 2/12=2,15=1,40=1/2;
 3/5=44,7=101,11=2,14=-4,25=1,30=1,70=2,71=2,74=-5,116=1,140=1/1,2,3;
 4/5=101/1;
 5/5=2,38=6,98=1/2;
 8/6=4,10=90,11=11/1;
 11/6=1,8=1,9=11,15=111,16=1,31=1/1,2,10;
 10/6=1,31=1/2;
 7/8=1,10=1,25=1,30=1/1,2,3,16;
 1/5=1,8=10,10=4,11=1,30=1/3;
 99//99;
 Structure from the checkpoint file:  "checkpoint.chk"
 -----------------
 ts_zmat_initalOpt
 -----------------
 Charge =  0 Multiplicity = 1
 Z-Matrix found in chk file.
 N
 O,1,R2
 C,1,R3,2,A3
 C,1,R4,2,A4,3,D4,0
 H,3,R5,1,A5,2,D5,0
 H,3,R6,1,A6,5,D6,0
 H,3,R7,1,A7,5,D7,0
 H,4,R8,1,A8,2,D8,0
 H,4,R9,1,A9,8,D9,0
 H,4,R10,1,A10,8,D10,0
 C,1,R11,2,A11,3,D11,0
 C,11,R12,1,A12,2,D12,0
 H,11,R13,1,A13,12,D13,0
 H,11,R14,1,A14,12,D14,0
 H,12,R15,11,A15,1,D15,0
 H,12,R16,11,A16,15,D16,0
 H,12,R17,11,A17,15,D17,0
      Variables:
 R2=1.34063179
 R3=1.46513063
 R4=1.46282086
 R5=1.0933066
 R6=1.08695515
 R7=1.09140167
 R8=1.08759377
 R9=1.09382379
 R10=1.09172462
 R11=2.05253818
 R12=1.40483312
 R13=1.08321164
 R14=1.08375644
 R15=1.35910418
 R16=1.08582702
 R17=1.08531415
 A3=111.92266946
 A4=111.93225395
 A5=110.4227433
 A6=108.34358154
 A7=109.71191938
 A8=108.32282191
 A9=110.43114216
 A10=109.67649447
 A11=100.50380795
 A12=99.21627431
 A13=96.45924232
 A14=96.40483813
 A15=93.92614401
 A16=117.84702645
 A17=117.8343514
 D4=128.87688926
 D5=66.4877597
 D6=-119.20871728
 D7=120.97643676
 D8=53.17703878
 D9=-119.3157242
 D10=119.85574671
 D11=-115.58454412
 D12=-0.50540972
 D13=122.33888036
 D14=-122.47482642
 D15=0.45944048
 D16=-108.57092802
 D17=108.21100801
 Recover connectivity data from disk.

 GradGradGradGradGradGradGradGradGradGradGradGradGradGradGradGradGradGrad
 Berny optimization.
 Initialization pass.
                       ----------------------------
                       !    Initial Parameters    !
                       ! (Angstroms and Degrees)  !
 ----------------------                            ----------------------
 !      Name          Value   Derivative information (Atomic Units)     !
 ------------------------------------------------------------------------
 !       R2          1.3406   calculate D2E/DX2 analytically            !
 !       R3          1.4651   calculate D2E/DX2 analytically            !
 !       R4          1.4628   calculate D2E/DX2 analytically            !
 !       R5          1.0933   calculate D2E/DX2 analytically            !
 !       R6          1.087    calculate D2E/DX2 analytically            !
 !       R7          1.0914   calculate D2E/DX2 analytically            !
 !       R8          1.0876   calculate D2E/DX2 analytically            !
 !       R9          1.0938   calculate D2E/DX2 analytically            !
 !       R10         1.0917   calculate D2E/DX2 analytically            !
 !       R11         2.0525   calculate D2E/DX2 analytically            !
 !       R12         1.4048   calculate D2E/DX2 analytically            !
 !       R13         1.0832   calculate D2E/DX2 analytically            !
 !       R14         1.0838   calculate D2E/DX2 analytically            !
 !       R15         1.3591   calculate D2E/DX2 analytically            !
 !       R16         1.0858   calculate D2E/DX2 analytically            !
 !       R17         1.0853   calculate D2E/DX2 analytically            !
 !       A3        111.9227   calculate D2E/DX2 analytically            !
 !       A4        111.9323   calculate D2E/DX2 analytically            !
 !       A5        110.4227   calculate D2E/DX2 analytically            !
 !       A6        108.3436   calculate D2E/DX2 analytically            !
 !       A7        109.7119   calculate D2E/DX2 analytically            !
 !       A8        108.3228   calculate D2E/DX2 analytically            !
 !       A9        110.4311   calculate D2E/DX2 analytically            !
 !       A10       109.6765   calculate D2E/DX2 analytically            !
 !       A11       100.5038   calculate D2E/DX2 analytically            !
 !       A12        99.2163   calculate D2E/DX2 analytically            !
 !       A13        96.4592   calculate D2E/DX2 analytically            !
 !       A14        96.4048   calculate D2E/DX2 analytically            !
 !       A15        93.9261   calculate D2E/DX2 analytically            !
 !       A16       117.847    calculate D2E/DX2 analytically            !
 !       A17       117.8344   calculate D2E/DX2 analytically            !
 !       D4        128.8769   calculate D2E/DX2 analytically            !
 !       D5         66.4878   calculate D2E/DX2 analytically            !
 !       D6       -119.2087   calculate D2E/DX2 analytically            !
 !       D7        120.9764   calculate D2E/DX2 analytically            !
 !       D8         53.177    calculate D2E/DX2 analytically            !
 !       D9       -119.3157   calculate D2E/DX2 analytically            !
 !       D10       119.8557   calculate D2E/DX2 analytically            !
 !       D11      -115.5845   calculate D2E/DX2 analytically            !
 !       D12        -0.5054   calculate D2E/DX2 analytically            !
 !       D13       122.3389   calculate D2E/DX2 analytically            !
 !       D14      -122.4748   calculate D2E/DX2 analytically            !
 !       D15         0.4594   calculate D2E/DX2 analytically            !
 !       D16      -108.5709   calculate D2E/DX2 analytically            !
 !       D17       108.211    calculate D2E/DX2 analytically            !
 ------------------------------------------------------------------------
 Trust Radius=1.00D-01 FncErr=1.00D-07 GrdErr=1.00D-07 EigMax=2.50D+02 EigMin=1.00D-04
 Number of steps in this run=      2 maximum allowed number of steps=      2.
 Search for a saddle point of order  1.
 GradGradGradGradGradGradGradGradGradGradGradGradGradGradGradGradGradGrad

                          Input orientation:                          
 ---------------------------------------------------------------------
 Center     Atomic      Atomic             Coordinates (Angstroms)
 Number     Number       Type             X           Y           Z
 ---------------------------------------------------------------------
      1          7           0        0.000000    0.000000    0.000000
      2          8           0        0.000000    0.000000    1.340632
      3          6           0        1.359185    0.000000   -0.547014
      4          6           0       -0.851689   -1.056381   -0.546378
      5          1           0        1.865711   -0.939519   -0.310254
      6          1           0        1.909843    0.820937   -0.095007
      7          1           0        1.320334    0.133472   -1.629526
      8          1           0       -1.839225   -0.964489   -0.100074
      9          1           0       -0.441443   -2.041052   -0.304363
     10          1           0       -0.923573   -0.946871   -1.630215
     11          6           0       -0.871520    1.820263   -0.374180
     12          6           0       -1.087253    2.242519    0.948210
     13          1           0       -0.053791    2.229876   -0.954596
     14          1           0       -1.691560    1.440935   -0.972655
     15          1           0       -0.542289    1.123167    1.493399
     16          1           0       -2.108468    2.253189    1.317028
     17          1           0       -0.470154    3.049835    1.329441
 ---------------------------------------------------------------------
                    Distance matrix (angstroms):
                    1          2          3          4          5
     1  N    0.000000
     2  O    1.340632   0.000000
     3  C    1.465131   2.326067   0.000000
     4  C    1.462821   2.324247   2.450287   0.000000
     5  H    2.111831   2.662517   1.093307   2.730142   0.000000
     6  H    2.080977   2.526361   1.086955   3.369587   1.774115
     7  H    2.101536   3.253143   1.091402   2.703081   1.785840
     8  H    2.079183   2.527572   3.370434   1.087594   3.710977
     9  H    2.110309   2.658341   2.732587   1.093824   2.556632
    10  H    2.099322   3.251997   2.698310   1.091725   3.085848
    11  C    2.052538   2.648298   2.884315   2.881861   3.887533
    12  C    2.666479   2.522896   3.640006   3.629329   4.519855
    13  H    2.426210   3.200518   2.671137   3.406284   3.760948
    14  H    2.425640   3.207642   3.400663   2.669024   4.331226
    15  H    1.945719   1.256551   3.006724   3.001142   3.647780
    16  H    3.355154   3.085945   4.536092   4.000629   5.351217
    17  H    3.360052   3.085881   4.021077   4.530483   4.905080
                    6          7          8          9         10
     6  H    0.000000
     7  H    1.781818   0.000000
     8  H    4.152504   3.677983   0.000000
     9  H    3.709900   3.096526   1.776097   0.000000
    10  H    3.675630   2.490434   1.783273   1.785375   0.000000
    11  C    2.968597   3.037332   2.960816   3.885820   3.039303
    12  C    3.477324   4.109657   3.456770   4.509434   4.104544
    13  H    2.565124   2.595893   3.757919   4.337500   3.362247
    14  H    3.758293   3.348499   2.563059   3.759474   2.593031
    15  H    2.937232   3.768491   2.929080   3.640660   3.766617
    16  H    4.493552   4.993202   3.526205   4.883481   4.508947
    17  H    3.558290   4.523993   4.475786   5.346707   4.993878
                   11         12         13         14         15
    11  C    0.000000
    12  C    1.404833   0.000000
    13  H    1.083212   2.165382   0.000000
    14  H    1.083756   2.167360   1.817977   0.000000
    15  H    2.020441   1.359104   2.730589   2.739201   0.000000
    16  H    2.139544   1.085827   3.063090   2.464999   1.939323
    17  H    2.138987   1.085314   2.462218   3.062685   1.934976
                   16         17
    16  H    0.000000
    17  H    1.821777   0.000000
 Symmetry turned off by external request.
 Stoichiometry    C4H11NO
 Framework group  C1[X(C4H11NO)]
 Deg. of freedom    45
 Full point group                 C1      NOp   1
 Rotational constants (GHZ):           4.8062791           2.5288716           2.4818045
 Standard basis: def2TZVP (5D, 7F)
 The following finite field(s) will be applied:
 An electric field of             -0.0022 -0.0009 -0.0007
   252 basis functions,   394 primitive gaussians,   282 cartesian basis functions
    25 alpha electrons       25 beta electrons
       nuclear repulsion energy       269.1662640711 Hartrees.
 NAtoms=   17 NActive=   17 NUniq=   17 SFac= 1.00D+00 NAtFMM=   60 NAOKFM=F Big=F
 Integral buffers will be    131072 words long.
 Raffenetti 2 integral format.
 Two-electron integral symmetry is turned off.
 One-electron integrals computed using PRISM.
   1 Symmetry operations used in ECPInt.
 ECPInt:  NShTT=    6105 NPrTT=   17556 LenC2=    6059 LenP2D=   14551.
 LDataN:  DoStor=T MaxTD1= 6 Len=  172
 NBasis=   252 RedAO= T EigKep=  1.86D-04  NBF=   252
 NBsUse=   252 1.00D-06 EigRej= -1.00D+00 NBFU=   252
 The nuclear repulsion energy is now       269.1642206407 hartrees.
 Initial guess from the checkpoint file:  "checkpoint.chk"
 B after Tr=     0.000000    0.000000    0.000000
         Rot=    1.000000    0.000000    0.000000    0.000000 Ang=   0.00 deg.
 Requested convergence on RMS density matrix=1.00D-08 within 128 cycles.
 Requested convergence on MAX density matrix=1.00D-06.
 Requested convergence on             energy=1.00D-06.
 No special actions if energy rises.
 SCF Done:  E(RB3LYP) =  -289.018240496     A.U. after    1 cycles
            NFock=  1  Conv=0.26D-08     -V/T= 2.0052
 DoSCS=F DFT=T ScalE2(SS,OS)=  1.000000  1.000000
 Range of M.O.s used for correlation:     1   252
 NBasis=   252 NAE=    25 NBE=    25 NFC=     0 NFV=     0
 NROrb=    252 NOA=    25 NOB=    25 NVA=   227 NVB=   227

 **** Warning!!: The largest alpha MO coefficient is  0.19499702D+02

   1 Symmetry operations used in ECPInt.
 ECPInt:  NShTT=    6105 NPrTT=   17556 LenC2=    6059 LenP2D=   14551.
 LDataN:  DoStor=T MaxTD1= 7 Len=  274
 Symmetrizing basis deriv contribution to polar:
 IMax=3 JMax=2 DiffMx= 0.00D+00
 G2DrvN: will do    18 centers at a time, making    1 passes.
 Calling FoFCou, ICntrl=  3107 FMM=F I1Cent=   0 AccDes= 0.00D+00.
 End of G2Drv F.D. properties file   721 does not exist.
 End of G2Drv F.D. properties file   722 does not exist.
 End of G2Drv F.D. properties file   788 does not exist.
          IDoAtm=11111111111111111
          Differentiating once with respect to electric field.
                with respect to dipole field.
          Differentiating once with respect to nuclear coordinates.
 Keep R1 ints in memory in canonical form, NReq=521444020.
          There are    54 degrees of freedom in the 1st order CPHF.  IDoFFX=6 NUNeed=     3.
     51 vectors produced by pass  0 Test12= 1.05D-14 1.85D-09 XBig12= 6.47D+01 5.08D+00.
 AX will form    51 AO Fock derivatives at one time.
     51 vectors produced by pass  1 Test12= 1.05D-14 1.85D-09 XBig12= 1.36D+01 7.76D-01.
     51 vectors produced by pass  2 Test12= 1.05D-14 1.85D-09 XBig12= 1.60D-01 6.61D-02.
     51 vectors produced by pass  3 Test12= 1.05D-14 1.85D-09 XBig12= 3.84D-04 3.07D-03.
     51 vectors produced by pass  4 Test12= 1.05D-14 1.85D-09 XBig12= 7.21D-07 1.10D-04.
     31 vectors produced by pass  5 Test12= 1.05D-14 1.85D-09 XBig12= 7.18D-10 3.75D-06.
      6 vectors produced by pass  6 Test12= 1.05D-14 1.85D-09 XBig12= 7.91D-13 1.26D-07.
      1 vectors produced by pass  7 Test12= 1.05D-14 1.85D-09 XBig12= 7.20D-16 4.42D-09.
 InvSVY:  IOpt=1 It=  1 EMax= 2.66D-15
 Solved reduced A of dimension   293 with    54 vectors.
 Isotropic polarizability for W=    0.000000       71.19 Bohr**3.
 End of Minotr F.D. properties file   721 does not exist.
 End of Minotr F.D. properties file   722 does not exist.
 End of Minotr F.D. properties file   788 does not exist.
   1 Symmetry operations used in ECPInt.
 ECPInt:  NShTT=    6105 NPrTT=   17556 LenC2=    6059 LenP2D=   14551.
 LDataN:  DoStor=T MaxTD1= 8 Len=  415
 Calling FoFJK, ICntrl=    100127 FMM=F ISym2X=0 I1Cent= 0 IOpClX= 0 NMat=1 NMatS=1 NMatT=0.
 Full mass-weighted force constant matrix:
 Low frequencies ----1123.5287   -8.7084   -7.7583   -0.0008    0.0003    0.0004
 Low frequencies ---    9.1336  116.9887  223.4981
 ******    1 imaginary frequencies (negative Signs) ****** 
 Diagonal vibrational polarizability:
        6.2785844      20.2534297       6.4485501
 Harmonic frequencies (cm**-1), IR intensities (KM/Mole), Raman scattering
 activities (A**4/AMU), depolarization ratios for plane and unpolarized
 incident light, reduced masses (AMU), force constants (mDyne/A),
 and normal coordinates:
                      1                      2                      3
                      A                      A                      A
 Frequencies --  -1123.5279               116.9879               223.4979
 Red. masses --      1.2782                 2.2582                 1.1546
 Frc consts  --      0.9507                 0.0182                 0.0340
 IR Inten    --    278.8009                 0.0586                 0.1742
  Atom  AN      X      Y      Z        X      Y      Z        X      Y      Z
     1   7    -0.02   0.04   0.05    -0.05  -0.02  -0.00    -0.02  -0.01  -0.00
     2   8     0.02  -0.04  -0.02    -0.09  -0.05  -0.00    -0.02  -0.01  -0.00
     3   6    -0.00   0.01  -0.01    -0.02   0.10   0.07    -0.03   0.05  -0.03
     4   6    -0.01   0.01  -0.01     0.07  -0.08  -0.07     0.02  -0.06   0.03
     5   1    -0.06  -0.00   0.02     0.07   0.17   0.14    -0.10  -0.07  -0.40
     6   1     0.01  -0.00   0.01    -0.13   0.19   0.06     0.04  -0.15   0.25
     7   1     0.00   0.00  -0.01     0.02   0.05   0.06    -0.05   0.45   0.01
     8   1    -0.00  -0.01   0.01     0.06  -0.22  -0.06    -0.10   0.13  -0.27
     9   1     0.04   0.04   0.02     0.18  -0.06  -0.14    -0.12  -0.03   0.41
    10   1    -0.01  -0.00  -0.01     0.06  -0.02  -0.06     0.33  -0.33  -0.01
    11   6     0.03  -0.06  -0.05    -0.11  -0.05  -0.00     0.03   0.02   0.00
    12   6     0.03  -0.06   0.06     0.20   0.10   0.00     0.02   0.01   0.00
    13   1    -0.03   0.05  -0.04    -0.23  -0.15  -0.25     0.06  -0.01   0.03
    14   1    -0.02   0.05  -0.04    -0.27  -0.09   0.24     0.03   0.05  -0.03
    15   1    -0.42   0.85  -0.02     0.07   0.04  -0.00    -0.02  -0.01  -0.00
    16   1    -0.04   0.13  -0.09     0.27   0.28   0.19     0.01   0.05  -0.02
    17   1    -0.08   0.11  -0.10     0.39   0.04  -0.18     0.04  -0.02   0.02
                      4                      5                      6
                      A                      A                      A
 Frequencies --    236.0562               245.6007               276.5959
 Red. masses --      1.9206                 1.1063                 2.6442
 Frc consts  --      0.0631                 0.0393                 0.1192
 IR Inten    --      0.0269                 1.8687                19.9101
  Atom  AN      X      Y      Z        X      Y      Z        X      Y      Z
     1   7    -0.06  -0.03   0.00     0.00  -0.00   0.03     0.01  -0.01  -0.03
     2   8    -0.05  -0.02   0.00    -0.00   0.01   0.03    -0.02   0.04  -0.05
     3   6    -0.08   0.10  -0.05    -0.01   0.02  -0.00     0.03  -0.17   0.00
     4   6     0.03  -0.13   0.05    -0.00   0.02  -0.00     0.11  -0.13   0.00
     5   1     0.09   0.23   0.07    -0.12  -0.14  -0.38    -0.17  -0.31  -0.09
     6   1    -0.19   0.27  -0.22     0.10  -0.22   0.30     0.18  -0.34   0.13
     7   1    -0.17  -0.07  -0.07    -0.02   0.43   0.05     0.10  -0.04   0.02
     8   1     0.10  -0.34   0.25     0.10  -0.20   0.28     0.15  -0.34   0.12
     9   1     0.25  -0.08  -0.10     0.17   0.01  -0.36     0.34  -0.06  -0.09
    10   1    -0.19  -0.06   0.07    -0.30   0.28   0.04    -0.02  -0.10   0.01
    11   6     0.16   0.08   0.00     0.02  -0.05  -0.01    -0.12   0.24  -0.01
    12   6    -0.00   0.00  -0.00    -0.00   0.01  -0.04    -0.03   0.06   0.08
    13   1     0.32   0.02   0.19     0.02  -0.07  -0.02    -0.11   0.25   0.01
    14   1     0.22   0.24  -0.18     0.03  -0.08  -0.01    -0.13   0.24   0.01
    15   1    -0.08  -0.04  -0.00     0.02  -0.03   0.01    -0.11   0.23  -0.06
    16   1    -0.06   0.04  -0.15    -0.00   0.01  -0.05    -0.03   0.06   0.10
    17   1    -0.00  -0.07   0.15    -0.00   0.01  -0.06    -0.04   0.06   0.11
                      7                      8                      9
                      A                      A                      A
 Frequencies --    380.5322               426.5309               495.3653
 Red. masses --      2.7756                 2.9583                 3.2918
 Frc consts  --      0.2368                 0.3171                 0.4759
 IR Inten    --     30.4195                24.4742                 8.9143
  Atom  AN      X      Y      Z        X      Y      Z        X      Y      Z
     1   7     0.06  -0.12  -0.02     0.08  -0.17   0.19    -0.13  -0.06   0.00
     2   8     0.04  -0.09  -0.05     0.02  -0.04   0.16     0.25   0.12   0.00
     3   6     0.10   0.11   0.09    -0.05  -0.01  -0.10    -0.13   0.01   0.15
     4   6    -0.15  -0.01   0.09     0.04   0.03  -0.10    -0.07  -0.11  -0.15
     5   1     0.26   0.18   0.04     0.18   0.07  -0.26    -0.12   0.03   0.22
     6   1    -0.12   0.15   0.29    -0.02   0.09  -0.32    -0.27  -0.00   0.35
[...]
   zz         0.706550D+02      0.104700D+02      0.116494D+02

 ----------------------------------------------------------------------
 1\1\GINC-BHC0021\Freq\RB3LYP\def2TZVP\C4H11N1O1\DHANAWAY\10-Jun-2022\1
 \\#N Geom=AllCheck Guess=TCheck SCRF=Check GenChk RB3LYP/def2TZVP Freq
 \\ts_zmat_initalOpt\\0,1\N\O,1,R2\C,1,R3,2,A3\C,1,R4,2,A4,3,D4,0\H,3,R
 5,1,A5,2,D5,0\H,3,R6,1,A6,5,D6,0\H,3,R7,1,A7,5,D7,0\H,4,R8,1,A8,2,D8,0
 \H,4,R9,1,A9,8,D9,0\H,4,R10,1,A10,8,D10,0\C,1,R11,2,A11,3,D11,0\C,11,R
 12,1,A12,2,D12,0\H,11,R13,1,A13,12,D13,0\H,11,R14,1,A14,12,D14,0\H,12,
 R15,11,A15,1,D15,0\H,12,R16,11,A16,15,D16,0\H,12,R17,11,A17,15,D17,0\\
 R2=1.34063179\R3=1.46513063\R4=1.46282086\R5=1.0933066\R6=1.08695515\R
 7=1.09140167\R8=1.08759377\R9=1.09382379\R10=1.09172462\R11=2.05253818
 \R12=1.40483312\R13=1.08321164\R14=1.08375644\R15=1.35910418\R16=1.085
 82702\R17=1.08531415\A3=111.92266946\A4=111.93225395\A5=110.4227433\A6
 =108.34358154\A7=109.71191938\A8=108.32282191\A9=110.43114216\A10=109.
 67649447\A11=100.50380795\A12=99.21627431\A13=96.45924232\A14=96.40483
 813\A15=93.92614401\A16=117.84702645\A17=117.8343514\D4=128.87688926\D
 5=66.4877597\D6=-119.20871728\D7=120.97643676\D8=53.17703878\D9=-119.3
 157242\D10=119.85574671\D11=-115.58454412\D12=-0.50540972\D13=122.3388
 8036\D14=-122.47482642\D15=0.45944048\D16=-108.57092802\D17=108.211008
 01\\Version=ES64L-G16RevA.03\HF=-289.0182405\RMSD=2.568e-09\RMSF=2.125
 e-04\ZeroPoint=0.1464009\Thermal=0.1537295\Dipole=0.2538852,-0.1861661
 ,-1.1032219\DipoleDeriv=-0.1514414,0.1331787,0.1493161,0.1431463,-0.36
 67802,-0.299823,0.1692945,-0.3335072,0.2396689,-0.5029847,0.1277679,-0
 .1370985,0.1302491,-0.7129182,0.2915499,-0.1321518,0.2757379,-0.611910
 8,0.3558099,-0.2042615,-0.049674,-0.0096018,0.0723455,-0.0649351,-0.13
 168,0.0195025,0.225294,0.0886969,0.2042307,0.0703547,0.0031322,0.34858
 44,-0.0085005,0.0510937,0.1071815,0.2297723,-0.0417081,0.0846166,0.043
 8312,0.1273152,-0.1042407,0.0144814,-0.0045476,0.0452164,0.0433473,0.0
 219207,-0.0198234,0.009433,-0.0738604,-0.0115256,-0.0334429,-0.0281618
 ,-0.0526105,0.0450512,0.0137934,0.0256194,-0.0458453,0.0048649,0.07096
 45,0.0354867,0.0438876,-0.0059273,-0.1282299,-0.0759329,-0.0275725,0.0
 260143,0.0331484,0.0502058,-0.0257655,0.0671548,-0.0066641,0.0387142,0
 .0254923,0.0729598,-0.0366819,0.0316769,-0.1888932,-0.0240586,-0.02873
 82,0.0374003,0.0407174,0.0604366,-0.0344385,-0.0036872,-0.0124722,0.02
 17536,0.054625,-0.0263586,-0.0434694,-0.137624,0.2322582,-0.2212285,-0
 .188962,-0.22206,0.5889033,0.4113049,-0.1863081,0.4028728,0.2740015,-0
 .0133544,0.1133174,-0.09284,0.1127151,-0.2133519,0.1777284,0.101043,-0
 .2171153,-0.5183164,-0.0395878,-0.0202597,0.096206,-0.0211769,-0.00146
 06,0.0055233,0.0399949,0.0371364,-0.0197322,-0.0530382,-0.0257062,-0.0
 780582,-0.0285527,-0.0082616,-0.0789201,-0.0644599,-0.0104114,-0.03221
 81,0.1942029,-0.1730335,0.112334,-0.1771126,0.4729492,-0.2229292,0.071
 9353,-0.1467752,0.1391202,-0.1060225,0.0116534,0.1010911,0.0041885,0.0
 240663,-0.099058,0.0407797,-0.0508065,0.0824065,-0.0085408,-0.04702,0.
 0242668,-0.0456001,-0.0423405,-0.1332669,0.0172225,-0.0577609,0.089937
 7\Polar=65.404166,-9.7952041,80.982764,-2.3220048,4.8354659,67.1774899
 \PG=C01 [X(C4H11N1O1)]\NImag=1\\0.50241920,0.09287280,0.35330160,-0.04
 083583,0.08387763,0.52033820,-0.08773388,-0.01336951,-0.00299805,0.100
 45530,-0.01282389,-0.06675634,0.00610976,-0.02071077,0.13276864,-0.002
 40512,0.00671312,-0.26825406,0.01071350,-0.02220785,0.39719226,-0.1887
 1551,-0.01836760,0.02946312,0.00388280,0.00532148,0.01118906,0.4748417
 5,0.00885235,-0.07676122,-0.01648614,-0.00343488,0.00262921,0.00904682
 ,0.01681887,0.59089098,0.01517321,-0.00333443,-0.08381315,0.04389052,-
 0.00654602,-0.04767552,0.05623970,0.01298415,0.58554399,-0.12645378,-0
 .04318245,-0.00565283,0.00407055,-0.00355786,-0.01445560,-0.02779632,-
 0.02944418,-0.00995217,0.55981612,-0.07044922,-0.14015284,-0.03315812,
 0.00546965,0.00229784,-0.00369070,-0.00000582,-0.00467741,0.00239040,-
 0.05128773,0.50304978,-0.00753826,-0.01412745,-0.08309531,-0.02213187,
 -0.03835404,-0.04799269,0.00428366,0.00900329,0.01077836,-0.04447357,-
 0.03453580,0.58313227,-0.03005285,0.03053143,-0.00182898,0.00300295,-0
 .00300373,-0.00409651,-0.09460921,0.09328633,-0.02550514,0.00187285,0.
 00331282,0.00027822,0.11195462,0.00327619,0.00069491,-0.00045226,-0.00
 106806,0.00126768,-0.00158513,0.09622348,-0.24342068,0.05111970,-0.000
 70246,0.00184288,-0.00029981,-0.10907751,0.25913440,0.01102391,-0.0123
 4472,0.00100932,-0.00076901,0.00073127,0.00350700,-0.02800846,0.052935
 38,-0.06367633,-0.00070576,-0.00047831,-0.00027250,0.02556332,-0.05584
 788,0.06169315,-0.02612183,-0.02669974,-0.01399366,0.00343242,0.000874
 47,-0.00271069,-0.11036172,-0.09639690,-0.05267921,-0.00474150,0.00128
 759,0.00403540,0.00858150,0.01058565,0.00643525,0.12949061,-0.00042448
 ,0.00058285,0.00044429,0.00140916,0.00061963,0.00031083,-0.10461427,-0
 .20868879,-0.08875575,0.00022936,0.00081627,0.00047967,-0.01326748,-0.
 01982984,-0.01215924,0.11142870,0.22020378,0.00964320,0.01040265,0.004
 04767,-0.00032646,0.00136509,0.00127493,-0.06105647,-0.09197156,-0.098
 58426,0.00212802,0.00001380,-0.00134236,0.00411267,0.00673856,0.003620
 05,0.05982653,0.09667664,0.10045654,0.00269476,-0.00224350,0.03341999,
 -0.00587634,0.00045368,0.00625791,-0.05337776,0.00158835,-0.02175299,0
 .00052687,-0.00033497,-0.00004294,0.00017015,0.00005072,-0.01380990,0.
 00024933,0.00421066,-0.01511680,0.05584077,-0.00099477,-0.00154253,-0.
 00082078,0.00088815,0.00139266,-0.00058884,0.00168574,-0.05365213,0.03
 224796,0.00002506,0.00000097,0.00042650,0.00072654,-0.00191828,0.02751
 755,0.00055265,0.00497908,-0.02349692,-0.00238398,0.05063222,-0.001565
 15,0.00033401,-0.01455055,0.00516934,0.00022159,-0.00030385,-0.0123262
 4,0.03154005,-0.30237285,-0.00102438,-0.00032671,-0.00053291,-0.001067
 92,0.00034673,-0.00550146,-0.00067742,0.00249011,-0.01059159,0.0114946
 4,-0.03486640,0.33174276,-0.02391788,-0.00284124,0.00869702,0.00294288
 ,0.00185959,0.00149577,-0.00059911,-0.00329542,-0.00319219,-0.26629263
 ,0.02385220,0.10003890,0.00031744,0.00009560,-0.00000341,-0.00106269,-
 0.00002678,0.00051109,0.00034623,0.00009984,0.00008602,0.29257152,-0.0
 2916729,-0.00218532,0.01100866,0.00134565,0.00120209,0.00231177,-0.001
 90557,-0.00330709,-0.00290454,0.03191117,-0.05100636,-0.01478530,-0.00
 040510,0.00010542,-0.00014522,-0.00156546,0.00030102,0.00035470,0.0003
 2457,-0.00005710,-0.00007264,-0.02184897,0.05632954,-0.01378756,-0.000
 87928,0.00387917,-0.00090943,0.00111957,0.00127708,-0.00125597,-0.0015
 4461,-0.00126882,0.10752530,-0.01044957,-0.09683668,0.00012681,-0.0000
 3065,-0.00004083,-0.00054332,-0.00015342,0.00065556,-0.00003788,-0.000
 11981,0.00042417,-0.11094054,0.01439477,0.09849096,0.00517392,-0.02489
 832,0.00158761,-0.00005802,0.00140263,0.00380518,0.00312003,-0.0016997
 6,0.00008400,-0.09125151,0.09297906,-0.02384071,0.00018567,0.00087399,
 -0.00030208,0.00000960,0.00030637,-0.00006247,-0.00018998,0.00003782,0
 .00000711,-0.01009945,0.02546355,-0.00789516,0.09359448,0.00208738,-0.
 03529279,0.00121691,-0.00058069,0.00451999,0.00227512,0.00236038,0.000
 64192,-0.00041385,0.09005568,-0.24411872,0.05289701,-0.00117741,0.0004
 5104,0.00018118,-0.00018067,0.00037776,-0.00011946,-0.00012786,-0.0000
 9202,0.00010280,0.00174337,-0.00136250,0.00101522,-0.09376890,0.275329
 14,0.00258254,-0.01614080,0.00115559,-0.00008660,0.00106091,0.00357349
 ,0.00076197,0.00027749,-0.00027153,-0.02359201,0.05577195,-0.06414704,
 0.00004851,0.00032651,0.00016291,0.00011851,-0.00008699,-0.00004074,-0
 .00019921,0.00015149,-0.00008049,0.00541678,-0.01254824,0.00358867,0.0
 2748663,-0.05602339,0.06222031,-0.00107490,0.00244991,-0.02038604,-0.0
 0083044,-0.00329608,-0.00351447,0.00008884,0.00040620,-0.00032848,-0.0
 5195505,0.00024397,-0.00937429,-0.00017941,0.00002580,0.00001075,0.000
 28062,0.00012009,0.00010592,-0.00067303,-0.00046230,0.00014246,0.00509
 863,-0.00355421,0.02789186,-0.00059623,0.00142660,-0.01274577,0.050211
 11,0.00130655,0.00271413,-0.02648954,-0.00361306,-0.00367269,-0.005169
 20,0.00007696,0.00049360,0.00027817,0.00017038,-0.05468727,0.03593654,
 -0.00013651,-0.00010741,0.00025885,0.00034865,-0.00003383,-0.00005025,
 -0.00056008,0.00013220,-0.00000095,0.00000089,-0.00027904,-0.00316047,
 0.00056106,-0.00105061,0.02802538,0.00227770,0.05569011,0.00075486,0.0
 0146833,-0.01500050,-0.00349230,-0.00404347,-0.00036958,0.00096888,0.0
 0064392,-0.00049210,-0.01500089,0.02818193,-0.30146675,-0.00009200,0.0
 0005626,-0.00008915,-0.00000179,-0.00012027,0.00041778,-0.00008127,-0.
 00012063,0.00101055,-0.00127766,0.00198278,-0.01030950,0.00038332,0.00
 110603,-0.00577591,0.01785345,-0.02956571,0.33128074,-0.02018239,-0.02
 903803,-0.00939390,-0.00320304,0.02261937,0.00103014,-0.00798283,0.006
 68967,0.00088122,0.00635368,-0.00330812,0.00532929,0.00066324,-0.00066
 751,0.00033306,0.00062417,0.00101648,-0.00037657,0.00022024,0.00009369
 ,0.00040074,-0.00031950,-0.00100708,0.00010967,-0.00153867,-0.00410429
 ,-0.00152684,0.00031725,-0.00025575,-0.00048688,0.54431299,-0.02854851
 ,0.02623926,0.01958424,0.02242141,-0.03869521,-0.00230441,0.00805975,0
 .00368089,-0.00740406,-0.00502729,-0.01082534,-0.00534208,-0.00561128,
 0.00211245,0.00169284,-0.00166452,-0.00026161,0.00021469,-0.00019042,0
 .00042574,0.00028306,0.00188794,0.00057253,0.00034896,0.00114041,0.004
 51978,0.00075038,0.00000632,0.00033411,-0.00014002,0.20473441,0.215684
 19,0.00217055,-0.00409013,-0.00818166,0.00635268,-0.01280718,-0.034073
 11,0.00296490,-0.00054149,-0.00155879,-0.00152745,-0.00257771,-0.00156
 472,-0.00033112,0.00031319,0.00071630,-0.00009795,0.00003231,0.0004401
 1,-0.00012865,-0.00037095,0.00037745,0.00007651,0.00009420,0.00046110,
 -0.00004969,0.00048671,0.00068551,0.00039886,-0.00014107,0.00034873,-0
 .03492018,0.06955298,0.65256560,0.00146235,0.00651347,-0.00877827,-0.0
 1073066,0.03448965,0.01344444,-0.00111699,-0.00006810,0.00115649,0.000
 97203,0.00011825,0.00060710,0.00027920,-0.00000161,-0.00052553,0.00017
 669,0.00006004,0.00000442,-0.00002227,-0.00000255,-0.00023717,-0.00011
 698,0.00021617,-0.00003964,-0.00003839,-0.00040200,0.00034231,0.000181
 60,0.00007237,0.00048839,-0.10526715,-0.00102795,0.05834634,0.55762076
 ,0.00662905,-0.00856856,0.01754170,0.03439187,-0.06529890,-0.02754012,
 0.00171130,0.00086934,-0.00172106,-0.00176356,-0.00118097,-0.00201078,
 -0.00062130,0.00029449,0.00002720,-0.00001809,-0.00030254,0.00007061,0
 .00021727,0.00010717,-0.00041151,0.00030390,-0.00002798,0.00003963,0.0
 0024057,0.00060325,0.00044517,-0.00014377,-0.00008615,-0.00007523,-0.0
 0066296,-0.10186595,-0.11629911,0.11578212,0.37445883,0.01784988,-0.03
 771228,-0.02511447,-0.03026760,0.06261672,0.01962942,-0.00462204,-0.00
 447569,0.00600024,0.00655319,0.00096965,0.00605815,0.00325637,-0.00042
 465,-0.00130509,0.00073914,0.00087898,-0.00024767,-0.00041191,0.000095
 33,0.00025370,-0.00127370,-0.00000828,-0.00019686,-0.00172954,-0.00294
 643,-0.00127132,0.00020922,0.00039074,0.00027123,0.02483452,-0.0475326
 0,-0.29464344,-0.10374190,0.21681756,0.47166496,0.00268267,0.00595226,
 -0.00129250,-0.00032035,-0.00109761,-0.00329804,0.00119081,0.00102308,
 -0.00040717,-0.00097957,0.00017842,-0.00034897,0.00012927,-0.00020184,
 -0.00005764,-0.00020072,0.00006278,-0.00014728,-0.00005165,0.00004221,
 -0.00005213,0.00012794,0.00015867,-0.00018608,0.00039369,0.00040314,0.
 00018393,-0.00005173,0.00000164,0.00016407,-0.21406877,-0.09131357,0.1
 1176628,0.00129776,-0.00250654,0.00402308,0.22378893,-0.00623429,-0.00
 982357,0.00208526,0.00100380,0.00153778,0.00442269,-0.00166760,-0.0003
 4708,0.00112934,0.00141572,-0.00136883,0.00106948,0.00021589,0.0003513
 6,-0.00038513,0.00052197,0.00028302,0.00033327,0.00036537,-0.00041956,
 -0.00063632,0.00027664,0.00001577,-0.00010373,-0.00018164,-0.00092375,
 -0.00035599,-0.00012288,-0.00012346,-0.00018850,-0.09245417,-0.0750464
 1,0.05603868,0.00629293,0.00798979,-0.01034145,0.09252948,0.08109891,0
 .00118648,0.00415438,-0.00057931,-0.00029791,-0.00019771,-0.00131417,0
 .00097870,-0.00002267,0.00044693,-0.00084904,0.00000766,-0.00028869,-0
 .00029526,-0.00020665,-0.00003644,-0.00045034,-0.00000440,-0.00027223,
 -0.00002552,-0.00005150,0.00015706,0.00013126,0.00003920,-0.00011887,0
 .00024726,0.00022363,0.00005114,-0.00000293,0.00004015,0.00010358,0.11
 339331,0.04905849,-0.13220169,0.02397817,0.00866048,-0.00859876,-0.123
 90312,-0.05541826,0.13545348,-0.00503929,-0.00016531,-0.00084596,0.000
 75631,0.00022565,-0.00150360,-0.00040380,0.00103725,-0.00064593,-0.000
 11217,-0.00070078,-0.00063830,-0.00029822,0.00037601,0.00018056,0.0002
 8437,0.00014629,0.00020178,-0.00015736,-0.00004616,0.00006037,0.000394
 88,0.00007876,-0.00018553,0.00028496,0.00012957,0.00034887,-0.00008481
 ,0.00041232,0.00056041,-0.21328423,-0.08636490,-0.11422418,0.00727354,
 0.00162612,0.00583647,-0.01341597,-0.00646495,-0.01258367,0.22128579,0
 .01194467,-0.00219506,0.00255364,-0.00200580,0.00053096,0.00541961,-0.
 00024684,-0.00187097,0.00091993,0.00205456,0.00082478,0.00104577,0.000
 90404,-0.00018996,-0.00038119,0.00003585,-0.00013098,0.00007222,0.0000
 7968,-0.00002207,-0.00024185,-0.00042330,-0.00024054,0.00028190,-0.000
 29004,0.00024576,-0.00019186,0.00003889,-0.00037731,-0.00034229,-0.085
 28267,-0.06899640,-0.05290214,-0.00718276,0.00229575,-0.00965315,-0.00
 858479,-0.00132992,-0.00752337,0.08765349,0.07662045,-0.00395993,0.001
 68717,-0.00061078,0.00034034,0.00015435,-0.00131901,0.00049703,0.00070
 146,-0.00029113,-0.00065659,-0.00082426,0.00040324,-0.00033110,-0.0000
 4190,0.00005360,-0.00009050,-0.00006272,-0.00010237,-0.00003823,0.0000
 2096,0.00009371,0.00034606,0.00035392,-0.00028914,0.00037161,0.0001230
 8,-0.00002065,0.00003712,0.00002660,0.00020281,-0.10998143,-0.05872028
 ,-0.13609658,-0.02162876,-0.01329621,-0.00898426,0.01281413,0.00473411
 ,0.01089547,0.12208808,0.06303124,0.13976667,-0.00276290,0.01788578,0.
 02943991,-0.01216705,-0.02044555,-0.01447016,0.00118925,0.00401465,-0.
 00221224,-0.00266180,-0.00127221,-0.00550953,-0.00158318,0.00012147,0.
 00043797,-0.00058643,-0.00060839,0.00047498,0.00028772,-0.00021295,-0.
 00042330,0.00037728,-0.00010730,0.00010521,0.00069665,0.00162478,0.000
 78842,-0.00075037,-0.00066061,-0.00074758,0.00810905,-0.01826296,-0.02
 633168,-0.01855256,-0.02366677,0.02940645,-0.00208821,0.00223199,-0.00
 064274,-0.00037272,0.00210524,-0.00064290,0.03691249,0.01732342,-0.030
 87701,-0.06033902,-0.01971563,0.01945340,0.02964451,-0.00396113,-0.004
 80630,0.00860623,0.00701796,-0.00102921,0.00714269,0.00330841,-0.00064
 733,-0.00133887,0.00063311,0.00091900,-0.00049571,-0.00144925,-0.00001
 512,0.00124650,-0.00139990,0.00001528,-0.00064660,-0.00168564,-0.00297
 042,-0.00115107,0.00062841,0.00100197,0.00117458,-0.01825972,0.0363817
 4,0.05401871,-0.02354231,0.01862129,-0.05975415,0.00330426,-0.00370005
 ,0.00132039,0.00084900,-0.00561677,0.00127380,0.02869145,-0.00739155,0
 .01227512,-0.02542597,-0.02909777,-0.00673533,0.01396697,-0.02531866,-
 0.00045618,-0.00193758,-0.00218991,0.00180246,-0.00090509,-0.00223973,
 0.00027473,0.00003471,-0.00006916,0.00009408,0.00015541,0.00027922,0.0
 0045930,-0.00002631,-0.00021954,-0.00020570,0.00000857,0.00029564,-0.0
 0019784,-0.00018562,-0.00006168,-0.00028244,-0.00036864,-0.00022476,-0
 .00379560,0.00794025,-0.01943462,-0.00357390,0.00771930,-0.02797313,0.
 00041833,-0.00090420,-0.00084611,0.00048524,-0.00088801,-0.00091160,-0
 .00441716,0.00878909,0.10343401,-0.00045739,0.00079588,0.00075117,0.00
 116704,0.00045053,-0.00031701,0.00006578,0.00014471,-0.00027953,-0.000
 49004,-0.00019513,-0.00021596,-0.00012609,0.00001901,0.00005267,0.0000
 5938,-0.00005804,-0.00000797,0.00002864,0.00001632,-0.00001834,0.00013
 039,0.00002324,0.00003615,0.00011031,0.00010670,0.00000774,0.00004104,
 -0.00004071,-0.00000158,0.00002274,-0.00107779,-0.00290070,-0.29486319
 ,-0.00783048,0.09388698,0.00164635,-0.00025079,-0.00034520,0.00112584,
 0.00129160,0.00013858,-0.00765537,0.00085088,0.00204682,0.31230405,0.0
 0248529,-0.00538464,-0.00373787,-0.00272029,0.00303949,0.00164635,-0.0
 0056041,-0.00103557,0.00077739,0.00124634,0.00034332,0.00074095,0.0006
 1250,-0.00011598,-0.00013315,0.00006243,0.00008549,0.00001300,-0.00000
 253,-0.00006726,0.00000442,-0.00019299,-0.00013797,-0.00013396,-0.0002
 4109,-0.00043617,-0.00019006,-0.00011129,0.00007221,-0.00003450,0.0042
 5872,0.00501668,0.00428133,-0.00151172,-0.03581420,-0.01969370,-0.0020
 0979,0.00371177,-0.00042460,0.00161128,-0.00305677,0.00064067,0.014743
 99,-0.00477555,-0.00392076,0.00292394,0.03726867,-0.00092124,0.0028235
 0,-0.00110304,0.00160893,-0.00114119,0.00011784,0.00018431,-0.00007676
 ,-0.00031311,-0.00003759,-0.00018974,-0.00025399,-0.00008109,-0.000059
 20,0.00013218,-0.00002799,-0.00006565,-0.00008320,-0.00000169,0.000087
 27,0.00008954,0.00002175,-0.00005485,0.00007159,0.00000302,0.00002352,
 0.00009567,0.00005647,-0.00006789,0.00000109,0.03270762,-0.00147705,-0
 .01369222,0.08223084,-0.01371612,-0.06663624,0.00179879,-0.00433349,-0
 .00432419,-0.00136403,0.00290467,0.00154089,-0.00884694,0.00206975,0.0
 0226633,-0.09733033,0.01103650,0.07889506,-0.00192029,0.00380418,0.002
 64719,0.00120951,-0.00276156,-0.00116480,0.00058402,0.00047778,-0.0004
 7007,-0.00087773,0.00011199,-0.00045817,-0.00030792,0.00007107,0.00014
 430,-0.00011380,0.00000951,0.00008542,-0.00001633,-0.00006531,0.000031
 37,0.00010106,0.00003919,-0.00001390,0.00020292,0.00040424,0.00006421,
 -0.00002312,0.00003819,0.00000855,0.00522320,0.00083897,-0.00156451,-0
 .13855574,-0.12368874,-0.04454860,-0.00008045,0.00252253,-0.00051944,0
 .00176287,-0.00209183,0.00069648,0.00160815,0.00740667,0.00180807,-0.0
 1310947,-0.02059439,-0.01000082,0.14431311,0.00186475,-0.00399289,-0.0
 0293836,0.00028900,0.00316377,0.00129544,-0.00092872,-0.00063871,0.000
 62645,0.00083929,-0.00012888,0.00071335,0.00040236,-0.00002515,-0.0001
 3055,0.00019430,0.00007967,-0.00012133,0.00000228,0.00011603,-0.000012
 88,-0.00009138,0.00006224,0.00002205,-0.00024007,-0.00044165,-0.000120
 87,0.00006665,-0.00002057,0.00001682,-0.00437204,0.00072356,0.00491166
 ,-0.12980600,-0.19209466,-0.08922662,0.00205819,-0.00190578,0.00034478
 ,-0.00040365,0.00350904,0.00019800,-0.00618261,-0.01456339,-0.00405214
 ,0.00283013,0.00128650,0.00223673,0.13347753,0.20487085,-0.00164666,0.
 00259428,-0.00102936,-0.00006075,-0.00204877,0.00004863,0.00019401,-0.
 00007606,-0.00026203,-0.00008107,-0.00019939,-0.00033865,-0.00003150,0
 .00001248,0.00009644,0.00002397,-0.00005980,0.00007256,0.00001516,-0.0
 0008493,0.00000428,0.00007204,-0.00002951,-0.00008322,0.00010176,0.000
 03753,0.00013610,-0.00007168,0.00005730,0.00009174,-0.01853816,-0.0265
 0538,-0.01414798,-0.04207334,-0.07625152,-0.06890647,-0.00147570,0.002
 85424,0.00147278,0.00222944,-0.00410512,-0.00433088,0.00359128,0.00843
 915,0.00231147,0.00449650,0.00912800,0.00319581,0.05325470,0.08623749,
 0.08166878\\-0.00103995,-0.00001616,-0.00000363,0.00104478,0.00025878,
 -0.00000187,-0.00000273,-0.00024836,0.00000163,0.00000177,0.00000075,0
 .00000147,0.00000014,0.00000020,-0.00000004,-0.00000029,-0.00000027,-0
 .00000009,-0.00000024,-0.00000003,0.00000015,0.00000033,0.00000012,-0.
 00000017,-0.00000012,-0.00000043,-0.00000012,0.00000022,0.,0.00000042,
 -0.00000297,0.00000259,0.00000268,-0.00000103,0.00000579,-0.00000457,-
 0.00000053,0.00000023,0.00000003,0.00000071,-0.00000062,0.00000023,-0.
 00000087,-0.00000100,0.00000371,0.00000003,0.00000007,-0.00000037,0.00
 000075,-0.00000166,0.00000053\\\@


 IN THE UNIVERSE THE DIFFICULT THINGS ARE DONE AS IF THEY WERE EASY.

                                                          -- LAO-TSU
 Job cpu time:       0 days  0 hours 50 minutes  4.6 seconds.
 Elapsed time:       0 days  0 hours  4 minutes 11.7 seconds.
 File lengths (MBytes):  RWF=     95 Int=      0 D2E=      0 Chk=     32 Scr=      1
 Normal termination of Gaussian 16 at Fri Jun 10 11:16:22 2022.
