 Entering Gaussian System, Link 0=g16
 Input=int_zmat_field_N50.gjf
 Output=int_zmat_field_N50.out
 Initial command:
 /software/gaussian/g16-a03/l1.exe "/local_scratch/11171794/Gau-17538.inp" -scrdir="/local_scratch/11171794/"
 Entering Link 1 = /software/gaussian/g16-a03/l1.exe PID=     17539.
  
 Copyright (c) 1988,1990,1992,1993,1995,1998,2003,2009,2016,
            Gaussian, Inc.  All Rights Reserved.
  
 This is part of the Gaussian(R) 16 program.  It is based on
 the Gaussian(R) 09 system (copyright 2009, Gaussian, Inc.),
 the Gaussian(R) 03 system (copyright 2003, Gaussian, Inc.),
 the Gaussian(R) 98 system (copyright 1998, Gaussian, Inc.),
 the Gaussian(R) 94 system (copyright 1995, Gaussian, Inc.),
 the Gaussian 92(TM) system (copyright 1992, Gaussian, Inc.),
 the Gaussian 90(TM) system (copyright 1990, Gaussian, Inc.),
 the Gaussian 88(TM) system (copyright 1988, Gaussian, Inc.),
 the Gaussian 86(TM) system (copyright 1986, Carnegie Mellon
 University), and the Gaussian 82(TM) system (copyright 1983,
 Carnegie Mellon University). Gaussian is a federally registered
 trademark of Gaussian, Inc.
  
 This software contains proprietary and confidential information,
 including trade secrets, belonging to Gaussian, Inc.
  
 This software is provided under written license and may be
 used, copied, transmitted, or stored only in accord with that
 written license.
  
 The following legend is applicable only to US Government
 contracts under FAR:
  
                    RESTRICTED RIGHTS LEGEND
  
 Use, reproduction and disclosure by the US Government is
 subject to restrictions as set forth in subparagraphs (a)
 and (c) of the Commercial Computer Software - Restricted
 Rights clause in FAR 52.227-19.
  
 Gaussian, Inc.
 340 Quinnipiac St., Bldg. 40, Wallingford CT 06492
  
  
 ---------------------------------------------------------------
 Warning -- This program may not be used in any manner that
 competes with the business of Gaussian, Inc. or will provide
 assistance to any competitor of Gaussian, Inc.  The licensee
 of this program is prohibited from giving any competitor of
 Gaussian, Inc. access to this program.  By using this program,
 the user acknowledges that Gaussian, Inc. is engaged in the
 business of creating and licensing software in the field of
 computational chemistry and represents and warrants to the
 licensee that it is not a competitor of Gaussian, Inc. and that
 it will not use this program in any manner prohibited above.
 ---------------------------------------------------------------
  

 Cite this work as:
 Gaussian 16, Revision A.03,
 M. J. Frisch, G. W. Trucks, H. B. Schlegel, G. E. Scuseria, 
 M. A. Robb, J. R. Cheeseman, G. Scalmani, V. Barone, 
 G. A. Petersson, H. Nakatsuji, X. Li, M. Caricato, A. V. Marenich, 
 J. Bloino, B. G. Janesko, R. Gomperts, B. Mennucci, H. P. Hratchian, 
 J. V. Ortiz, A. F. Izmaylov, J. L. Sonnenberg, D. Williams-Young, 
 F. Ding, F. Lipparini, F. Egidi, J. Goings, B. Peng, A. Petrone, 
 T. Henderson, D. Ranasinghe, V. G. Zakrzewski, J. Gao, N. Rega, 
 G. Zheng, W. Liang, M. Hada, M. Ehara, K. Toyota, R. Fukuda, 
 J. Hasegawa, M. Ishida, T. Nakajima, Y. Honda, O. Kitao, H. Nakai, 
 T. Vreven, K. Throssell, J. A. Montgomery, Jr., J. E. Peralta, 
 F. Ogliaro, M. J. Bearpark, J. J. Heyd, E. N. Brothers, K. N. Kudin, 
 V. N. Staroverov, T. A. Keith, R. Kobayashi, J. Normand, 
 K. Raghavachari, A. P. Rendell, J. C. Burant, S. S. Iyengar, 
 J. Tomasi, M. Cossi, J. M. Millam, M. Klene, C. Adamo, R. Cammi, 
 J. W. Ochterski, R. L. Martin, K. Morokuma, O. Farkas, 
 J. B. Foresman, and D. J. Fox, Gaussian, Inc., Wallingford CT, 2016.
 
 ******************************************
 Gaussian 16:  ES64L-G16RevA.03 25-Dec-2016
                10-Jun-2022 
 ******************************************
 %nprocshared=12
 Will use up to   12 processors via shared memory.
 %chk=checkpoint.chk
 %mem=12GB
 ----------------------------------------------------------------------
 # Opt=(Z-matrix, MaxStep=10) B3LYP/Def2TZVP geom=allcheckpoint guess=r
 ead Field=read NoSymm freq=noraman pop=none
 ----------------------------------------------------------------------
 1/8=10,10=7,18=40,26=3,29=7,38=1/1,3;
 2/12=2,15=1,29=3,40=1/2;
 3/5=44,7=101,11=2,14=-6,25=1,30=1,71=1,74=-5,116=-2/1,2,3;
 4/5=1/1;
 5/5=2,38=6/2;
 7/29=1,30=1/1,2,3,16;
 1/8=10,10=7,18=40,26=3/3(2);
 2/15=1,29=3/2;
 99//99;
 2/15=1,29=3/2;
 3/5=44,7=101,11=2,14=-2,25=1,30=1,71=1,74=-5/1,2,3;
 4/5=5,16=3,69=1/1;
 5/5=2,38=5/2;
 7/30=1/1,2,3,16;
 1/8=10,18=40,26=3/3(-5);
 2/15=1,29=3/2;
 99/9=1/99;
 Structure from the checkpoint file:  "checkpoint.chk"
 ------------------
 int_zmat_initalOpt
 ------------------
 Charge =  0 Multiplicity = 1
 Z-Matrix found in chk file.
 C
 C,1,R2
 C,1,R3,2,A3
 C,1,R4,2,A4,3,D4,0
 H,1,R5,2,A5,3,D5,0
 H,3,R6,1,A6,2,D6,0
 H,3,R7,1,A7,6,D7,0
 H,4,R8,1,A8,2,D8,0
 H,4,R9,1,A9,8,D9,0
 C,2,R10,1,A10,3,D10,0
 H,2,R11,1,A11,10,D11,0
 H,10,R12,2,A12,1,D12,0
 H,10,R13,2,A13,12,D13,0
      Variables:
 R2=1.48152116
 R3=1.51674361
 R4=1.50107267
 R5=1.08500475
 R6=1.08203814
 R7=1.08174825
 R8=1.08134918
 R9=1.08152364
 R10=1.32907587
 R11=1.08790142
 R12=1.0833028
 R13=1.08270134
 A3=120.35170549
 A4=122.92375945
 A5=113.6022158
 A6=116.99919715
 A7=118.13752416
 A8=118.37044415
 A9=117.71312043
 A10=126.91579269
 A11=114.66906399
 A12=122.12150037
 A13=121.1305398
 D4=71.5409698
 D5=-140.62797194
 D6=5.15888513
 D7=-143.7888971
 D8=-1.12340041
 D9=143.94097203
 D10=-85.70464083
 D11=179.60657106
 D12=-1.77784293
 D13=-179.37202983
 Recover connectivity data from disk.

 GradGradGradGradGradGradGradGradGradGradGradGradGradGradGradGradGradGrad
 Berny optimization.
 Initialization pass.
                       ----------------------------
                       !    Initial Parameters    !
                       ! (Angstroms and Degrees)  !
 ----------------------                            ----------------------
 !      Name          Value   Derivative information (Atomic Units)     !
 ------------------------------------------------------------------------
 !       R2          1.4815   estimate D2E/DX2                          !
 !       R3          1.5167   estimate D2E/DX2                          !
 !       R4          1.5011   estimate D2E/DX2                          !
 !       R5          1.085    estimate D2E/DX2                          !
 !       R6          1.082    estimate D2E/DX2                          !
 !       R7          1.0817   estimate D2E/DX2                          !
 !       R8          1.0813   estimate D2E/DX2                          !
 !       R9          1.0815   estimate D2E/DX2                          !
 !       R10         1.3291   estimate D2E/DX2                          !
 !       R11         1.0879   estimate D2E/DX2                          !
 !       R12         1.0833   estimate D2E/DX2                          !
 !       R13         1.0827   estimate D2E/DX2                          !
 !       A3        120.3517   estimate D2E/DX2                          !
 !       A4        122.9238   estimate D2E/DX2                          !
 !       A5        113.6022   estimate D2E/DX2                          !
 !       A6        116.9992   estimate D2E/DX2                          !
 !       A7        118.1375   estimate D2E/DX2                          !
 !       A8        118.3704   estimate D2E/DX2                          !
 !       A9        117.7131   estimate D2E/DX2                          !
 !       A10       126.9158   estimate D2E/DX2                          !
 !       A11       114.6691   estimate D2E/DX2                          !
 !       A12       122.1215   estimate D2E/DX2                          !
 !       A13       121.1305   estimate D2E/DX2                          !
 !       D4         71.541    estimate D2E/DX2                          !
 !       D5       -140.628    estimate D2E/DX2                          !
 !       D6          5.1589   estimate D2E/DX2                          !
 !       D7       -143.7889   estimate D2E/DX2                          !
 !       D8         -1.1234   estimate D2E/DX2                          !
 !       D9        143.941    estimate D2E/DX2                          !
 !       D10       -85.7046   estimate D2E/DX2                          !
 !       D11       179.6066   estimate D2E/DX2                          !
 !       D12        -1.7778   estimate D2E/DX2                          !
 !       D13      -179.372    estimate D2E/DX2                          !
 ------------------------------------------------------------------------
 Trust Radius=1.00D-01 FncErr=1.00D-07 GrdErr=1.00D-06 EigMax=2.50D+02 EigMin=1.00D-04
 Number of steps in this run=     43 maximum allowed number of steps=    100.
 GradGradGradGradGradGradGradGradGradGradGradGradGradGradGradGradGradGrad

 ---------------------------------------------------------------------------------------------------
                            Z-MATRIX (ANGSTROMS AND DEGREES)
   CD    Cent   Atom    N1       Length/X        N2       Alpha/Y        N3        Beta/Z          J
 ---------------------------------------------------------------------------------------------------
      1      1  C 
      2      2  C        1   1.481521(     1)
      3      3  C        1   1.516744(     2)      2  120.352(    13)
      4      4  C        1   1.501073(     3)      2  122.924(    14)      3   71.541(    24)      0
      5      5  H        1   1.085005(     4)      2  113.602(    15)      3 -140.628(    25)      0
      6      6  H        3   1.082038(     5)      1  116.999(    16)      2    5.159(    26)      0
      7      7  H        3   1.081748(     6)      1  118.138(    17)      6 -143.789(    27)      0
      8      8  H        4   1.081349(     7)      1  118.370(    18)      2   -1.123(    28)      0
      9      9  H        4   1.081524(     8)      1  117.713(    19)      8  143.941(    29)      0
     10     10  C        2   1.329076(     9)      1  126.916(    20)      3  -85.705(    30)      0
     11     11  H        2   1.087901(    10)      1  114.669(    21)     10  179.607(    31)      0
     12     12  H       10   1.083303(    11)      2  122.122(    22)      1   -1.778(    32)      0
     13     13  H       10   1.082701(    12)      2  121.131(    23)     12 -179.372(    33)      0
 ---------------------------------------------------------------------------------------------------
                         Z-Matrix orientation:                         
 ---------------------------------------------------------------------
 Center     Atomic      Atomic             Coordinates (Angstroms)
 Number     Number       Type             X           Y           Z
 ---------------------------------------------------------------------
      1          6           0        0.000000    0.000000    0.000000
      2          6           0        0.000000    0.000000    1.481521
      3          6           0        1.308859    0.000000   -0.766421
      4          6           0        0.398947   -1.195166   -0.815867
      5          1           0       -0.768591    0.630700   -0.434419
      6          1           0        2.217951   -0.086691   -0.186039
      7          1           0        1.387348    0.630454   -1.641947
      8          1           0        0.716914   -2.088817   -0.296635
      9          1           0       -0.147531   -1.385559   -1.729544
     10          6           0        0.079588   -1.059637    2.279818
     11          1           0       -0.067274    0.986321    1.935586
     12          1           0        0.126951   -2.070266    1.892609
     13          1           0        0.089969   -0.949526    3.356856
 ---------------------------------------------------------------------
                    Distance matrix (angstroms):
                    1          2          3          4          5
     1  C    0.000000
     2  C    1.481521   0.000000
     3  C    1.516744   2.601221   0.000000
     4  C    1.501073   2.620224   1.502932   0.000000
     5  H    1.085005   2.158551   2.196317   2.200553   0.000000
     6  H    2.227427   2.776253   1.082038   2.221300   3.081522
     7  H    2.240133   3.475379   1.081748   2.234331   2.471073
     8  H    2.228253   2.835306   2.221318   1.081349   3.101851
     9  H    2.221005   3.500354   2.229002   1.081524   2.475554
    10  C    2.515300   1.329076   3.451595   3.115064   3.308131
    11  H    2.173441   1.087901   3.188637   3.542138   2.497045
    12  H    2.807861   2.114500   3.571182   2.859304   3.675904
    13  H    3.489724   2.103942   4.403260   4.191351   4.196189
                    6          7          8          9         10
     6  H    0.000000
     7  H    1.823147   0.000000
     8  H    2.504766   3.107053   0.000000
     9  H    3.108853   2.535318   1.815231   0.000000
    10  C    3.405829   4.466193   2.846666   4.028994   0.000000
    11  H    3.297711   3.878312   3.879978   4.366398   2.079906
    12  H    3.553537   4.623372   2.267419   3.696506   1.083303
    13  H    4.221954   5.400700   3.878020   5.110577   1.082701
                   11         12         13
    11  H    0.000000
    12  H    3.063053   0.000000
    13  H    2.406707   1.844301   0.000000
 Symmetry turned off by external request.
 Stoichiometry    C5H8
 Framework group  C1[X(C5H8)]
 Deg. of freedom    33
 Full point group                 C1      NOp   1
 Rotational constants (GHZ):          11.6626863           3.6603948           3.3128924
 Standard basis: def2TZVP (5D, 7F)
 The following finite field(s) will be applied:
 An electric field of              0.0024 -0.0013  0.0042
   203 basis functions,   319 primitive gaussians,   228 cartesian basis functions
    19 alpha electrons       19 beta electrons
       nuclear repulsion energy       165.0634582010 Hartrees.
 NAtoms=   13 NActive=   13 NUniq=   13 SFac= 1.00D+00 NAtFMM=   60 NAOKFM=F Big=F
 Integral buffers will be    131072 words long.
 Raffenetti 2 integral format.
 Two-electron integral symmetry is turned off.
 One-electron integrals computed using PRISM.
   1 Symmetry operations used in ECPInt.
 ECPInt:  NShTT=    3828 NPrTT=   11160 LenC2=    3810 LenP2D=    9472.
 LDataN:  DoStor=T MaxTD1= 6 Len=  172
 NBasis=   203 RedAO= T EigKep=  1.50D-04  NBF=   203
 NBsUse=   203 1.00D-06 EigRej= -1.00D+00 NBFU=   203
 The nuclear repulsion energy is now       165.2977177856 hartrees.
 Initial guess from the checkpoint file:  "checkpoint.chk"
 B after Tr=     0.000000    0.000000    0.000000
         Rot=    1.000000    0.000000    0.000000    0.000000 Ang=   0.00 deg.
 Requested convergence on RMS density matrix=1.00D-08 within 128 cycles.
 Requested convergence on MAX density matrix=1.00D-06.
 Requested convergence on             energy=1.00D-06.
 No special actions if energy rises.
 SCF Done:  E(RB3LYP) =  -195.368839563     A.U. after    9 cycles
            NFock=  9  Conv=0.83D-08     -V/T= 2.0056
   1 Symmetry operations used in ECPInt.
 ECPInt:  NShTT=    3828 NPrTT=   11160 LenC2=    3810 LenP2D=    9472.
 LDataN:  DoStor=T MaxTD1= 7 Len=  274
 Calling FoFJK, ICntrl=      2127 FMM=F ISym2X=0 I1Cent= 0 IOpClX= 0 NMat=1 NMatS=1 NMatT=0.
 -------------------------------------------------------------------
 Center     Atomic                   Forces (Hartrees/Bohr)
 Number     Number              X              Y              Z
 -------------------------------------------------------------------
      1        6          -0.000607393   -0.000143755    0.000233184
      2        6           0.000416286    0.000324026   -0.000944042
      3        6           0.000025164   -0.000015646   -0.000229978
      4        6           0.000001492    0.000195049   -0.000086895
      5        1           0.000128040   -0.000011897    0.000127685
      6        1           0.000131567   -0.000032456    0.000098304
      7        1          -0.000096555   -0.000039765    0.000134208
      8        1           0.000035340   -0.000097067    0.000054261
      9        1           0.000039374    0.000097739    0.000119652
     10        6           0.000406079   -0.000440364    0.000276500
     11        1          -0.000210270    0.000066669    0.000015191
     12        1          -0.000129211   -0.000002049   -0.000107907
     13        1          -0.000139913    0.000099517    0.000309837
 -------------------------------------------------------------------
 Cartesian Forces:  Max     0.000944042 RMS     0.000252152
 -----------------------------------------------------------------------------------------------
                       Internal Coordinate Forces (Hartree/Bohr or radian)
  Cent   Atom   N1       Length/X         N2         Alpha/Y        N3         Beta/Z          J
 -----------------------------------------------------------------------------------------------
      1  C 
      2  C        1  -0.000450(     1)
      3  C        1   0.000051(     2)      2   0.000022(    13)
      4  C        1  -0.000183(     3)      2   0.000183(    14)      3  -0.000234(    24)     0
      5  H        1  -0.000149(     4)      2  -0.000152(    15)      3   0.000135(    25)     0
      6  H        3   0.000166(     5)      1  -0.000026(    16)      2   0.000060(    26)     0
      7  H        3  -0.000139(     6)      1  -0.000199(    17)      6   0.000026(    27)     0
      8  H        4   0.000117(     7)      1   0.000004(    18)      2   0.000035(    28)     0
      9  H        4  -0.000138(     8)      1  -0.000157(    19)      8   0.000036(    29)     0
     10  C        2   0.000569(     9)      1   0.000377(    20)      3   0.000390(    30)     0
     11  H        2   0.000080(    10)      1  -0.000041(    21)     10   0.000383(    31)     0
     12  H       10   0.000035(    11)      2  -0.000216(    22)      1   0.000023(    32)     0
     13  H       10   0.000317(    12)      2  -0.000157(    23)     12   0.000242(    33)     0
 -----------------------------------------------------------------------------------------------
 Internal  Forces:  Max     0.000568948 RMS     0.000216581

 GradGradGradGradGradGradGradGradGradGradGradGradGradGradGradGradGradGrad
 Berny optimization.
 Search for a local minimum.
 Step number   1 out of a maximum of   43
 All quantities printed in internal units (Hartrees-Bohrs-Radians)
 Second derivative matrix not updated -- first step.
 ITU=  0
     Eigenvalues ---    0.02438   0.03705   0.05139   0.06168   0.07391
     Eigenvalues ---    0.10849   0.14280   0.14514   0.17071   0.18363
     Eigenvalues ---    0.19982   0.21079   0.22473   0.32779   0.34396
     Eigenvalues ---    0.35056   0.35396   0.35598   0.35670   0.35749
     Eigenvalues ---    0.35784   0.35811   0.35832   0.39463   0.43395
     Eigenvalues ---    0.46691   0.48062   0.48682   0.50593   0.59724
     Eigenvalues ---    0.67809   1.27150   2.38311
 RFO step:  Lambda=-8.31784694D-06 EMin= 2.43832751D-02
 Linear search not attempted -- first point.
 Variable       Old X    -DE/DX   Delta X   Delta X   Delta X     New X
                                 (Linear)    (Quad)   (Total)
    R2        2.79967  -0.00045   0.00000  -0.00131  -0.00131   2.79836
    R3        2.86623   0.00005   0.00000   0.00035   0.00035   2.86658
    R4        2.83662  -0.00018   0.00000  -0.00019  -0.00019   2.83643
    R5        2.05036  -0.00015   0.00000  -0.00042  -0.00042   2.04994
    R6        2.04476   0.00017   0.00000   0.00046   0.00046   2.04522
    R7        2.04421  -0.00014   0.00000  -0.00039  -0.00039   2.04382
    R8        2.04345   0.00012   0.00000   0.00033   0.00033   2.04378
    R9        2.04378  -0.00014   0.00000  -0.00039  -0.00039   2.04340
   R10        2.51159   0.00057   0.00000   0.00095   0.00095   2.51253
   R11        2.05584   0.00008   0.00000   0.00023   0.00023   2.05606
   R12        2.04715   0.00003   0.00000   0.00009   0.00009   2.04724
   R13        2.04601   0.00032   0.00000   0.00089   0.00089   2.04690
    A3        2.10053   0.00002   0.00000  -0.00049  -0.00049   2.10005
    A4        2.14542   0.00018   0.00000   0.00028   0.00028   2.14571
    A5        1.98273  -0.00015   0.00000  -0.00027  -0.00027   1.98246
    A6        2.04202  -0.00003   0.00000   0.00022   0.00022   2.04224
    A7        2.06189  -0.00020   0.00000  -0.00081  -0.00081   2.06108
    A8        2.06595   0.00000   0.00000   0.00025   0.00025   2.06621
    A9        2.05448  -0.00016   0.00000  -0.00067  -0.00067   2.05381
   A10        2.21510   0.00038   0.00000   0.00142   0.00142   2.21652
   A11        2.00135  -0.00004   0.00000  -0.00085  -0.00085   2.00050
   A12        2.13142  -0.00022   0.00000  -0.00047  -0.00047   2.13095
   A13        2.11413  -0.00016   0.00000  -0.00037  -0.00037   2.11376
    D4        1.24863  -0.00023   0.00000  -0.00045  -0.00045   1.24817
    D5       -2.45442   0.00014   0.00000  -0.00020  -0.00020  -2.45462
    D6        0.09004   0.00006   0.00000   0.00068   0.00068   0.09072
    D7       -2.50959   0.00003   0.00000   0.00027   0.00027  -2.50932
    D8       -0.01961   0.00003   0.00000   0.00086   0.00086  -0.01875
    D9        2.51224   0.00004   0.00000  -0.00025  -0.00025   2.51199
   D10       -1.49583   0.00039   0.00000   0.00926   0.00926  -1.48657
   D11        3.13473   0.00038   0.00000   0.00210   0.00210   3.13683
   D12       -0.03103   0.00002   0.00000   0.00062   0.00062  -0.03041
   D13       -3.13063   0.00024   0.00000   0.00367   0.00367  -3.12696
         Item               Value     Threshold  Converged?
 Maximum Force            0.000569     0.000450     NO 
 RMS     Force            0.000217     0.000300     YES
 Maximum Displacement     0.009262     0.001800     NO 
 RMS     Displacement     0.001865     0.001200     NO 
 Predicted change in Energy=-4.158923D-06
 GradGradGradGradGradGradGradGradGradGradGradGradGradGradGradGradGradGrad

 ---------------------------------------------------------------------------------------------------
                            Z-MATRIX (ANGSTROMS AND DEGREES)
   CD    Cent   Atom    N1       Length/X        N2       Alpha/Y        N3        Beta/Z          J
 ---------------------------------------------------------------------------------------------------
      1      1  C 
      2      2  C        1   1.480828(     1)
      3      3  C        1   1.516931(     2)      2  120.324(    13)
      4      4  C        1   1.500972(     3)      2  122.940(    14)      3   71.515(    24)      0
      5      5  H        1   1.084782(     4)      2  113.587(    15)      3 -140.639(    25)      0
      6      6  H        3   1.082283(     5)      1  117.012(    16)      2    5.198(    26)      0
      7      7  H        3   1.081543(     6)      1  118.091(    17)      6 -143.773(    27)      0
      8      8  H        4   1.081522(     7)      1  118.385(    18)      2   -1.074(    28)      0
      9      9  H        4   1.081320(     8)      1  117.674(    19)      8  143.927(    29)      0
     10     10  C        2   1.329576(     9)      1  126.997(    20)      3  -85.174(    30)      0
     11     11  H        2   1.088022(    10)      1  114.620(    21)     10  179.727(    31)      0
     12     12  H       10   1.083352(    11)      2  122.095(    22)      1   -1.743(    32)      0
     13     13  H       10   1.083172(    12)      2  121.110(    23)     12 -179.162(    33)      0
 ---------------------------------------------------------------------------------------------------
                         Z-Matrix orientation:                         
 ---------------------------------------------------------------------
 Center     Atomic      Atomic             Coordinates (Angstroms)
 Number     Number       Type             X           Y           Z
 ---------------------------------------------------------------------
      1          6           0        0.000000    0.000000    0.000000
      2          6           0        0.000000    0.000000    1.480828
      3          6           0        1.309392    0.000000   -0.765880
      4          6           0        0.399387   -1.194686   -0.816171
      5          1           0       -0.768651    0.630493   -0.434059
      6          1           0        2.218510   -0.087355   -0.185180
      7          1           0        1.387770    0.631292   -1.640558
      8          1           0        0.717122   -2.088867   -0.297351
      9          1           0       -0.147017   -1.384126   -1.729849
     10          6           0        0.089337   -1.058122    2.280934
     11          1           0       -0.078520    0.985986    1.934103
     12          1           0        0.146649   -2.068643    1.894653
     13          1           0        0.094578   -0.946245    3.358300
 ---------------------------------------------------------------------
                    Distance matrix (angstroms):
                    1          2          3          4          5
     1  C    0.000000
     2  C    1.480828   0.000000
     3  C    1.516931   2.600424   0.000000
     4  C    1.500972   2.619730   1.502635   0.000000
     5  H    1.084782   2.157577   2.196791   2.200363   0.000000
     6  H    2.227938   2.775788   1.082283   2.221157   3.082268
     7  H    2.239613   3.473829   1.081543   2.233990   2.470990
     8  H    2.228463   2.835410   2.221186   1.081522   3.101794
     9  H    2.220314   3.499409   2.228490   1.081320   2.474710
    10  C    2.516002   1.329576   3.448366   3.115580   3.310400
    11  H    2.172346   1.088022   3.191924   3.542277   2.492156
    12  H    2.809004   2.114720   3.565066   2.859413   3.680490
    13  H    3.490345   2.104573   4.402274   4.192951   4.196815
                    6          7          8          9         10
     6  H    0.000000
     7  H    1.823378   0.000000
     8  H    2.504555   3.106966   0.000000
     9  H    3.108590   2.534848   1.815336   0.000000
    10  C    3.399630   4.462975   2.846770   4.030945   0.000000
    11  H    3.304507   3.879950   3.881643   4.364248   2.080108
    12  H    3.541725   4.618198   2.265111   3.700245   1.083352
    13  H    4.219601   5.399033   3.880326   5.112668   1.083172
                   11         12         13
    11  H    0.000000
    12  H    3.063172   0.000000
    13  H    2.406620   1.845197   0.000000
 Symmetry turned off by external request.
 Stoichiometry    C5H8
 Framework group  C1[X(C5H8)]
 Deg. of freedom    33
 Full point group                 C1      NOp   1
 Rotational constants (GHZ):          11.6536810           3.6607886           3.3160731
 Standard basis: def2TZVP (5D, 7F)
 The following finite field(s) will be applied:
 An electric field of              0.0024 -0.0013  0.0042
   203 basis functions,   319 primitive gaussians,   228 cartesian basis functions
    19 alpha electrons       19 beta electrons
       nuclear repulsion energy       165.0739392130 Hartrees.
 NAtoms=   13 NActive=   13 NUniq=   13 SFac= 1.00D+00 NAtFMM=   60 NAOKFM=F Big=F
 Integral buffers will be    131072 words long.
 Raffenetti 2 integral format.
 Two-electron integral symmetry is turned off.
 One-electron integrals computed using PRISM.
   1 Symmetry operations used in ECPInt.
 ECPInt:  NShTT=    3828 NPrTT=   11160 LenC2=    3810 LenP2D=    9473.
 LDataN:  DoStor=T MaxTD1= 6 Len=  172
 NBasis=   203 RedAO= T EigKep=  1.50D-04  NBF=   203
 NBsUse=   203 1.00D-06 EigRej= -1.00D+00 NBFU=   203
 The nuclear repulsion energy is now       165.3085683176 hartrees.
 Initial guess from the checkpoint file:  "checkpoint.chk"
 B after Tr=     0.000710   -0.001410    0.000693
         Rot=    0.999999    0.000336   -0.000642   -0.001241 Ang=   0.16 deg.
 Requested convergence on RMS density matrix=1.00D-08 within 128 cycles.
 Requested convergence on MAX density matrix=1.00D-06.
 Requested convergence on             energy=1.00D-06.
 No special actions if energy rises.
 SCF Done:  E(RB3LYP) =  -195.368845474     A.U. after    8 cycles
            NFock=  8  Conv=0.50D-08     -V/T= 2.0057
   1 Symmetry operations used in ECPInt.
 ECPInt:  NShTT=    3828 NPrTT=   11160 LenC2=    3810 LenP2D=    9473.
 LDataN:  DoStor=T MaxTD1= 7 Len=  274
 Calling FoFJK, ICntrl=      2127 FMM=F ISym2X=0 I1Cent= 0 IOpClX= 0 NMat=1 NMatS=1 NMatT=0.
 -------------------------------------------------------------------
 Center     Atomic                   Forces (Hartrees/Bohr)
 Number     Number              X              Y              Z
 -------------------------------------------------------------------
      1        6          -0.000354826   -0.000301876    0.000188057
      2        6           0.000211477    0.000117523   -0.000206017
      3        6           0.000126823    0.000011217   -0.000167723
      4        6           0.000084817    0.000046275    0.000001306
      5        1           0.000092783    0.000076025    0.000041718
      6        1          -0.000044578    0.000038055    0.000038217
      7        1          -0.000025983   -0.000001043   -0.000009498
      8        1          -0.000021221   -0.000007792   -0.000003798
      9        1          -0.000019210    0.000032689    0.000003121
     10        6           0.000197645   -0.000030770    0.000148159
     11        1          -0.000153854   -0.000015449    0.000022607
     12        1          -0.000108742    0.000003376   -0.000017666
     13        1           0.000014867    0.000031770   -0.000038483
 -------------------------------------------------------------------
 Cartesian Forces:  Max     0.000354826 RMS     0.000116801
 -----------------------------------------------------------------------------------------------
                       Internal Coordinate Forces (Hartree/Bohr or radian)
  Cent   Atom   N1       Length/X         N2         Alpha/Y        N3         Beta/Z          J
 -----------------------------------------------------------------------------------------------
      1  C 
      2  C        1  -0.000091(     1)
      3  C        1   0.000119(     2)      2   0.000192(    13)
      4  C        1  -0.000045(     3)      2   0.000152(    14)      3  -0.000073(    24)     0
      5  H        1  -0.000038(     4)      2  -0.000059(    15)      3   0.000221(    25)     0
      6  H        3  -0.000020(     5)      1  -0.000112(    16)      2  -0.000098(    26)     0
      7  H        3   0.000005(     6)      1  -0.000047(    17)      6  -0.000027(    27)     0
      8  H        4  -0.000002(     7)      1   0.000008(    18)      2   0.000048(    28)     0
      9  H        4   0.000001(     8)      1  -0.000077(    19)      8   0.000008(    29)     0
     10  C        2   0.000059(     9)      1   0.000205(    20)      3   0.000287(    30)     0
     11  H        2   0.000007(    10)      1   0.000045(    21)     10   0.000289(    31)     0
     12  H       10  -0.000003(    11)      2  -0.000046(    22)      1  -0.000218(    32)     0
     13  H       10  -0.000035(    12)      2  -0.000070(    23)     12  -0.000031(    33)     0
 -----------------------------------------------------------------------------------------------
 Internal  Forces:  Max     0.000288959 RMS     0.000116495

 GradGradGradGradGradGradGradGradGradGradGradGradGradGradGradGradGradGrad
 Berny optimization.
 Search for a local minimum.
 Step number   2 out of a maximum of   43
 All quantities printed in internal units (Hartrees-Bohrs-Radians)
 Update second derivatives using D2CorN and points    1    2
 DE= -5.91D-06 DEPred=-4.16D-06 R= 1.42D+00
 TightC=F SS=  1.41D+00  RLast= 1.07D-02 DXNew= 1.6818D-01 3.2143D-02
 Trust test= 1.42D+00 RLast= 1.07D-02 DXMaxT set to 1.00D-01
 ITU=  1  0
     Eigenvalues ---    0.00930   0.03712   0.05114   0.06091   0.06789
     Eigenvalues ---    0.10546   0.14267   0.14459   0.17120   0.18249
     Eigenvalues ---    0.19980   0.20958   0.22451   0.32780   0.34307
     Eigenvalues ---    0.35056   0.35385   0.35598   0.35694   0.35760
     Eigenvalues ---    0.35788   0.35813   0.35833   0.39460   0.43366
     Eigenvalues ---    0.46648   0.48065   0.48643   0.50537   0.59680
     Eigenvalues ---    0.67823   1.27150   2.38297
 RFO step:  Lambda=-7.24797485D-06 EMin= 9.29782104D-03
 Quartic linear search produced a step of  0.73108.
 Variable       Old X    -DE/DX   Delta X   Delta X   Delta X     New X
                                 (Linear)    (Quad)   (Total)
    R2        2.79836  -0.00009  -0.00096   0.00019  -0.00077   2.79759
    R3        2.86658   0.00012   0.00026   0.00104   0.00130   2.86789
    R4        2.83643  -0.00005  -0.00014   0.00043   0.00029   2.83671
    R5        2.04994  -0.00004  -0.00031   0.00000  -0.00030   2.04964
    R6        2.04522  -0.00002   0.00034  -0.00044  -0.00010   2.04512
    R7        2.04382   0.00001  -0.00028   0.00029   0.00001   2.04382
    R8        2.04378  -0.00000   0.00024  -0.00022   0.00002   2.04380
    R9        2.04340   0.00000  -0.00028   0.00026  -0.00002   2.04338
   R10        2.51253   0.00006   0.00069  -0.00042   0.00027   2.51281
   R11        2.05606   0.00001   0.00017  -0.00010   0.00007   2.05613
   R12        2.04724  -0.00000   0.00007  -0.00009  -0.00002   2.04722
   R13        2.04690  -0.00003   0.00065  -0.00082  -0.00017   2.04673
    A3        2.10005   0.00019  -0.00035   0.00062   0.00026   2.10031
    A4        2.14571   0.00015   0.00021  -0.00017   0.00003   2.14574
    A5        1.98246  -0.00006  -0.00020  -0.00013  -0.00033   1.98213
    A6        2.04224  -0.00011   0.00016  -0.00136  -0.00120   2.04105
    A7        2.06108  -0.00005  -0.00059   0.00042  -0.00017   2.06091
    A8        2.06621   0.00001   0.00018  -0.00020  -0.00002   2.06619
    A9        2.05381  -0.00008  -0.00049  -0.00035  -0.00084   2.05297
   A10        2.21652   0.00021   0.00104   0.00087   0.00190   2.21842
   A11        2.00050   0.00004  -0.00062  -0.00008  -0.00070   1.99980
   A12        2.13095  -0.00005  -0.00034   0.00039   0.00004   2.13099
   A13        2.11376  -0.00007  -0.00027  -0.00051  -0.00078   2.11298
    D4        1.24817  -0.00007  -0.00033  -0.00042  -0.00075   1.24742
    D5       -2.45462   0.00022  -0.00015  -0.00008  -0.00023  -2.45485
    D6        0.09072  -0.00010   0.00050  -0.00250  -0.00201   0.08871
    D7       -2.50932  -0.00003   0.00020   0.00111   0.00132  -2.50800
    D8       -0.01875   0.00005   0.00063   0.00053   0.00116  -0.01759
    D9        2.51199   0.00001  -0.00018  -0.00110  -0.00128   2.51071
   D10       -1.48657   0.00029   0.00677   0.01948   0.02625  -1.46032
   D11        3.13683   0.00029   0.00154  -0.00322  -0.00169   3.13515
   D12       -0.03041  -0.00022   0.00045  -0.00591  -0.00546  -0.03587
   D13       -3.12696  -0.00003   0.00268   0.00116   0.00385  -3.12312
         Item               Value     Threshold  Converged?
 Maximum Force            0.000289     0.000450     YES
 RMS     Force            0.000116     0.000300     YES
 Maximum Displacement     0.026251     0.001800     NO 
 RMS     Displacement     0.004785     0.001200     NO 
 Predicted change in Energy=-4.366265D-06
 GradGradGradGradGradGradGradGradGradGradGradGradGradGradGradGradGradGrad

 ---------------------------------------------------------------------------------------------------
                            Z-MATRIX (ANGSTROMS AND DEGREES)
   CD    Cent   Atom    N1       Length/X        N2       Alpha/Y        N3        Beta/Z          J
 ---------------------------------------------------------------------------------------------------
      1      1  C 
      2      2  C        1   1.480420(     1)
      3      3  C        1   1.517620(     2)      2  120.339(    13)
      4      4  C        1   1.501124(     3)      2  122.942(    14)      3   71.472(    24)      0
      5      5  H        1   1.084622(     4)      2  113.568(    15)      3 -140.652(    25)      0
      6      6  H        3   1.082230(     5)      1  116.943(    16)      2    5.083(    26)      0
      7      7  H        3   1.081545(     6)      1  118.081(    17)      6 -143.698(    27)      0
      8      8  H        4   1.081530(     7)      1  118.384(    18)      2   -1.008(    28)      0
      9      9  H        4   1.081308(     8)      1  117.626(    19)      8  143.853(    29)      0
     10     10  C        2   1.329719(     9)      1  127.106(    20)      3  -83.670(    30)      0
     11     11  H        2   1.088057(    10)      1  114.580(    21)     10  179.631(    31)      0
     12     12  H       10   1.083340(    11)      2  122.097(    22)      1   -2.055(    32)      0
     13     13  H       10   1.083083(    12)      2  121.065(    23)     12 -178.941(    33)      0
 ---------------------------------------------------------------------------------------------------
                         Z-Matrix orientation:                         
 ---------------------------------------------------------------------
 Center     Atomic      Atomic             Coordinates (Angstroms)
 Number     Number       Type             X           Y           Z
 ---------------------------------------------------------------------
      1          6           0        0.000000    0.000000    0.000000
      2          6           0        0.000000    0.000000    1.480420
      3          6           0        1.309787    0.000000   -0.766569
      4          6           0        0.400315   -1.194481   -0.816295
      5          1           0       -0.768791    0.630314   -0.433670
      6          1           0        2.218398   -0.085476   -0.184898
      7          1           0        1.387543    0.630856   -1.641621
      8          1           0        0.717685   -2.088798   -0.297468
      9          1           0       -0.146544   -1.383636   -1.729746
     10          6           0        0.116924   -1.054009    2.282634
     11          1           0       -0.102752    0.984108    1.933014
     12          1           0        0.195832   -2.063866    1.898460
     13          1           0        0.120406   -0.939021    3.359589
 ---------------------------------------------------------------------
                    Distance matrix (angstroms):
                    1          2          3          4          5
     1  C    0.000000
     2  C    1.480420   0.000000
     3  C    1.517620   2.600866   0.000000
     4  C    1.501124   2.619530   1.502131   0.000000
     5  H    1.084622   2.156867   2.197408   2.200701   0.000000
     6  H    2.227730   2.775226   1.082230   2.221257   3.081807
     7  H    2.240128   3.474247   1.081545   2.233303   2.471623
     8  H    2.228595   2.835319   2.221197   1.081530   3.101891
     9  H    2.219898   3.498727   2.227792   1.081308   2.474470
    10  C    2.516947   1.329719   3.439694   3.115028   3.316585
    11  H    2.171536   1.088057   3.201794   3.543731   2.483943
    12  H    2.811057   2.114864   3.550045   2.857890   3.691603
    13  H    3.490429   2.104171   4.395631   4.193044   4.200273
                    6          7          8          9         10
     6  H    0.000000
     7  H    1.823593   0.000000
     8  H    2.505616   3.106763   0.000000
     9  H    3.108814   2.533647   1.815369   0.000000
    10  C    3.382744   4.455672   2.844051   4.034509   0.000000
    11  H    3.319231   3.888931   3.884703   4.361645   2.079522
    12  H    3.513571   4.605852   2.257223   3.707265   1.083340
    13  H    4.206364   5.392796   3.879794   5.115690   1.083083
                   11         12         13
    11  H    0.000000
    12  H    3.062758   0.000000
    13  H    2.404857   1.845498   0.000000
 Symmetry turned off by external request.
 Stoichiometry    C5H8
 Framework group  C1[X(C5H8)]
 Deg. of freedom    33
 Full point group                 C1      NOp   1
 Rotational constants (GHZ):          11.6257966           3.6624315           3.3241798
 Standard basis: def2TZVP (5D, 7F)
 The following finite field(s) will be applied:
 An electric field of              0.0024 -0.0013  0.0042
   203 basis functions,   319 primitive gaussians,   228 cartesian basis functions
    19 alpha electrons       19 beta electrons
       nuclear repulsion energy       165.0948834975 Hartrees.
 NAtoms=   13 NActive=   13 NUniq=   13 SFac= 1.00D+00 NAtFMM=   60 NAOKFM=F Big=F
 Integral buffers will be    131072 words long.
 Raffenetti 2 integral format.
 Two-electron integral symmetry is turned off.
 One-electron integrals computed using PRISM.
   1 Symmetry operations used in ECPInt.
 ECPInt:  NShTT=    3828 NPrTT=   11160 LenC2=    3810 LenP2D=    9476.
 LDataN:  DoStor=T MaxTD1= 6 Len=  172
 NBasis=   203 RedAO= T EigKep=  1.49D-04  NBF=   203
 NBsUse=   203 1.00D-06 EigRej= -1.00D+00 NBFU=   203
 The nuclear repulsion energy is now       165.3304753978 hartrees.
 Initial guess from the checkpoint file:  "checkpoint.chk"
 B after Tr=     0.001567   -0.004535    0.001879
         Rot=    0.999991    0.000980   -0.002289   -0.003381 Ang=   0.48 deg.
 ExpMin= 9.52D-02 ExpMax= 1.36D+04 ExpMxC= 4.63D+02 IAcc=2 IRadAn=         4 AccDes= 0.00D+00
 Harris functional with IExCor=  402 and IRadAn=       4 diagonalized for initial guess.
 HarFok:  IExCor=  402 AccDes= 0.00D+00 IRadAn=         4 IDoV= 1 UseB2=F ITyADJ=14
 ICtDFT=  3500011 ScaDFX=  1.000000  1.000000  1.000000  1.000000
 FoFCou: FMM=F IPFlag=           0 FMFlag=      100000 FMFlg1=           0
         NFxFlg=           0 DoJE=T BraDBF=F KetDBF=T FulRan=T
         wScrn=  0.000000 ICntrl=       500 IOpCl=  0 I1Cent=   200000004 NGrid=           0
         NMat0=    1 NMatS0=      1 NMatT0=    0 NMatD0=    1 NMtDS0=    0 NMtDT0=    0
 Symmetry not used in FoFCou.
 Requested convergence on RMS density matrix=1.00D-08 within 128 cycles.
 Requested convergence on MAX density matrix=1.00D-06.
 Requested convergence on             energy=1.00D-06.
 No special actions if energy rises.
 Integral accuracy reduced to 1.0D-05 until final iterations.
 Initial convergence to 1.0D-05 achieved.  Increase integral accuracy.
 SCF Done:  E(RB3LYP) =  -195.368851096     A.U. after    9 cycles
            NFock=  9  Conv=0.78D-08     -V/T= 2.0056
   1 Symmetry operations used in ECPInt.
 ECPInt:  NShTT=    3828 NPrTT=   11160 LenC2=    3810 LenP2D=    9476.
 LDataN:  DoStor=T MaxTD1= 7 Len=  274
 Calling FoFJK, ICntrl=      2127 FMM=F ISym2X=0 I1Cent= 0 IOpClX= 0 NMat=1 NMatS=1 NMatT=0.
 -------------------------------------------------------------------
 Center     Atomic                   Forces (Hartrees/Bohr)
 Number     Number              X              Y              Z
 -------------------------------------------------------------------
      1        6          -0.000387544   -0.000379347    0.000071182
      2        6           0.000331747    0.000275333    0.000040976
      3        6           0.000049357    0.000086860   -0.000080090
      4        6           0.000087142    0.000020814    0.000002656
      5        1           0.000060977    0.000043808   -0.000032224
      6        1          -0.000015533    0.000000699    0.000012385
      7        1          -0.000021270    0.000034274    0.000016323
      8        1          -0.000025638   -0.000000750   -0.000019886
      9        1          -0.000018142    0.000000691   -0.000002461
     10        6          -0.000095373   -0.000002935   -0.000039560
     11        1          -0.000039773   -0.000027560   -0.000013448
     12        1           0.000038601   -0.000021571    0.000052416
     13        1           0.000035449   -0.000030319   -0.000008268
 -------------------------------------------------------------------
 Cartesian Forces:  Max     0.000387544 RMS     0.000117847
 -----------------------------------------------------------------------------------------------
                       Internal Coordinate Forces (Hartree/Bohr or radian)
  Cent   Atom   N1       Length/X         N2         Alpha/Y        N3         Beta/Z          J
 -----------------------------------------------------------------------------------------------
      1  C 
      2  C        1   0.000032(     1)
      3  C        1   0.000037(     2)      2   0.000103(    13)
      4  C        1   0.000006(     3)      2   0.000095(    14)      3  -0.000063(    24)     0
      5  H        1  -0.000005(     4)      2   0.000076(    15)      3   0.000136(    25)     0
      6  H        3  -0.000006(     5)      1  -0.000038(    16)      2   0.000049(    26)     0
      7  H        3   0.000005(     6)      1  -0.000067(    17)      6   0.000050(    27)     0
      8  H        4  -0.000016(     7)      1   0.000029(    18)      2   0.000025(    28)     0
      9  H        4   0.000011(     8)      1  -0.000021(    19)      8  -0.000018(    29)     0
     10  C        2   0.000044(     9)      1  -0.000018(    20)      3   0.000087(    30)     0
     11  H        2  -0.000027(    10)      1  -0.000005(    21)     10   0.000079(    31)     0
     12  H       10   0.000004(    11)      2   0.000120(    22)      1   0.000004(    32)     0
     13  H       10  -0.000011(    12)      2   0.000067(    23)     12  -0.000057(    33)     0
 -----------------------------------------------------------------------------------------------
 Internal  Forces:  Max     0.000136275 RMS     0.000056007

 GradGradGradGradGradGradGradGradGradGradGradGradGradGradGradGradGradGrad
 Berny optimization.
 Search for a local minimum.
 Step number   3 out of a maximum of   43
 All quantities printed in internal units (Hartrees-Bohrs-Radians)
 Update second derivatives using D2CorN and points    1    2    3
 DE= -5.62D-06 DEPred=-4.37D-06 R= 1.29D+00
 TightC=F SS=  1.41D+00  RLast= 2.75D-02 DXNew= 1.6818D-01 8.2463D-02
 Trust test= 1.29D+00 RLast= 2.75D-02 DXMaxT set to 1.00D-01
 ITU=  1  1  0
     Eigenvalues ---    0.00787   0.03722   0.05108   0.06079   0.06787
     Eigenvalues ---    0.10492   0.14262   0.14450   0.17122   0.18242
     Eigenvalues ---    0.19980   0.20891   0.22443   0.32774   0.34308
     Eigenvalues ---    0.35056   0.35384   0.35598   0.35696   0.35761
     Eigenvalues ---    0.35789   0.35814   0.35835   0.39462   0.43362
     Eigenvalues ---    0.46656   0.48066   0.48640   0.50531   0.59676
     Eigenvalues ---    0.67821   1.27150   2.38293
 RFO step:  Lambda=-6.94277361D-07 EMin= 7.87306647D-03
 Quartic linear search produced a step of  0.27743.
 Variable       Old X    -DE/DX   Delta X   Delta X   Delta X     New X
                                 (Linear)    (Quad)   (Total)
    R2        2.79759   0.00003  -0.00021   0.00017  -0.00005   2.79754
    R3        2.86789   0.00004   0.00036   0.00013   0.00049   2.86838
    R4        2.83671   0.00001   0.00008   0.00011   0.00019   2.83691
    R5        2.04964  -0.00000  -0.00008   0.00000  -0.00008   2.04955
    R6        2.04512  -0.00001  -0.00003  -0.00001  -0.00004   2.04508
    R7        2.04382   0.00001   0.00000   0.00001   0.00002   2.04384
    R8        2.04380  -0.00002   0.00000  -0.00006  -0.00005   2.04374
    R9        2.04338   0.00001  -0.00001   0.00004   0.00003   2.04341
   R10        2.51281   0.00004   0.00008   0.00008   0.00015   2.51296
   R11        2.05613  -0.00003   0.00002  -0.00010  -0.00008   2.05604
   R12        2.04722   0.00000  -0.00001   0.00002   0.00001   2.04723
   R13        2.04673  -0.00001  -0.00005  -0.00002  -0.00006   2.04666
    A3        2.10031   0.00010   0.00007  -0.00023  -0.00015   2.10016
    A4        2.14574   0.00010   0.00001   0.00048   0.00049   2.14623
    A5        1.98213   0.00008  -0.00009   0.00016   0.00007   1.98220
    A6        2.04105  -0.00004  -0.00033  -0.00000  -0.00034   2.04071
    A7        2.06091  -0.00007  -0.00005  -0.00040  -0.00045   2.06046
    A8        2.06619   0.00003  -0.00001   0.00010   0.00010   2.06629
    A9        2.05297  -0.00002  -0.00023  -0.00018  -0.00041   2.05256
   A10        2.21842  -0.00002   0.00053  -0.00016   0.00037   2.21879
   A11        1.99980  -0.00001  -0.00019   0.00003  -0.00017   1.99963
   A12        2.13099   0.00012   0.00001   0.00050   0.00051   2.13150
   A13        2.11298   0.00007  -0.00022   0.00008  -0.00013   2.11285
    D4        1.24742  -0.00006  -0.00021  -0.00003  -0.00024   1.24718
    D5       -2.45485   0.00014  -0.00006   0.00093   0.00087  -2.45398
    D6        0.08871   0.00005  -0.00056   0.00076   0.00021   0.08892
    D7       -2.50800   0.00005   0.00036   0.00047   0.00084  -2.50716
    D8       -0.01759   0.00003   0.00032   0.00077   0.00109  -0.01650
    D9        2.51071  -0.00002  -0.00036  -0.00040  -0.00076   2.50995
   D10       -1.46032   0.00009   0.00728   0.00185   0.00913  -1.45118
   D11        3.13515   0.00008  -0.00047   0.00026  -0.00021   3.13494
   D12       -0.03587   0.00000  -0.00152   0.00151  -0.00000  -0.03588
   D13       -3.12312  -0.00006   0.00107  -0.00149  -0.00043  -3.12354
         Item               Value     Threshold  Converged?
 Maximum Force            0.000136     0.000450     YES
 RMS     Force            0.000056     0.000300     YES
 Maximum Displacement     0.009132     0.001800     NO 
 RMS     Displacement     0.001637     0.001200     NO 
 Predicted change in Energy=-5.712309D-07
 GradGradGradGradGradGradGradGradGradGradGradGradGradGradGradGradGradGrad

 ---------------------------------------------------------------------------------------------------
                            Z-MATRIX (ANGSTROMS AND DEGREES)
   CD    Cent   Atom    N1       Length/X        N2       Alpha/Y        N3        Beta/Z          J
 ---------------------------------------------------------------------------------------------------
      1      1  C 
      2      2  C        1   1.480395(     1)
      3      3  C        1   1.517880(     2)      2  120.330(    13)
      4      4  C        1   1.501227(     3)      2  122.970(    14)      3   71.458(    24)      0
      5      5  H        1   1.084578(     4)      2  113.572(    15)      3 -140.603(    25)      0
      6      6  H        3   1.082210(     5)      1  116.924(    16)      2    5.095(    26)      0
      7      7  H        3   1.081553(     6)      1  118.056(    17)      6 -143.650(    27)      0
      8      8  H        4   1.081502(     7)      1  118.389(    18)      2   -0.946(    28)      0
      9      9  H        4   1.081326(     8)      1  117.603(    19)      8  143.810(    29)      0
     10     10  C        2   1.329801(     9)      1  127.127(    20)      3  -83.147(    30)      0
     11     11  H        2   1.088012(    10)      1  114.571(    21)     10  179.619(    31)      0
     12     12  H       10   1.083345(    11)      2  122.126(    22)      1   -2.056(    32)      0
     13     13  H       10   1.083048(    12)      2  121.057(    23)     12 -178.966(    33)      0
 ---------------------------------------------------------------------------------------------------
                         Z-Matrix orientation:                         
 ---------------------------------------------------------------------
 Center     Atomic      Atomic             Coordinates (Angstroms)
 Number     Number       Type             X           Y           Z
 ---------------------------------------------------------------------
      1          6           0        0.000000    0.000000    0.000000
      2          6           0        0.000000    0.000000    1.480395
      3          6           0        1.310129    0.000000   -0.766500
      4          6           0        0.400505   -1.194087   -0.816967
      5          1           0       -0.768188    0.630938   -0.433721
      6          1           0        2.218428   -0.085687   -0.184410
      7          1           0        1.387901    0.631759   -1.640908
      8          1           0        0.717203   -2.088931   -0.298698
      9          1           0       -0.146503   -1.382417   -1.730520
     10          6           0        0.126517   -1.052668    2.283049
     11          1           0       -0.111534    0.983187    1.932805
     12          1           0        0.214693   -2.062100    1.899763
     13          1           0        0.129280   -0.937074    3.359908
 ---------------------------------------------------------------------
                    Distance matrix (angstroms):
                    1          2          3          4          5
     1  C    0.000000
     2  C    1.480395   0.000000
     3  C    1.517880   2.600957   0.000000
     4  C    1.501227   2.619947   1.501934   0.000000
     5  H    1.084578   2.156858   2.197322   2.200780   0.000000
     6  H    2.227728   2.774949   1.082210   2.221154   3.081490
     7  H    2.240082   3.473892   1.081553   2.233281   2.471036
     8  H    2.228729   2.836051   2.221268   1.081502   3.101984
     9  H    2.219739   3.498931   2.227597   1.081326   2.474223
    10  C    2.517227   1.329801   3.436393   3.115312   3.319016
    11  H    2.171366   1.088012   3.205312   3.544566   2.481072
    12  H    2.812019   2.115235   3.544178   2.858076   3.696438
    13  H    3.490530   2.104136   4.393148   4.193555   4.201872
                    6          7          8          9         10
     6  H    0.000000
     7  H    1.823703   0.000000
     8  H    2.505938   3.107011   0.000000
     9  H    3.108837   2.533640   1.815286   0.000000
    10  C    3.376314   4.452620   2.843971   4.036337   0.000000
    11  H    3.324727   3.891430   3.886427   4.360878   2.079433
    12  H    3.502134   4.601049   2.255320   3.710982   1.083345
    13  H    4.201379   5.390132   3.880441   5.117308   1.083048
                   11         12         13
    11  H    0.000000
    12  H    3.062889   0.000000
    13  H    2.404582   1.845265   0.000000
 Symmetry turned off by external request.
 Stoichiometry    C5H8
 Framework group  C1[X(C5H8)]
 Deg. of freedom    33
 Full point group                 C1      NOp   1
 Rotational constants (GHZ):          11.6146155           3.6626829           3.3269239
 Standard basis: def2TZVP (5D, 7F)
 The following finite field(s) will be applied:
 An electric field of              0.0024 -0.0013  0.0042
   203 basis functions,   319 primitive gaussians,   228 cartesian basis functions
    19 alpha electrons       19 beta electrons
       nuclear repulsion energy       165.0975613052 Hartrees.
 NAtoms=   13 NActive=   13 NUniq=   13 SFac= 1.00D+00 NAtFMM=   60 NAOKFM=F Big=F
 Integral buffers will be    131072 words long.
 Raffenetti 2 integral format.
 Two-electron integral symmetry is turned off.
 One-electron integrals computed using PRISM.
   1 Symmetry operations used in ECPInt.
 ECPInt:  NShTT=    3828 NPrTT=   11160 LenC2=    3810 LenP2D=    9476.
 LDataN:  DoStor=T MaxTD1= 6 Len=  172
 NBasis=   203 RedAO= T EigKep=  1.49D-04  NBF=   203
 NBsUse=   203 1.00D-06 EigRej= -1.00D+00 NBFU=   203
 The nuclear repulsion energy is now       165.3334677785 hartrees.
 Initial guess from the checkpoint file:  "checkpoint.chk"
 B after Tr=     0.000792   -0.001186    0.000706
         Rot=    0.999999    0.000225   -0.000784   -0.001104 Ang=   0.16 deg.
 Requested convergence on RMS density matrix=1.00D-08 within 128 cycles.
 Requested convergence on MAX density matrix=1.00D-06.
 Requested convergence on             energy=1.00D-06.
 No special actions if energy rises.
 SCF Done:  E(RB3LYP) =  -195.368851824     A.U. after    7 cycles
            NFock=  7  Conv=0.95D-08     -V/T= 2.0057
   1 Symmetry operations used in ECPInt.
 ECPInt:  NShTT=    3828 NPrTT=   11160 LenC2=    3810 LenP2D=    9476.
 LDataN:  DoStor=T MaxTD1= 7 Len=  274
 Calling FoFJK, ICntrl=      2127 FMM=F ISym2X=0 I1Cent= 0 IOpClX= 0 NMat=1 NMatS=1 NMatT=0.
 -------------------------------------------------------------------
 Center     Atomic                   Forces (Hartrees/Bohr)
 Number     Number              X              Y              Z
 -------------------------------------------------------------------
      1        6          -0.000315560   -0.000337916    0.000078188
      2        6           0.000300251    0.000165990    0.000027898
      3        6           0.000025408    0.000125081   -0.000057899
      4        6           0.000035002    0.000052222   -0.000006678
      5        1           0.000033980    0.000011972   -0.000025743
      6        1          -0.000007372    0.000005171    0.000010091
      7        1           0.000000678    0.000002681    0.000001231
      8        1          -0.000004170   -0.000006529   -0.000004014
      9        1          -0.000014667   -0.000003412    0.000005661
     10        6          -0.000089479    0.000024809   -0.000052125
     11        1          -0.000022507   -0.000015307   -0.000011520
     12        1           0.000019243   -0.000008778    0.000023205
     13        1           0.000039192   -0.000015985    0.000011704
 -------------------------------------------------------------------
 Cartesian Forces:  Max     0.000337916 RMS     0.000098660
 -----------------------------------------------------------------------------------------------
                       Internal Coordinate Forces (Hartree/Bohr or radian)
  Cent   Atom   N1       Length/X         N2         Alpha/Y        N3         Beta/Z          J
 -----------------------------------------------------------------------------------------------
      1  C 
      2  C        1  -0.000001(     1)
      3  C        1   0.000040(     2)      2   0.000061(    13)
      4  C        1  -0.000027(     3)      2   0.000080(    14)      3  -0.000056(    24)     0
      5  H        1  -0.000007(     4)      2   0.000064(    15)      3   0.000058(    25)     0
      6  H        3  -0.000001(     5)      1  -0.000025(    16)      2  -0.000005(    26)     0
      7  H        3   0.000001(     6)      1  -0.000001(    17)      6   0.000005(    27)     0
      8  H        4   0.000002(     7)      1   0.000012(    18)      2  -0.000015(    28)     0
      9  H        4   0.000003(     8)      1  -0.000013(    19)      8  -0.000026(    29)     0
     10  C        2  -0.000013(     9)      1  -0.000021(    20)      3   0.000010(    30)     0
     11  H        2  -0.000016(    10)      1  -0.000011(    21)     10   0.000045(    31)     0
     12  H       10   0.000002(    11)      2   0.000053(    22)      1  -0.000034(    32)     0
     13  H       10   0.000010(    12)      2   0.000044(    23)     12  -0.000065(    33)     0
 -----------------------------------------------------------------------------------------------
 Internal  Forces:  Max     0.000080305 RMS     0.000034092

 GradGradGradGradGradGradGradGradGradGradGradGradGradGradGradGradGradGrad
 Berny optimization.
 Search for a local minimum.
 Step number   4 out of a maximum of   43
 All quantities printed in internal units (Hartrees-Bohrs-Radians)
 Update second derivatives using D2CorN and points    1    2    3    4
 DE= -7.28D-07 DEPred=-5.71D-07 R= 1.27D+00
 Trust test= 1.27D+00 RLast= 9.41D-03 DXMaxT set to 1.00D-01
 ITU=  0  1  1  0
     Eigenvalues ---    0.00737   0.03694   0.05084   0.06076   0.06805
     Eigenvalues ---    0.10444   0.14259   0.14441   0.17124   0.18241
     Eigenvalues ---    0.19980   0.20857   0.22439   0.32770   0.34307
     Eigenvalues ---    0.35055   0.35384   0.35598   0.35697   0.35761
     Eigenvalues ---    0.35789   0.35814   0.35835   0.39453   0.43360
     Eigenvalues ---    0.46642   0.48063   0.48640   0.50531   0.59676
     Eigenvalues ---    0.67815   1.27151   2.38288
 RFO step:  Lambda=-1.07437905D-07 EMin= 7.37287934D-03
 Quartic linear search produced a step of  0.27430.
 Variable       Old X    -DE/DX   Delta X   Delta X   Delta X     New X
                                 (Linear)    (Quad)   (Total)
    R2        2.79754  -0.00000  -0.00001  -0.00002  -0.00003   2.79751
    R3        2.86838   0.00004   0.00013   0.00011   0.00024   2.86862
    R4        2.83691  -0.00003   0.00005  -0.00006  -0.00001   2.83690
    R5        2.04955  -0.00001  -0.00002  -0.00001  -0.00004   2.04952
    R6        2.04508  -0.00000  -0.00001   0.00000  -0.00001   2.04507
    R7        2.04384   0.00000   0.00000  -0.00000   0.00000   2.04384
    R8        2.04374   0.00000  -0.00001   0.00002   0.00001   2.04375
    R9        2.04341   0.00000   0.00001   0.00000   0.00001   2.04342
   R10        2.51296  -0.00001   0.00004  -0.00005  -0.00001   2.51295
   R11        2.05604  -0.00002  -0.00002  -0.00004  -0.00006   2.05599
   R12        2.04723   0.00000   0.00000   0.00000   0.00001   2.04723
   R13        2.04666   0.00001  -0.00002   0.00005   0.00003   2.04670
    A3        2.10016   0.00006  -0.00004   0.00007   0.00003   2.10019
    A4        2.14623   0.00008   0.00013   0.00006   0.00019   2.14642
    A5        1.98220   0.00006   0.00002   0.00010   0.00012   1.98232
    A6        2.04071  -0.00003  -0.00009  -0.00009  -0.00018   2.04053
    A7        2.06046  -0.00000  -0.00012   0.00011  -0.00001   2.06045
    A8        2.06629   0.00001   0.00003   0.00001   0.00003   2.06632
    A9        2.05256  -0.00001  -0.00011  -0.00006  -0.00018   2.05238
   A10        2.21879  -0.00002   0.00010  -0.00008   0.00002   2.21881
   A11        1.99963  -0.00001  -0.00005  -0.00000  -0.00005   1.99958
   A12        2.13150   0.00005   0.00014   0.00005   0.00019   2.13169
   A13        2.11285   0.00004  -0.00004   0.00010   0.00007   2.11292
    D4        1.24718  -0.00006  -0.00007   0.00003  -0.00004   1.24714
    D5       -2.45398   0.00006   0.00024   0.00018   0.00042  -2.45356
    D6        0.08892  -0.00000   0.00006  -0.00005   0.00001   0.08893
    D7       -2.50716   0.00001   0.00023  -0.00001   0.00022  -2.50694
    D8       -0.01650  -0.00002   0.00030  -0.00006   0.00024  -0.01626
    D9        2.50995  -0.00003  -0.00021  -0.00017  -0.00037   2.50958
   D10       -1.45118   0.00001   0.00250  -0.00065   0.00186  -1.44933
   D11        3.13494   0.00005  -0.00006   0.00010   0.00005   3.13498
   D12       -0.03588  -0.00003  -0.00000   0.00002   0.00002  -0.03585
   D13       -3.12354  -0.00006  -0.00012  -0.00074  -0.00085  -3.12439
         Item               Value     Threshold  Converged?
 Maximum Force            0.000080     0.000450     YES
 RMS     Force            0.000034     0.000300     YES
 Maximum Displacement     0.001858     0.001800     NO 
 RMS     Displacement     0.000383     0.001200     YES
 Predicted change in Energy=-7.641248D-08
 GradGradGradGradGradGradGradGradGradGradGradGradGradGradGradGradGradGrad

 ---------------------------------------------------------------------------------------------------
                            Z-MATRIX (ANGSTROMS AND DEGREES)
   CD    Cent   Atom    N1       Length/X        N2       Alpha/Y        N3        Beta/Z          J
 ---------------------------------------------------------------------------------------------------
      1      1  C 
      2      2  C        1   1.480379(     1)
      3      3  C        1   1.518008(     2)      2  120.332(    13)
      4      4  C        1   1.501223(     3)      2  122.981(    14)      3   71.456(    24)      0
      5      5  H        1   1.084558(     4)      2  113.578(    15)      3 -140.579(    25)      0
      6      6  H        3   1.082206(     5)      1  116.914(    16)      2    5.095(    26)      0
      7      7  H        3   1.081554(     6)      1  118.055(    17)      6 -143.637(    27)      0
      8      8  H        4   1.081506(     7)      1  118.391(    18)      2   -0.932(    28)      0
      9      9  H        4   1.081331(     8)      1  117.593(    19)      8  143.788(    29)      0
     10     10  C        2   1.329795(     9)      1  127.128(    20)      3  -83.040(    30)      0
     11     11  H        2   1.087981(    10)      1  114.568(    21)     10  179.621(    31)      0
     12     12  H       10   1.083348(    11)      2  122.137(    22)      1   -2.054(    32)      0
     13     13  H       10   1.083065(    12)      2  121.061(    23)     12 -179.015(    33)      0
 ---------------------------------------------------------------------------------------------------
                         Z-Matrix orientation:                         
 ---------------------------------------------------------------------
 Center     Atomic      Atomic             Coordinates (Angstroms)
 Number     Number       Type             X           Y           Z
 ---------------------------------------------------------------------
      1          6           0        0.000000    0.000000    0.000000
      2          6           0        0.000000    0.000000    1.480379
      3          6           0        1.310215    0.000000   -0.766605
      4          6           0        0.400500   -1.193918   -0.817208
      5          1           0       -0.767870    0.631217   -0.433828
      6          1           0        2.218423   -0.085700   -0.184382
      7          1           0        1.388017    0.631924   -1.640892
      8          1           0        0.717055   -2.088940   -0.299151
      9          1           0       -0.146751   -1.382022   -1.730669
     10          6           0        0.128470   -1.052412    2.283048
     11          1           0       -0.113404    0.982966    1.932726
     12          1           0        0.218556   -2.061758    1.899970
     13          1           0        0.131789   -0.936779    3.359917
 ---------------------------------------------------------------------
                    Distance matrix (angstroms):
                    1          2          3          4          5
     1  C    0.000000
     2  C    1.480379   0.000000
     3  C    1.518008   2.601077   0.000000
     4  C    1.501223   2.620066   1.501860   0.000000
     5  H    1.084558   2.156907   2.197183   2.200723   0.000000
     6  H    2.227722   2.774919   1.082206   2.221140   3.081256
     7  H    2.240189   3.473938   1.081554   2.233236   2.470799
     8  H    2.228751   2.836294   2.221266   1.081506   3.101998
     9  H    2.219625   3.498907   2.227589   1.081331   2.474007
    10  C    2.517217   1.329795   3.435764   3.115383   3.319555
    11  H    2.171293   1.087981   3.206136   3.544724   2.480451
    12  H    2.812206   2.115342   3.543048   2.858201   3.697535
    13  H    3.490554   2.104184   4.392543   4.193650   4.202440
                    6          7          8          9         10
     6  H    0.000000
     7  H    1.823728   0.000000
     8  H    2.506043   3.107018   0.000000
     9  H    3.108940   2.533683   1.815252   0.000000
    10  C    3.375003   4.452050   2.844042   4.036622   0.000000
    11  H    3.325901   3.892074   3.886843   4.360590   2.079422
    12  H    3.499828   4.600138   2.255077   3.711743   1.083348
    13  H    4.200052   5.389530   3.880566   5.117606   1.083065
                   11         12         13
    11  H    0.000000
    12  H    3.062943   0.000000
    13  H    2.404666   1.845142   0.000000
 Symmetry turned off by external request.
 Stoichiometry    C5H8
 Framework group  C1[X(C5H8)]
 Deg. of freedom    33
 Full point group                 C1      NOp   1
 Rotational constants (GHZ):          11.6124917           3.6626494           3.3274607
 Standard basis: def2TZVP (5D, 7F)
 The following finite field(s) will be applied:
 An electric field of              0.0024 -0.0013  0.0042
   203 basis functions,   319 primitive gaussians,   228 cartesian basis functions
    19 alpha electrons       19 beta electrons
       nuclear repulsion energy       165.0979453393 Hartrees.
 NAtoms=   13 NActive=   13 NUniq=   13 SFac= 1.00D+00 NAtFMM=   60 NAOKFM=F Big=F
 Integral buffers will be    131072 words long.
 Raffenetti 2 integral format.
 Two-electron integral symmetry is turned off.
 One-electron integrals computed using PRISM.
   1 Symmetry operations used in ECPInt.
 ECPInt:  NShTT=    3828 NPrTT=   11160 LenC2=    3810 LenP2D=    9476.
 LDataN:  DoStor=T MaxTD1= 6 Len=  172
 NBasis=   203 RedAO= T EigKep=  1.49D-04  NBF=   203
 NBsUse=   203 1.00D-06 EigRej= -1.00D+00 NBFU=   203
 The nuclear repulsion energy is now       165.3338956962 hartrees.
 Initial guess from the checkpoint file:  "checkpoint.chk"
 B after Tr=     0.000176   -0.000166    0.000073
         Rot=    1.000000    0.000031   -0.000180   -0.000209 Ang=   0.03 deg.
 Requested convergence on RMS density matrix=1.00D-08 within 128 cycles.
 Requested convergence on MAX density matrix=1.00D-06.
 Requested convergence on             energy=1.00D-06.
 No special actions if energy rises.
 SCF Done:  E(RB3LYP) =  -195.368851927     A.U. after    7 cycles
            NFock=  7  Conv=0.23D-08     -V/T= 2.0057
   1 Symmetry operations used in ECPInt.
 ECPInt:  NShTT=    3828 NPrTT=   11160 LenC2=    3810 LenP2D=    9476.
 LDataN:  DoStor=T MaxTD1= 7 Len=  274
 Calling FoFJK, ICntrl=      2127 FMM=F ISym2X=0 I1Cent= 0 IOpClX= 0 NMat=1 NMatS=1 NMatT=0.
 -------------------------------------------------------------------
 Center     Atomic                   Forces (Hartrees/Bohr)
 Number     Number              X              Y              Z
 -------------------------------------------------------------------
      1        6          -0.000288636   -0.000302074    0.000047646
      2        6           0.000285817    0.000146913   -0.000003834
      3        6           0.000013109    0.000134051   -0.000028595
      4        6           0.000013989    0.000028100   -0.000000969
      5        1           0.000009568    0.000002050   -0.000015599
      6        1          -0.000001890   -0.000003918    0.000002201
      7        1          -0.000000618    0.000004681    0.000004360
      8        1          -0.000002578   -0.000002961   -0.000000895
      9        1          -0.000002670   -0.000003186    0.000000818
     10        6          -0.000041671    0.000004967   -0.000010936
     11        1          -0.000006676   -0.000001629   -0.000000711
     12        1           0.000013956   -0.000001844    0.000004856
     13        1           0.000008300   -0.000005150    0.000001657
 -------------------------------------------------------------------
 Cartesian Forces:  Max     0.000302074 RMS     0.000088107
 -----------------------------------------------------------------------------------------------
                       Internal Coordinate Forces (Hartree/Bohr or radian)
  Cent   Atom   N1       Length/X         N2         Alpha/Y        N3         Beta/Z          J
 -----------------------------------------------------------------------------------------------
      1  C 
      2  C        1  -0.000009(     1)
      3  C        1   0.000020(     2)      2   0.000034(    13)
      4  C        1  -0.000015(     3)      2   0.000030(    14)      3  -0.000033(    24)     0
      5  H        1   0.000001(     4)      2   0.000034(    15)      3   0.000014(    25)     0
      6  H        3  -0.000000(     5)      1  -0.000006(    16)      2   0.000017(    26)     0
      7  H        3  -0.000001(     6)      1  -0.000005(    17)      6   0.000010(    27)     0
      8  H        4   0.000001(     7)      1   0.000004(    18)      2  -0.000001(    28)     0
      9  H        4   0.000001(     8)      1   0.000002(    19)      8  -0.000007(    29)     0
     10  C        2  -0.000003(     9)      1  -0.000009(    20)      3  -0.000002(    30)     0
     11  H        2  -0.000001(    10)      1  -0.000001(    21)     10   0.000013(    31)     0
     12  H       10   0.000001(    11)      2   0.000012(    22)      1   0.000010(    32)     0
     13  H       10   0.000001(    12)      2   0.000013(    23)     12  -0.000013(    33)     0
 -----------------------------------------------------------------------------------------------
 Internal  Forces:  Max     0.000034294 RMS     0.000014148

 GradGradGradGradGradGradGradGradGradGradGradGradGradGradGradGradGradGrad
 Berny optimization.
 Search for a local minimum.
 Step number   5 out of a maximum of   43
 All quantities printed in internal units (Hartrees-Bohrs-Radians)
 Update second derivatives using D2CorN and points    1    2    3    4    5

 DE= -1.03D-07 DEPred=-7.64D-08 R= 1.35D+00
 Trust test= 1.35D+00 RLast= 2.20D-03 DXMaxT set to 1.00D-01
 ITU=  0  0  1  1  0
     Eigenvalues ---    0.00830   0.03443   0.04991   0.06074   0.06798
     Eigenvalues ---    0.10346   0.14257   0.14411   0.17127   0.18242
     Eigenvalues ---    0.19981   0.20692   0.22433   0.32743   0.34308
     Eigenvalues ---    0.35051   0.35384   0.35598   0.35697   0.35761
     Eigenvalues ---    0.35790   0.35814   0.35835   0.39337   0.43314
     Eigenvalues ---    0.46548   0.48051   0.48627   0.50524   0.59675
     Eigenvalues ---    0.67774   1.27151   2.38242
 RFO step:  Lambda=-2.01377387D-08 EMin= 8.29566846D-03
 Quartic linear search produced a step of  0.32997.
 Variable       Old X    -DE/DX   Delta X   Delta X   Delta X     New X
                                 (Linear)    (Quad)   (Total)
    R2        2.79751  -0.00001  -0.00001  -0.00003  -0.00004   2.79747
    R3        2.86862   0.00002   0.00008   0.00003   0.00011   2.86873
    R4        2.83690  -0.00001  -0.00000  -0.00001  -0.00001   2.83689
    R5        2.04952   0.00000  -0.00001   0.00001  -0.00000   2.04952
    R6        2.04507  -0.00000  -0.00000   0.00000  -0.00000   2.04507
    R7        2.04384  -0.00000   0.00000  -0.00000  -0.00000   2.04384
    R8        2.04375   0.00000   0.00000   0.00000   0.00001   2.04376
    R9        2.04342   0.00000   0.00000   0.00000   0.00000   2.04342
   R10        2.51295  -0.00000  -0.00000  -0.00000  -0.00001   2.51294
   R11        2.05599  -0.00000  -0.00002   0.00001  -0.00001   2.05598
   R12        2.04723   0.00000   0.00000   0.00000   0.00000   2.04724
   R13        2.04670   0.00000   0.00001  -0.00000   0.00001   2.04670
    A3        2.10019   0.00003   0.00001  -0.00002  -0.00001   2.10017
    A4        2.14642   0.00003   0.00006   0.00006   0.00012   2.14654
    A5        1.98232   0.00003   0.00004   0.00004   0.00008   1.98240
    A6        2.04053  -0.00001  -0.00006   0.00004  -0.00002   2.04051
    A7        2.06045  -0.00001  -0.00000  -0.00004  -0.00004   2.06041
    A8        2.06632   0.00000   0.00001  -0.00001  -0.00000   2.06632
    A9        2.05238   0.00000  -0.00006   0.00002  -0.00004   2.05234
   A10        2.21881  -0.00001   0.00001  -0.00003  -0.00003   2.21878
   A11        1.99958  -0.00000  -0.00002   0.00003   0.00001   1.99959
   A12        2.13169   0.00001   0.00006  -0.00002   0.00004   2.13174
   A13        2.11292   0.00001   0.00002   0.00002   0.00004   2.11295
    D4        1.24714  -0.00003  -0.00001  -0.00000  -0.00002   1.24713
    D5       -2.45356   0.00001   0.00014   0.00003   0.00017  -2.45339
    D6        0.08893   0.00002   0.00000   0.00018   0.00018   0.08911
    D7       -2.50694   0.00001   0.00007  -0.00001   0.00006  -2.50689
    D8       -0.01626  -0.00000   0.00008   0.00008   0.00016  -0.01610
    D9        2.50958  -0.00001  -0.00012  -0.00002  -0.00015   2.50943
   D10       -1.44933  -0.00000   0.00061  -0.00030   0.00031  -1.44901
   D11        3.13498   0.00001   0.00002   0.00020   0.00021   3.13520
   D12       -0.03585   0.00001   0.00001   0.00044   0.00045  -0.03541
   D13       -3.12439  -0.00001  -0.00028  -0.00015  -0.00043  -3.12482
         Item               Value     Threshold  Converged?
 Maximum Force            0.000034     0.000450     YES
 RMS     Force            0.000014     0.000300     YES
 Maximum Displacement     0.000445     0.001800     YES
 RMS     Displacement     0.000144     0.001200     YES
 Predicted change in Energy=-1.355220D-08
 Optimization completed.
    -- Stationary point found.
                       ----------------------------
                       !   Optimized Parameters   !
                       ! (Angstroms and Degrees)  !
 ----------------------                            ----------------------
 !      Name          Value   Derivative information (Atomic Units)     !
 ------------------------------------------------------------------------
 !       R2          1.4804   -DE/DX =    0.0                           !
 !       R3          1.518    -DE/DX =    0.0                           !
 !       R4          1.5012   -DE/DX =    0.0                           !
 !       R5          1.0846   -DE/DX =    0.0                           !
 !       R6          1.0822   -DE/DX =    0.0                           !
 !       R7          1.0816   -DE/DX =    0.0                           !
 !       R8          1.0815   -DE/DX =    0.0                           !
 !       R9          1.0813   -DE/DX =    0.0                           !
 !       R10         1.3298   -DE/DX =    0.0                           !
 !       R11         1.088    -DE/DX =    0.0                           !
 !       R12         1.0833   -DE/DX =    0.0                           !
 !       R13         1.0831   -DE/DX =    0.0                           !
 !       A3        120.3318   -DE/DX =    0.0                           !
 !       A4        122.9811   -DE/DX =    0.0                           !
 !       A5        113.5785   -DE/DX =    0.0                           !
 !       A6        116.9139   -DE/DX =    0.0                           !
 !       A7        118.0548   -DE/DX =    0.0                           !
 !       A8        118.3915   -DE/DX =    0.0                           !
 !       A9        117.5927   -DE/DX =    0.0                           !
 !       A10       127.1284   -DE/DX =    0.0                           !
 !       A11       114.5677   -DE/DX =    0.0                           !
 !       A12       122.137    -DE/DX =    0.0                           !
 !       A13       121.0612   -DE/DX =    0.0                           !
 !       D4         71.456    -DE/DX =    0.0                           !
 !       D5       -140.5786   -DE/DX =    0.0                           !
 !       D6          5.0951   -DE/DX =    0.0                           !
 !       D7       -143.6373   -DE/DX =    0.0                           !
 !       D8         -0.9318   -DE/DX =    0.0                           !
 !       D9        143.7883   -DE/DX =    0.0                           !
 !       D10       -83.0402   -DE/DX =    0.0                           !
 !       D11       179.6213   -DE/DX =    0.0                           !
 !       D12        -2.0542   -DE/DX =    0.0                           !
 !       D13      -179.0146   -DE/DX =    0.0                           !
 ------------------------------------------------------------------------
 GradGradGradGradGradGradGradGradGradGradGradGradGradGradGradGradGradGrad

 ---------------------------------------------------------------------------------------------------
                            Z-MATRIX (ANGSTROMS AND DEGREES)
   CD    Cent   Atom    N1       Length/X        N2       Alpha/Y        N3        Beta/Z          J
 ---------------------------------------------------------------------------------------------------
      1      1  C 
      2      2  C        1   1.480379(     1)
      3      3  C        1   1.518008(     2)      2  120.332(    13)
      4      4  C        1   1.501223(     3)      2  122.981(    14)      3   71.456(    24)      0
      5      5  H        1   1.084558(     4)      2  113.578(    15)      3 -140.579(    25)      0
      6      6  H        3   1.082206(     5)      1  116.914(    16)      2    5.095(    26)      0
      7      7  H        3   1.081554(     6)      1  118.055(    17)      6 -143.637(    27)      0
      8      8  H        4   1.081506(     7)      1  118.391(    18)      2   -0.932(    28)      0
      9      9  H        4   1.081331(     8)      1  117.593(    19)      8  143.788(    29)      0
     10     10  C        2   1.329795(     9)      1  127.128(    20)      3  -83.040(    30)      0
     11     11  H        2   1.087981(    10)      1  114.568(    21)     10  179.621(    31)      0
[...]
   A13        2.11292   0.00001   0.00000   0.00006   0.00006   2.11297
    D4        1.24714  -0.00003   0.00000   0.00003   0.00003   1.24717
    D5       -2.45356   0.00001   0.00000   0.00029   0.00029  -2.45327
    D6        0.08893   0.00002   0.00000   0.00027   0.00027   0.08920
    D7       -2.50694   0.00001   0.00000   0.00006   0.00006  -2.50688
    D8       -0.01626  -0.00000   0.00000   0.00008   0.00008  -0.01618
    D9        2.50958  -0.00001   0.00000  -0.00017  -0.00017   2.50941
   D10       -1.44933  -0.00000   0.00000  -0.00044  -0.00044  -1.44977
   D11        3.13498   0.00001   0.00000   0.00041   0.00041   3.13540
   D12       -0.03585   0.00001   0.00000   0.00059   0.00059  -0.03527
   D13       -3.12439  -0.00001   0.00000  -0.00059  -0.00059  -3.12498
         Item               Value     Threshold  Converged?
 Maximum Force            0.000034     0.000450     YES
 RMS     Force            0.000014     0.000300     YES
 Maximum Displacement     0.000587     0.001800     YES
 RMS     Displacement     0.000202     0.001200     YES
 Predicted change in Energy=-2.349837D-08
 Optimization completed.
    -- Stationary point found.
                       ----------------------------
                       !   Optimized Parameters   !
                       ! (Angstroms and Degrees)  !
 ----------------------                            ----------------------
 !      Name          Value   Derivative information (Atomic Units)     !
 ------------------------------------------------------------------------
 !       R2          1.4804   -DE/DX =    0.0                           !
 !       R3          1.518    -DE/DX =    0.0                           !
 !       R4          1.5012   -DE/DX =    0.0                           !
 !       R5          1.0846   -DE/DX =    0.0                           !
 !       R6          1.0822   -DE/DX =    0.0                           !
 !       R7          1.0816   -DE/DX =    0.0                           !
 !       R8          1.0815   -DE/DX =    0.0                           !
 !       R9          1.0813   -DE/DX =    0.0                           !
 !       R10         1.3298   -DE/DX =    0.0                           !
 !       R11         1.088    -DE/DX =    0.0                           !
 !       R12         1.0833   -DE/DX =    0.0                           !
 !       R13         1.0831   -DE/DX =    0.0                           !
 !       A3        120.3318   -DE/DX =    0.0                           !
 !       A4        122.9811   -DE/DX =    0.0                           !
 !       A5        113.5785   -DE/DX =    0.0                           !
 !       A6        116.9139   -DE/DX =    0.0                           !
 !       A7        118.0548   -DE/DX =    0.0                           !
 !       A8        118.3915   -DE/DX =    0.0                           !
 !       A9        117.5927   -DE/DX =    0.0                           !
 !       A10       127.1284   -DE/DX =    0.0                           !
 !       A11       114.5677   -DE/DX =    0.0                           !
 !       A12       122.137    -DE/DX =    0.0                           !
 !       A13       121.0612   -DE/DX =    0.0                           !
 !       D4         71.456    -DE/DX =    0.0                           !
 !       D5       -140.5786   -DE/DX =    0.0                           !
 !       D6          5.0951   -DE/DX =    0.0                           !
 !       D7       -143.6373   -DE/DX =    0.0                           !
 !       D8         -0.9318   -DE/DX =    0.0                           !
 !       D9        143.7883   -DE/DX =    0.0                           !
 !       D10       -83.0402   -DE/DX =    0.0                           !
 !       D11       179.6213   -DE/DX =    0.0                           !
 !       D12        -2.0542   -DE/DX =    0.0                           !
 !       D13      -179.0146   -DE/DX =    0.0                           !
 ------------------------------------------------------------------------
 GradGradGradGradGradGradGradGradGradGradGradGradGradGradGradGradGradGrad


 ----------------------------------------------------------------------

 Electric dipole moment (input orientation):
 (Debye = 10**-18 statcoulomb cm , SI units = C m)
                  (au)            (Debye)         (10**-30 SI)
   Tot        0.499142D+00      0.126869D+01      0.423190D+01
   x         -0.912239D-01     -0.231868D+00     -0.773428D+00
   y          0.182923D+00      0.464944D+00      0.155089D+01
   z         -0.455368D+00     -0.115743D+01     -0.386077D+01

 Dipole polarizability, Alpha (input orientation).
 (esu units = cm**3 , SI units = C**2 m**2 J**-1)
 Alpha(0;0):
               (au)            (10**-24 esu)      (10**-40 SI)
   iso        0.583701D+02      0.864955D+01      0.962393D+01
   aniso      0.218387D+02      0.323617D+01      0.360072D+01
   xx         0.479488D+02      0.710527D+01      0.790568D+01
   yx         0.510248D+00      0.756110D-01      0.841286D-01
   yy         0.578780D+02      0.857663D+01      0.954279D+01
   zx        -0.365829D+01     -0.542103D+00     -0.603171D+00
   zy        -0.559992D+01     -0.829822D+00     -0.923302D+00
   zz         0.692835D+02      0.102668D+02      0.114233D+02

 ----------------------------------------------------------------------

 Dipole orientation:
     6          0.00000000         -0.00000000          0.00000000
     6         -0.51127741         -1.02521890         -2.55217242
     6          2.69746308          0.44418419          0.86911868
     6          0.94683197          2.63716312          0.44371291
     1         -1.23410887         -0.75778638          1.45026045
     1          4.17699564          0.13143656         -0.50765211
     1          3.18569509         -0.06578395          2.78715099
     1          1.29642627          3.82999692         -1.17858419
     1          0.23377267          3.63648986          2.07725393
     6         -0.61961831          0.25949476         -4.70917969
     1         -0.81300476         -3.05806061         -2.61211179
     1         -0.38685679          2.29225619         -4.77887752
     1         -0.97772057         -0.68966608         -6.48676801

 Electric dipole moment (dipole orientation):
 (Debye = 10**-18 statcoulomb cm , SI units = C m)
                  (au)            (Debye)         (10**-30 SI)
   Tot        0.499142D+00      0.126869D+01      0.423190D+01
   x          0.000000D+00      0.000000D+00      0.000000D+00
   y          0.000000D+00      0.000000D+00      0.000000D+00
   z          0.499142D+00      0.126869D+01      0.423190D+01

 Dipole polarizability, Alpha (dipole orientation).
 (esu units = cm**3 , SI units = C**2 m**2 J**-1)
 Alpha(0;0):
               (au)            (10**-24 esu)      (10**-40 SI)
   iso        0.583701D+02      0.864955D+01      0.962393D+01
   aniso      0.218387D+02      0.323617D+01      0.360072D+01
   xx         0.500942D+02      0.742319D+01      0.825942D+01
   yx         0.105300D+01      0.156039D+00      0.173616D+00
   yy         0.555207D+02      0.822732D+01      0.915413D+01
   zx         0.757611D+01      0.112266D+01      0.124913D+01
   zy        -0.529973D+00     -0.785340D-01     -0.873808D-01
   zz         0.694953D+02      0.102981D+02      0.114582D+02

 ----------------------------------------------------------------------
 1\1\GINC-BHC0030\Freq\RB3LYP\def2TZVP\C5H8\DHANAWAY\10-Jun-2022\1\\#N 
 Geom=AllCheck Guess=TCheck SCRF=Check GenChk RB3LYP/def2TZVP Freq\\int
 _zmat_initalOpt\\0,1\C\C,1,R2\C,1,R3,2,A3\C,1,R4,2,A4,3,D4,0\H,1,R5,2,
 A5,3,D5,0\H,3,R6,1,A6,2,D6,0\H,3,R7,1,A7,6,D7,0\H,4,R8,1,A8,2,D8,0\H,4
 ,R9,1,A9,8,D9,0\C,2,R10,1,A10,3,D10,0\H,2,R11,1,A11,10,D11,0\H,10,R12,
 2,A12,1,D12,0\H,10,R13,2,A13,12,D13,0\\R2=1.48037856\R3=1.51800771\R4=
 1.5012228\R5=1.08455773\R6=1.08220628\R7=1.08155407\R8=1.08150624\R9=1
 .0813311\R10=1.32979478\R11=1.08798082\R12=1.08334799\R13=1.08306478\A
 3=120.33183837\A4=122.98106617\A5=113.57848333\A6=116.91385543\A7=118.
 05484086\A8=118.39147368\A9=117.59271799\A10=127.12844993\A11=114.5677
 0679\A12=122.13698217\A13=121.06115056\D4=71.4559827\D5=-140.5785675\D
 6=5.09511415\D7=-143.63725186\D8=-0.93184776\D9=143.7883452\D10=-83.04
 023214\D11=179.62131675\D12=-2.05422586\D13=-179.01457995\\Version=ES6
 4L-G16RevA.03\HF=-195.3688519\RMSD=1.906e-09\RMSF=8.811e-05\ZeroPoint=
 0.1143291\Thermal=0.1197304\Dipole=-0.0912239,0.1829231,-0.4553675\Dip
 oleDeriv=0.0362439,0.0341737,0.2359797,0.0936375,0.0542605,-0.0417001,
 0.1226999,-0.0158745,-0.1918897,-0.215652,0.0011576,0.0084473,-0.01649
 73,0.158018,-0.082155,-0.0856164,-0.0694631,0.5046636,-0.0432871,-0.06
 30485,-0.0106045,-0.1158052,0.0215475,0.1234285,0.0436724,0.008718,0.0
 838894,0.1021777,-0.0194301,-0.0753416,-0.0262754,-0.1077943,-0.106489
 2,0.0105964,-0.0664064,0.0108961,-0.0010278,0.0807469,-0.0265325,0.086
 51,0.0313316,-0.0389046,-0.0069872,0.0304704,-0.0451553,-0.081196,-0.0
 320921,-0.030332,-0.0081391,0.0492969,0.0329991,-0.0966753,0.0148811,0
 .0083597,0.022098,-0.0254239,0.0282703,-0.0397994,0.032638,0.0470619,0
 .0395357,0.0924527,-0.0502717,0.053429,0.0252447,-0.0397151,0.0096515,
 -0.0796958,0.0179465,-0.043198,0.0854719,0.021785,0.0470801,-0.0366588
 ,-0.0498372,-0.0055612,0.0289378,-0.0363916,-0.0608236,-0.0445099,-0.0
 269392,-0.3347011,-0.0053772,-0.0605765,-0.0374625,-0.0656326,0.224161
 8,0.0440413,0.1189036,-0.1426814,0.1243324,0.012043,0.0265892,0.032306
 4,-0.0945519,-0.0747282,0.026146,-0.0800986,-0.0439035,0.1401336,0.024
 4718,-0.0000798,0.0220293,-0.0747017,-0.0280698,0.0031544,-0.0846501,0
 .0284426,0.1503693,0.0041929,-0.0062674,0.0054055,0.0463457,-0.0371592
 ,0.0034545,0.0101049,-0.1571955\Polar=47.9487519,0.5102485,57.8779938,
 -3.6582899,-5.5999178,69.2834807\PG=C01 [X(C5H8)]\NImag=0\\0.45445686,
 -0.19214729,0.40927955,0.01921826,-0.00710725,0.56513082,-0.07213773,0
 .00981171,-0.00370490,0.16398939,0.01099083,-0.08566784,-0.00513558,-0
 .07862473,0.76192545,-0.01428257,-0.00093474,-0.22678429,0.01465860,-0
 .11438956,0.63782325,-0.15756977,0.03121925,0.06098912,0.00176250,-0.0
 0080396,0.01003696,0.57602339,-0.01373830,-0.01852573,0.03202038,-0.00
 162426,-0.00545051,-0.00639660,0.07855198,0.36958357,0.04669145,0.0028
 5624,-0.08596458,0.02653781,0.01567221,-0.01951887,0.08360879,-0.19052
 367,0.52242158,-0.04344544,0.03061607,-0.00628755,-0.00413655,-0.00168
 565,0.00783670,-0.10041237,-0.06432287,-0.01538909,0.33360513,0.074028
 14,-0.15300397,-0.07719967,0.00140719,0.00195408,-0.00446664,-0.107967
 51,-0.15271508,0.02674811,-0.00824813,0.62320236,0.01619800,-0.0501494
 0,-0.11152765,-0.00210145,-0.03302393,-0.01190802,-0.03832605,-0.00088
 719,-0.05271495,0.19250021,-0.01298020,0.54254021,-0.17781813,0.119277
 72,-0.08313373,0.00258344,-0.00195975,0.00289451,-0.02111397,0.0162953
 6,-0.00880564,0.00180928,-0.00412948,0.00535897,0.19356185,0.12153002,
 -0.13657510,0.06162863,-0.00157729,-0.00016992,0.00313943,-0.01009793,
 0.00629192,-0.00630730,0.01834698,-0.01628195,0.01167939,-0.12902906,0
 .14386079,-0.08446749,0.06640722,-0.09651246,-0.02243344,0.02086909,-0
 .01384803,0.00921452,-0.00687857,0.00266652,0.01025862,-0.00856428,0.0
 0358943,0.08281155,-0.06819757,0.10718087,-0.01749117,0.00003941,-0.01
 003275,0.00185548,0.00197458,-0.00260111,-0.24237653,0.01777241,-0.131
 35432,-0.00700271,0.00049511,-0.00083633,-0.00214544,-0.00219522,0.000
 85781,0.26171333,0.00904851,-0.00494275,0.00668531,-0.00166454,0.00030
 033,0.00133592,0.01954316,-0.04226717,0.02368957,-0.02497495,0.0029413
 4,-0.01698530,0.00233613,0.00097721,-0.00135146,-0.01768482,0.04410316
 ,0.01692940,-0.00188714,0.00917296,-0.00019306,-0.00174257,0.00230230,
 -0.13531262,0.02205437,-0.13356433,-0.00437078,0.00179161,-0.00601315,
 0.00287481,0.00125083,-0.00088140,0.13973378,-0.02093331,0.13616884,-0
 .00364632,-0.01318609,0.01701821,-0.00236366,-0.00247574,-0.00151626,-
 0.05022052,-0.00975361,0.00600358,-0.00405525,-0.00505983,0.00765096,0
 .00216243,0.00140863,0.00066362,0.00476983,0.01530205,-0.01952690,0.05
 233667,-0.00155398,0.00533048,-0.01299246,0.00251494,0.00145224,0.0001
 9520,-0.01194001,-0.13768771,0.14202052,0.00062270,-0.01486630,0.02209
 258,-0.00172995,-0.00008881,0.00073428,0.00013433,-0.00042778,-0.00035
 404,0.01444265,0.14569148,-0.00128410,0.00811311,-0.01186397,0.0025881
 7,0.00194715,0.00013867,0.00918214,0.14349999,-0.23710394,0.00165357,-
 0.00751338,0.00995238,-0.00141334,-0.00096295,0.00140454,0.00253081,0.
 00699323,-0.00942997,-0.01265288,-0.15069196,0.24686248,-0.00862244,0.
 01267755,-0.01109717,0.00084620,-0.00216437,-0.00132052,0.00815282,-0.
 02208790,0.01510452,-0.06474525,0.07242514,-0.05013473,0.00092365,0.00
 332770,0.00196981,0.00080047,0.00275246,0.00133072,-0.00082577,-0.0046
 2631,-0.00195418,0.06706541,0.00265158,-0.01373711,0.00618623,0.000910
 71,0.00096762,0.00254028,0.00475584,-0.01325300,0.00518660,0.07022836,
 -0.23756846,0.11302474,-0.00181298,-0.00181296,-0.00053936,-0.00043917
 ,0.00153740,0.00070393,0.00035852,-0.00153156,-0.00168519,-0.07437170,
 0.25683554,0.00591449,-0.01622027,0.01240697,0.00073432,0.00204841,0.0
 0027157,-0.00201595,0.00256644,-0.00525912,-0.05002753,0.11607855,-0.1
 1705552,-0.00077235,-0.00320416,-0.00121683,-0.00050057,-0.00130721,0.
 00102320,0.00071205,0.00119321,0.00073323,0.05076813,-0.12198767,0.120
 14088,0.01003889,0.00021006,0.01863612,0.00052376,0.00402634,0.0004498
 9,-0.01313452,-0.00120450,-0.02074756,-0.11351540,-0.02250908,-0.13134
 426,-0.00001939,-0.00188281,-0.00067522,-0.00040190,-0.00458435,-0.001
 22289,0.00139544,0.00239464,0.00128361,-0.00380720,-0.00181643,-0.0051
 9184,0.11922800,-0.00904068,-0.00571370,-0.01434318,-0.00110128,-0.002
 71417,0.00192123,-0.00772840,-0.00517813,-0.01470590,-0.02071429,-0.05
 606525,-0.03415402,0.00085688,0.00141079,-0.00073692,0.00051810,-0.002
 19414,-0.00109620,-0.00093910,0.00181106,0.00051375,0.01262504,0.00705
 769,0.02112268,0.02539323,0.06059155,-0.00894672,-0.00052729,-0.013333
 11,-0.00036852,-0.00284543,0.00010397,0.00643471,-0.00033719,0.0088023
 9,-0.13137459,-0.03764033,-0.25478834,0.00059579,0.00128144,0.00144300
 ,0.00108128,0.00197323,0.00088734,-0.00013770,-0.00116373,0.00029536,-
 0.00498717,-0.00292108,-0.00914315,0.13754593,0.04236295,0.26650387,0.
 00863896,-0.00074364,-0.00347449,-0.05596121,0.04002191,-0.02373480,-0
 .00138414,0.00094419,0.00105493,-0.00054448,0.00044496,0.00100166,-0.0
 0024853,0.00014739,0.00024942,0.00080953,-0.00027968,-0.00060046,0.000
 42794,-0.00004582,0.00025195,-0.00011845,-0.00040847,0.00012738,0.0000
 7895,-0.00019895,0.00003250,0.10890920,-0.00285680,0.00493465,0.011228
 17,0.04029789,-0.38459569,0.19683269,0.00374890,-0.00044290,-0.0035187
 9,0.00007752,0.00097293,0.00080832,0.00000608,0.00175855,-0.00235931,-
 0.00056029,0.00011040,0.00027392,-0.00021279,0.00002392,-0.00031321,0.
 00019559,0.00016053,-0.00061785,0.00002723,0.00029644,-0.00008143,-0.0
 6843303,0.75296962,0.00045792,0.02651987,-0.02846415,-0.02618833,0.205
 70837,-0.26153983,-0.00386334,0.00424231,-0.00047164,-0.00211701,0.001
 25731,0.00219509,-0.00024613,-0.00093184,-0.00409747,0.00058583,-0.000
 16426,0.00033390,0.00145370,-0.00086853,-0.00076263,0.00003147,-0.0004
 0136,-0.00090910,0.00010559,-0.00013675,0.00000816,0.01941074,-0.09451
 695,0.70726471,0.00231403,0.00204391,0.00157731,-0.04520699,0.02733084
 ,0.00985955,0.00051402,-0.00153415,-0.00176883,0.00290885,0.00003110,-
 0.00029687,0.00040980,-0.00039471,0.00063135,-0.00029374,0.00017109,0.
 00028289,-0.00010797,0.00003532,0.00005615,0.00005023,0.00002030,0.000
 02522,-0.00045235,0.00030154,0.00026496,0.00665845,0.00277687,0.002552
 97,0.02948177,-0.00002363,0.00137599,0.00051824,0.02704471,-0.26999599
 ,-0.09788385,0.00047186,-0.00004674,-0.00079067,-0.00046903,0.00123503
 ,0.00075156,-0.00005389,0.00050648,-0.00047605,0.00002657,-0.00001834,
 -0.00010203,0.00012087,-0.00006938,-0.00007131,-0.00011350,0.00005366,
 0.00020479,0.00014828,0.00012735,0.00001155,0.00322412,-0.02359051,-0.
 01178216,-0.03121589,0.29133086,0.00381056,-0.02976308,-0.01336242,0.0
 1185271,-0.10179351,-0.10208710,0.00034682,0.00010950,0.00080526,-0.00
 226401,0.00188176,-0.00428463,-0.00034715,0.00067412,0.00094504,0.0005
 0113,0.00013823,-0.00007253,0.00010027,-0.00000718,-0.00009598,-0.0002
 5690,0.00000622,0.00042470,0.00124450,-0.00057945,-0.00089866,-0.00201
 599,0.02002781,0.00983777,-0.01257314,0.10603182,0.10912609,-0.0073543
 8,-0.00060189,0.00083404,0.00569327,0.00429028,0.00067916,-0.00010803,
 -0.00035351,0.00167824,-0.00041866,-0.00128491,-0.00050855,0.00016725,
 0.00031923,-0.00079601,0.00002028,-0.00022416,0.00001854,-0.00041328,0
 .00021385,0.00025775,0.00031884,0.00020376,0.00008087,0.00010379,-0.00
 000841,-0.00008509,-0.03598471,0.02181627,0.00748233,0.01143359,0.0020
 6790,-0.00045003,0.02500586,-0.00075665,0.00059059,-0.00213673,0.00266
 679,-0.02272088,-0.01084674,0.00004905,-0.00016276,-0.00008924,0.00019
 267,0.00028503,0.00000429,-0.00002877,0.00009472,0.00002820,-0.0000129
 2,-0.00012436,0.00005648,0.00002675,0.00018919,0.00008879,-0.00028092,
 0.00082101,-0.00006747,-0.00014345,0.00032409,-0.00004961,0.02303378,-
 0.29256054,-0.09125768,0.00143571,-0.00213161,0.00330853,-0.02633957,0
 .31529387,0.00063777,0.00019773,0.00018646,-0.00163926,0.01743197,0.01
 238894,-0.00020033,0.00019618,0.00030965,-0.00013502,0.00040191,-0.000
 54536,-0.00006535,-0.00026071,0.00013571,-0.00002241,-0.00003355,0.000
 03136,0.00003707,-0.00012061,-0.00008079,0.00059369,-0.00013896,-0.001
 61719,-0.00010663,-0.00021402,0.00020576,0.00814963,-0.09523781,-0.094
 22282,-0.00064057,0.00318704,-0.00155748,-0.00899276,0.10018101,0.0916
 5493,0.01263665,0.00078322,-0.00054248,0.00255210,-0.00092057,-0.00296
 010,-0.00013288,0.00105515,-0.00261388,-0.00004717,0.00036730,0.000838
 45,-0.00027222,0.00009707,0.00171546,-0.00025745,0.00025910,0.00005657
 ,0.00054045,-0.00046236,-0.00049966,-0.00003852,-0.00028033,0.00014576
 ,-0.00003808,0.00003632,-0.00005539,-0.03128152,0.00311654,0.00033427,
 -0.00770969,-0.00122837,0.00005123,0.00153618,0.00015753,0.00238416,0.
 02251217,0.00186824,-0.00334505,0.00064791,-0.00006184,0.00471527,0.02
 895337,0.00019777,-0.00014576,-0.00023768,0.00033063,-0.00008977,-0.00
 018083,-0.00002829,0.00002826,0.00106473,-0.00006809,0.00000470,-0.000
 01585,-0.00003231,0.00017315,0.00008198,-0.00035880,0.00046964,0.00019
 055,-0.00005917,0.00024643,-0.00006308,0.00229323,-0.06003738,-0.03766
 834,-0.00100192,0.00122320,-0.00003477,-0.00009885,0.00010165,-0.02559
 017,-0.00298061,0.05665565,-0.00087697,0.00249502,0.00091542,0.0002573
 4,-0.00474662,-0.01734255,-0.00009479,0.00033407,-0.00040798,-0.000283
 53,0.00020526,0.00056052,0.00024806,0.00021068,-0.00080892,0.00005685,
 -0.00004041,0.00004147,0.00019427,-0.00003730,-0.00004939,-0.00004766,
 0.00002562,0.00020036,0.00002275,0.00004583,-0.00008662,-0.00045247,-0
 .03252557,-0.32917199,0.00002902,0.00040107,0.00121994,-0.00019849,0.0
 0078018,-0.00688920,0.00114560,0.03285218,0.35181892\\0.00028861,0.000
 30208,-0.00004762,-0.00028579,-0.00014698,0.00000388,-0.00001312,-0.00
 013406,0.00002863,-0.00001401,-0.00002809,0.00000099,-0.00000955,-0.00
 000207,0.00001560,0.00000190,0.00000392,-0.00000220,0.00000063,-0.0000
 0466,-0.00000439,0.00000258,0.00000296,0.00000089,0.00000267,0.0000031
 8,-0.00000083,0.00004165,-0.00000490,0.00001087,0.00000668,0.00000160,
 0.00000070,-0.00001396,0.00000187,-0.00000484,-0.00000830,0.00000514,-
 0.00000168\\\@


 A true friend is someone who is there for
 you when he'd rather be anywhere else.
                               -- Len Wein
 Job cpu time:       0 days  0 hours 26 minutes  7.7 seconds.
 Elapsed time:       0 days  0 hours  2 minutes 11.1 seconds.
 File lengths (MBytes):  RWF=     52 Int=      0 D2E=      0 Chk=     32 Scr=      1
 Normal termination of Gaussian 16 at Fri Jun 10 11:18:53 2022.
