 Entering Gaussian System, Link 0=g16
 Input=int_zmat_field_N50.gjf
 Output=int_zmat_field_N50.out
 Initial command:
 /software/gaussian/g16-a03/l1.exe "/local_scratch/11172092/Gau-31849.inp" -scrdir="/local_scratch/11172092/"
 Entering Link 1 = /software/gaussian/g16-a03/l1.exe PID=     31850.
  
 Copyright (c) 1988,1990,1992,1993,1995,1998,2003,2009,2016,
            Gaussian, Inc.  All Rights Reserved.
  
 This is part of the Gaussian(R) 16 program.  It is based on
 the Gaussian(R) 09 system (copyright 2009, Gaussian, Inc.),
 the Gaussian(R) 03 system (copyright 2003, Gaussian, Inc.),
 the Gaussian(R) 98 system (copyright 1998, Gaussian, Inc.),
 the Gaussian(R) 94 system (copyright 1995, Gaussian, Inc.),
 the Gaussian 92(TM) system (copyright 1992, Gaussian, Inc.),
 the Gaussian 90(TM) system (copyright 1990, Gaussian, Inc.),
 the Gaussian 88(TM) system (copyright 1988, Gaussian, Inc.),
 the Gaussian 86(TM) system (copyright 1986, Carnegie Mellon
 University), and the Gaussian 82(TM) system (copyright 1983,
 Carnegie Mellon University). Gaussian is a federally registered
 trademark of Gaussian, Inc.
  
 This software contains proprietary and confidential information,
 including trade secrets, belonging to Gaussian, Inc.
  
 This software is provided under written license and may be
 used, copied, transmitted, or stored only in accord with that
 written license.
  
 The following legend is applicable only to US Government
 contracts under FAR:
  
                    RESTRICTED RIGHTS LEGEND
  
 Use, reproduction and disclosure by the US Government is
 subject to restrictions as set forth in subparagraphs (a)
 and (c) of the Commercial Computer Software - Restricted
 Rights clause in FAR 52.227-19.
  
 Gaussian, Inc.
 340 Quinnipiac St., Bldg. 40, Wallingford CT 06492
  
  
 ---------------------------------------------------------------
 Warning -- This program may not be used in any manner that
 competes with the business of Gaussian, Inc. or will provide
 assistance to any competitor of Gaussian, Inc.  The licensee
 of this program is prohibited from giving any competitor of
 Gaussian, Inc. access to this program.  By using this program,
 the user acknowledges that Gaussian, Inc. is engaged in the
 business of creating and licensing software in the field of
 computational chemistry and represents and warrants to the
 licensee that it is not a competitor of Gaussian, Inc. and that
 it will not use this program in any manner prohibited above.
 ---------------------------------------------------------------
  

 Cite this work as:
 Gaussian 16, Revision A.03,
 M. J. Frisch, G. W. Trucks, H. B. Schlegel, G. E. Scuseria, 
 M. A. Robb, J. R. Cheeseman, G. Scalmani, V. Barone, 
 G. A. Petersson, H. Nakatsuji, X. Li, M. Caricato, A. V. Marenich, 
 J. Bloino, B. G. Janesko, R. Gomperts, B. Mennucci, H. P. Hratchian, 
 J. V. Ortiz, A. F. Izmaylov, J. L. Sonnenberg, D. Williams-Young, 
 F. Ding, F. Lipparini, F. Egidi, J. Goings, B. Peng, A. Petrone, 
 T. Henderson, D. Ranasinghe, V. G. Zakrzewski, J. Gao, N. Rega, 
 G. Zheng, W. Liang, M. Hada, M. Ehara, K. Toyota, R. Fukuda, 
 J. Hasegawa, M. Ishida, T. Nakajima, Y. Honda, O. Kitao, H. Nakai, 
 T. Vreven, K. Throssell, J. A. Montgomery, Jr., J. E. Peralta, 
 F. Ogliaro, M. J. Bearpark, J. J. Heyd, E. N. Brothers, K. N. Kudin, 
 V. N. Staroverov, T. A. Keith, R. Kobayashi, J. Normand, 
 K. Raghavachari, A. P. Rendell, J. C. Burant, S. S. Iyengar, 
 J. Tomasi, M. Cossi, J. M. Millam, M. Klene, C. Adamo, R. Cammi, 
 J. W. Ochterski, R. L. Martin, K. Morokuma, O. Farkas, 
 J. B. Foresman, and D. J. Fox, Gaussian, Inc., Wallingford CT, 2016.
 
 ******************************************
 Gaussian 16:  ES64L-G16RevA.03 25-Dec-2016
                10-Jun-2022 
 ******************************************
 %nprocshared=12
 Will use up to   12 processors via shared memory.
 %chk=checkpoint.chk
 %mem=12GB
 ----------------------------------------------------------------------
 # Opt=(Z-matrix, MaxStep=10) B3LYP/Def2TZVP geom=allcheckpoint guess=r
 ead Field=read NoSymm freq=noraman pop=none
 ----------------------------------------------------------------------
 1/8=10,10=7,18=40,26=3,29=7,38=1/1,3;
 2/12=2,15=1,29=3,40=1/2;
 3/5=44,7=101,11=2,14=-6,25=1,30=1,71=1,74=-5,116=-2/1,2,3;
 4/5=1/1;
 5/5=2,38=6/2;
 7/29=1,30=1/1,2,3,16;
 1/8=10,10=7,18=40,26=3/3(2);
 2/15=1,29=3/2;
 99//99;
 2/15=1,29=3/2;
 3/5=44,7=101,11=2,14=-2,25=1,30=1,71=1,74=-5/1,2,3;
 4/5=5,16=3,69=1/1;
 5/5=2,38=5/2;
 7/30=1/1,2,3,16;
 1/8=10,18=40,26=3/3(-5);
 2/15=1,29=3/2;
 99/9=1/99;
 Structure from the checkpoint file:  "checkpoint.chk"
 ------------------
 int_zmat_initalOpt
 ------------------
 Charge =  0 Multiplicity = 1
 Z-Matrix found in chk file.
 C
 C,1,R2
 C,1,R3,2,A3
 N,1,R4,2,A4,3,D4,0
 C,3,R5,1,A5,2,D5,0
 H,2,R6,1,A6,3,D6,0
 H,3,R7,1,A7,5,D7,0
 C,2,R8,1,A8,6,D8,0
 C,4,R9,1,A9,2,D9,0
 H,4,R10,1,A10,9,D10,0
 C,5,R11,3,A11,1,D11,0
 H,5,R12,3,A12,11,D12,0
 H,8,R13,2,A13,1,D13,0
 H,9,R14,4,A14,1,D14,0
 C,11,R15,5,A15,3,D15,0
 H,11,R16,5,A16,15,D16,0
 O,15,R17,11,A17,5,D17,0
      Variables:
 R2=1.38804968
 R3=1.44646031
 R4=1.38045222
 R5=1.3467537
 R6=1.07570833
 R7=1.08598976
 R8=1.41574965
 R9=1.36698018
 R10=1.0048632
 R11=1.45359318
 R12=1.08303402
 R13=1.07752569
 R14=1.07658119
 R15=1.31916752
 R16=1.08529588
 R17=1.15903165
 A3=133.84687791
 A4=106.20924481
 A5=129.97347267
 A6=125.92293273
 A7=114.62277714
 A8=108.05171403
 A9=110.6708344
 A10=123.96976395
 A11=131.26724119
 A12=116.23646239
 A13=126.6017514
 A14=121.36217597
 A15=129.22708264
 A16=118.09527868
 A17=176.75832437
 D4=175.23825075
 D5=-26.11106906
 D6=1.2418365
 D7=179.02260159
 D8=-176.97130812
 D9=0.73555682
 D10=177.24284036
 D11=-5.18931807
 D12=-179.36837597
 D13=179.44807791
 D14=179.39704302
 D15=-18.15507148
 D16=-173.34004193
 D17=176.97478117
 Recover connectivity data from disk.

 GradGradGradGradGradGradGradGradGradGradGradGradGradGradGradGradGradGrad
 Berny optimization.
 Initialization pass.
                       ----------------------------
                       !    Initial Parameters    !
                       ! (Angstroms and Degrees)  !
 ----------------------                            ----------------------
 !      Name          Value   Derivative information (Atomic Units)     !
 ------------------------------------------------------------------------
 !       R2          1.388    estimate D2E/DX2                          !
 !       R3          1.4465   estimate D2E/DX2                          !
 !       R4          1.3805   estimate D2E/DX2                          !
 !       R5          1.3468   estimate D2E/DX2                          !
 !       R6          1.0757   estimate D2E/DX2                          !
 !       R7          1.086    estimate D2E/DX2                          !
 !       R8          1.4157   estimate D2E/DX2                          !
 !       R9          1.367    estimate D2E/DX2                          !
 !       R10         1.0049   estimate D2E/DX2                          !
 !       R11         1.4536   estimate D2E/DX2                          !
 !       R12         1.083    estimate D2E/DX2                          !
 !       R13         1.0775   estimate D2E/DX2                          !
 !       R14         1.0766   estimate D2E/DX2                          !
 !       R15         1.3192   estimate D2E/DX2                          !
 !       R16         1.0853   estimate D2E/DX2                          !
 !       R17         1.159    estimate D2E/DX2                          !
 !       A3        133.8469   estimate D2E/DX2                          !
 !       A4        106.2092   estimate D2E/DX2                          !
 !       A5        129.9735   estimate D2E/DX2                          !
 !       A6        125.9229   estimate D2E/DX2                          !
 !       A7        114.6228   estimate D2E/DX2                          !
 !       A8        108.0517   estimate D2E/DX2                          !
 !       A9        110.6708   estimate D2E/DX2                          !
 !       A10       123.9698   estimate D2E/DX2                          !
 !       A11       131.2672   estimate D2E/DX2                          !
 !       A12       116.2365   estimate D2E/DX2                          !
 !       A13       126.6018   estimate D2E/DX2                          !
 !       A14       121.3622   estimate D2E/DX2                          !
 !       A15       129.2271   estimate D2E/DX2                          !
 !       A16       118.0953   estimate D2E/DX2                          !
 !       A17       176.7583   estimate D2E/DX2                          !
 !       D4        175.2383   estimate D2E/DX2                          !
 !       D5        -26.1111   estimate D2E/DX2                          !
 !       D6          1.2418   estimate D2E/DX2                          !
 !       D7        179.0226   estimate D2E/DX2                          !
 !       D8       -176.9713   estimate D2E/DX2                          !
 !       D9          0.7356   estimate D2E/DX2                          !
 !       D10       177.2428   estimate D2E/DX2                          !
 !       D11        -5.1893   estimate D2E/DX2                          !
 !       D12      -179.3684   estimate D2E/DX2                          !
 !       D13       179.4481   estimate D2E/DX2                          !
 !       D14       179.397    estimate D2E/DX2                          !
 !       D15       -18.1551   estimate D2E/DX2                          !
 !       D16      -173.34     estimate D2E/DX2                          !
 !       D17       176.9748   estimate D2E/DX2                          !
 ------------------------------------------------------------------------
 Trust Radius=1.00D-01 FncErr=1.00D-07 GrdErr=1.00D-06 EigMax=2.50D+02 EigMin=1.00D-04
 Number of steps in this run=     55 maximum allowed number of steps=    100.
 GradGradGradGradGradGradGradGradGradGradGradGradGradGradGradGradGradGrad

 ---------------------------------------------------------------------------------------------------
                            Z-MATRIX (ANGSTROMS AND DEGREES)
   CD    Cent   Atom    N1       Length/X        N2       Alpha/Y        N3        Beta/Z          J
 ---------------------------------------------------------------------------------------------------
      1      1  C 
      2      2  C        1   1.388050(     1)
      3      3  C        1   1.446460(     2)      2  133.847(    17)
      4      4  N        1   1.380452(     3)      2  106.209(    18)      3  175.238(    32)      0
      5      5  C        3   1.346754(     4)      1  129.973(    19)      2  -26.111(    33)      0
      6      6  H        2   1.075708(     5)      1  125.923(    20)      3    1.242(    34)      0
      7      7  H        3   1.085990(     6)      1  114.623(    21)      5  179.023(    35)      0
      8      8  C        2   1.415750(     7)      1  108.052(    22)      6 -176.971(    36)      0
      9      9  C        4   1.366980(     8)      1  110.671(    23)      2    0.736(    37)      0
     10     10  H        4   1.004863(     9)      1  123.970(    24)      9  177.243(    38)      0
     11     11  C        5   1.453593(    10)      3  131.267(    25)      1   -5.189(    39)      0
     12     12  H        5   1.083034(    11)      3  116.236(    26)     11 -179.368(    40)      0
     13     13  H        8   1.077526(    12)      2  126.602(    27)      1  179.448(    41)      0
     14     14  H        9   1.076581(    13)      4  121.362(    28)      1  179.397(    42)      0
     15     15  C       11   1.319168(    14)      5  129.227(    29)      3  -18.155(    43)      0
     16     16  H       11   1.085296(    15)      5  118.095(    30)     15 -173.340(    44)      0
     17     17  O       15   1.159032(    16)     11  176.758(    31)      5  176.975(    45)      0
 ---------------------------------------------------------------------------------------------------
                         Z-Matrix orientation:                         
 ---------------------------------------------------------------------
 Center     Atomic      Atomic             Coordinates (Angstroms)
 Number     Number       Type             X           Y           Z
 ---------------------------------------------------------------------
      1          6           0        0.000000    0.000000    0.000000
      2          6           0        0.000000    0.000000    1.388050
      3          6           0        1.043178    0.000000   -1.002011
      4          7           0       -1.321002   -0.110040   -0.385348
      5          6           0        2.309140    0.454229   -0.933002
      6          1           0        0.870911    0.018879    2.019164
      7          1           0        0.760621   -0.449556   -1.949342
      8          6           0       -1.342325   -0.100236    1.826755
      9          6           0       -2.139887   -0.161777    0.707989
     10          1           0       -1.629052   -0.106200   -1.341821
     11          6           0        3.013695    1.173981    0.115087
     12          1           0        2.930963    0.272591   -1.800935
     13          1           0       -1.683562   -0.134073    2.848261
     14          1           0       -3.208717   -0.238531    0.604364
     15          6           0        2.524416    1.849849    1.136856
     16          1           0        4.091004    1.274655    0.030610
     17          8           0        2.156051    2.454312    2.054618
 ---------------------------------------------------------------------
                    Distance matrix (angstroms):
                    1          2          3          4          5
     1  C    0.000000
     2  C    1.388050   0.000000
     3  C    1.446460   2.607798   0.000000
     4  N    1.380452   2.214067   2.445758   0.000000
     5  C    2.531589   3.305410   1.346754   3.714331   0.000000
     6  H    2.199060   1.075708   3.026142   3.256191   3.312600
     7  H    2.140229   3.452365   1.085990   2.625739   2.060991
     8  C    2.269123   1.415750   3.701702   2.212228   4.610520
     9  C    2.259765   2.251171   3.616929   1.366980   4.781857
    10  H    2.113190   3.180767   2.695841   1.004863   3.998820
    11  C    3.236330   3.475776   2.551289   4.548488   1.453593
    12  H    3.450828   4.339870   2.067926   4.497722   1.083034
    13  H    3.311336   2.232616   4.719924   3.253960   5.530436
    14  H    3.273838   3.311635   4.551478   2.135300   5.769762
    15  C    3.329723   3.139700   3.192297   4.576626   2.505676
    16  H    4.285090   4.494853   3.461256   5.601804   2.185563
    17  O    3.859230   3.334144   4.074938   4.961777   3.598561
                    6          7          8          9         10
     6  H    0.000000
     7  H    3.997579   0.000000
     8  C    2.224775   4.336279   0.000000
     9  C    3.288878   3.944258   1.375329   0.000000
    10  H    4.190666   2.489480   3.181529   2.113235   0.000000
    11  C    3.090516   3.460359   4.850603   5.356788   5.031554
    12  H    4.347567   2.292140   5.617840   5.674231   4.598696
    13  H    2.690005   5.393566   1.077526   2.188553   4.190530
    14  H    4.325654   4.724573   2.235349   1.076581   2.510078
    15  C    2.620113   4.233539   4.385257   5.097674   5.217400
    16  H    3.987520   4.240821   5.885366   6.430099   6.042298
    17  O    2.753938   5.139199   4.337773   5.206958   5.693770
                   11         12         13         14         15
    11  C    0.000000
    12  H    2.119077   0.000000
    13  H    5.589764   6.563097   0.000000
    14  H    6.399452   6.613802   2.715158   0.000000
    15  C    1.319168   3.359113   4.957008   6.124842   0.000000
    16  H    1.085296   2.388385   6.577939   7.476954   2.002206
    17  O    2.477212   4.497297   4.698109   6.175384   1.159032
                   16         17
    16  H    0.000000
    17  O    3.038460   0.000000
 Symmetry turned off by external request.
 Stoichiometry    C8H7NO
 Framework group  C1[X(C8H7NO)]
 Deg. of freedom    45
 Full point group                 C1      NOp   1
 Rotational constants (GHZ):           2.3993609           0.9803758           0.7317841
 Standard basis: def2TZVP (5D, 7F)
 The following finite field(s) will be applied:
 An electric field of             -0.0042  0.0009  0.0025
   352 basis functions,   566 primitive gaussians,   402 cartesian basis functions
    35 alpha electrons       35 beta electrons
       nuclear repulsion energy       460.3486620870 Hartrees.
 NAtoms=   17 NActive=   17 NUniq=   17 SFac= 1.00D+00 NAtFMM=   60 NAOKFM=F Big=F
 Integral buffers will be    131072 words long.
 Raffenetti 2 integral format.
 Two-electron integral symmetry is turned off.
 One-electron integrals computed using PRISM.
   1 Symmetry operations used in ECPInt.
 ECPInt:  NShTT=    9591 NPrTT=   29644 LenC2=    9222 LenP2D=   22143.
 LDataN:  DoStor=T MaxTD1= 6 Len=  172
 NBasis=   352 RedAO= T EigKep=  3.32D-05  NBF=   352
 NBsUse=   352 1.00D-06 EigRej= -1.00D+00 NBFU=   352
 The nuclear repulsion energy is now       460.2326665715 hartrees.
 Initial guess from the checkpoint file:  "checkpoint.chk"
 B after Tr=    -0.000000   -0.000000   -0.000000
         Rot=    1.000000   -0.000000   -0.000000    0.000000 Ang=   0.00 deg.
 Requested convergence on RMS density matrix=1.00D-08 within 128 cycles.
 Requested convergence on MAX density matrix=1.00D-06.
 Requested convergence on             energy=1.00D-06.
 No special actions if energy rises.
 SCF Done:  E(RB3LYP) =  -439.157597834     A.U. after   11 cycles
            NFock= 11  Conv=0.45D-08     -V/T= 2.0049
   1 Symmetry operations used in ECPInt.
 ECPInt:  NShTT=    9591 NPrTT=   29644 LenC2=    9222 LenP2D=   22143.
 LDataN:  DoStor=T MaxTD1= 7 Len=  274
 Calling FoFJK, ICntrl=      2127 FMM=F ISym2X=0 I1Cent= 0 IOpClX= 0 NMat=1 NMatS=1 NMatT=0.
 -------------------------------------------------------------------
 Center     Atomic                   Forces (Hartrees/Bohr)
 Number     Number              X              Y              Z
 -------------------------------------------------------------------
      1        6           0.000670137   -0.000640460    0.000315230
      2        6          -0.000546721    0.000393012    0.000068080
      3        6           0.000255929    0.000399093   -0.000780696
      4        7           0.000371539    0.000286936    0.000040718
      5        6           0.000001694    0.000293889    0.000515025
      6        1           0.000049526   -0.000101644   -0.000175939
      7        1           0.000099558   -0.000088469    0.000151650
      8        6          -0.000346806    0.000135236   -0.000194161
      9        6          -0.000747802   -0.000024047    0.000434649
     10        1           0.000376336   -0.000143967   -0.000153668
     11        6          -0.000651674    0.000167208    0.000318039
     12        1          -0.000014791   -0.000020616    0.000131848
     13        1          -0.000000780   -0.000079625    0.000232970
     14        1          -0.000122025   -0.000098287   -0.000126894
     15        6           0.001141249   -0.001196102   -0.001723015
     16        1           0.000252607   -0.000007873   -0.000101019
     17        8          -0.000787977    0.000725714    0.001047183
 -------------------------------------------------------------------
 Cartesian Forces:  Max     0.001723015 RMS     0.000499278
 -----------------------------------------------------------------------------------------------
                       Internal Coordinate Forces (Hartree/Bohr or radian)
  Cent   Atom   N1       Length/X         N2         Alpha/Y        N3         Beta/Z          J
 -----------------------------------------------------------------------------------------------
      1  C 
      2  C        1  -0.000069(     1)
      3  C        1   0.000519(     2)      2  -0.000273(    17)
      4  N        1   0.000061(     3)      2   0.001736(    18)      3  -0.000289(    32)     0
      5  C        3  -0.000058(     4)      1  -0.000413(    19)      2  -0.000195(    33)     0
      6  H        2  -0.000065(     5)      1  -0.000346(    20)      3  -0.000325(    34)     0
      7  H        3  -0.000122(     6)      1   0.000039(    21)      5  -0.000298(    35)     0
      8  C        2   0.000338(     7)      1  -0.000047(    22)      6  -0.000156(    36)     0
      9  C        4   0.000772(     8)      1   0.001569(    23)      2   0.000121(    37)     0
     10  H        4   0.000030(     9)      1  -0.000739(    24)      9   0.000289(    38)     0
     11  C        5  -0.000507(    10)      3   0.000120(    25)      1  -0.000129(    39)     0
     12  H        5  -0.000111(    11)      3   0.000079(    26)     11  -0.000120(    40)     0
     13  H        8   0.000224(    12)      2  -0.000139(    27)      1  -0.000126(    41)     0
     14  H        9   0.000140(    13)      4  -0.000233(    28)      1   0.000154(    42)     0
     15  C       11  -0.000895(    14)      5  -0.000692(    29)      3   0.000003(    43)     0
     16  H       11   0.000258(    15)      5  -0.000176(    30)     15   0.000026(    44)     0
     17  O       15   0.001458(    16)     11   0.000751(    31)      5   0.000002(    45)     0
 -----------------------------------------------------------------------------------------------
 Internal  Forces:  Max     0.001736455 RMS     0.000525285

 GradGradGradGradGradGradGradGradGradGradGradGradGradGradGradGradGradGrad
 Berny optimization.
 Search for a local minimum.
 Step number   1 out of a maximum of   55
 All quantities printed in internal units (Hartrees-Bohrs-Radians)
 Second derivative matrix not updated -- first step.
 ITU=  0
     Eigenvalues ---    0.02659   0.03263   0.03790   0.04074   0.06041
     Eigenvalues ---    0.07941   0.09024   0.09680   0.14235   0.15396
     Eigenvalues ---    0.16656   0.20393   0.20438   0.20777   0.21694
     Eigenvalues ---    0.23780   0.25097   0.25322   0.26520   0.28536
     Eigenvalues ---    0.30081   0.35280   0.35361   0.35630   0.36295
     Eigenvalues ---    0.36411   0.36518   0.37778   0.38712   0.40214
     Eigenvalues ---    0.44397   0.46845   0.48630   0.51106   0.53775
     Eigenvalues ---    0.55017   0.55594   0.55720   0.60659   0.62146
     Eigenvalues ---    0.75055   1.28430   1.73831   1.85022  16.30281
 RFO step:  Lambda=-1.82658857D-05 EMin= 2.65880096D-02
 Linear search not attempted -- first point.
 Variable       Old X    -DE/DX   Delta X   Delta X   Delta X     New X
                                 (Linear)    (Quad)   (Total)
    R2        2.62303  -0.00007   0.00000  -0.00034  -0.00034   2.62269
    R3        2.73341   0.00052   0.00000   0.00134   0.00134   2.73476
    R4        2.60868   0.00006   0.00000  -0.00081  -0.00081   2.60787
    R5        2.54500  -0.00006   0.00000  -0.00010  -0.00010   2.54489
    R6        2.03279  -0.00006   0.00000  -0.00018  -0.00018   2.03262
    R7        2.05222  -0.00012   0.00000  -0.00034  -0.00034   2.05188
    R8        2.67538   0.00034   0.00000   0.00171   0.00171   2.67709
    R9        2.58322   0.00077   0.00000   0.00110   0.00110   2.58432
   R10        1.89892   0.00003   0.00000   0.00007   0.00007   1.89899
   R11        2.74689  -0.00051   0.00000  -0.00134  -0.00134   2.74555
   R12        2.04664  -0.00011   0.00000  -0.00031  -0.00031   2.04633
   R13        2.03623   0.00022   0.00000   0.00062   0.00062   2.03684
   R14        2.03444   0.00014   0.00000   0.00039   0.00039   2.03483
   R15        2.49287  -0.00090   0.00000  -0.00145  -0.00145   2.49142
   R16        2.05091   0.00026   0.00000   0.00073   0.00073   2.05164
   R17        2.19025   0.00146   0.00000   0.00114   0.00114   2.19139
    A3        2.33607  -0.00027   0.00000  -0.00052  -0.00052   2.33555
    A4        1.85370   0.00174   0.00000   0.00060   0.00060   1.85430
    A5        2.26847  -0.00041   0.00000  -0.00083  -0.00083   2.26763
    A6        2.19777  -0.00035   0.00000  -0.00066  -0.00066   2.19711
    A7        2.00054   0.00004   0.00000   0.00050   0.00050   2.00104
    A8        1.88586  -0.00005   0.00000  -0.00089  -0.00089   1.88496
    A9        1.93157   0.00157   0.00000   0.00092   0.00092   1.93250
   A10        2.16368  -0.00074   0.00000  -0.00275  -0.00275   2.16093
   A11        2.29105   0.00012   0.00000   0.00061   0.00061   2.29166
   A12        2.02871   0.00008   0.00000  -0.00012  -0.00012   2.02859
   A13        2.20962  -0.00014   0.00000  -0.00085  -0.00085   2.20876
   A14        2.11817  -0.00023   0.00000  -0.00009  -0.00009   2.11808
   A15        2.25544  -0.00069   0.00000  -0.00150  -0.00150   2.25394
   A16        2.06115  -0.00018   0.00000   0.00012   0.00012   2.06127
   A17        3.08501   0.00075   0.00000   0.00278   0.00278   3.08779
    D4        3.05848  -0.00029   0.00000  -0.00194  -0.00194   3.05654
    D5       -0.45572  -0.00019   0.00000  -0.00053  -0.00053  -0.45626
    D6        0.02167  -0.00032   0.00000  -0.00052  -0.00052   0.02116
    D7        3.12453  -0.00030   0.00000  -0.00309  -0.00309   3.12144
    D8       -3.08873  -0.00016   0.00000   0.00169   0.00169  -3.08705
    D9        0.01284   0.00012   0.00000   0.00005   0.00005   0.01289
   D10        3.09347   0.00029   0.00000   0.00356   0.00356   3.09703
   D11       -0.09057  -0.00013   0.00000  -0.00134  -0.00134  -0.09191
   D12       -3.13057  -0.00012   0.00000  -0.00066  -0.00066  -3.13123
   D13        3.13196  -0.00013   0.00000  -0.00172  -0.00172   3.13024
   D14        3.13107   0.00015   0.00000   0.00282   0.00282   3.13389
   D15       -0.31687   0.00000   0.00000   0.00018   0.00018  -0.31669
   D16       -3.02535   0.00003   0.00000   0.00035   0.00035  -3.02500
   D17        3.08879   0.00000   0.00000   0.00024   0.00024   3.08903
         Item               Value     Threshold  Converged?
 Maximum Force            0.001736     0.000450     NO 
 RMS     Force            0.000525     0.000300     NO 
 Maximum Displacement     0.003563     0.001800     NO 
 RMS     Displacement     0.001320     0.001200     NO 
 Predicted change in Energy=-9.132943D-06
 GradGradGradGradGradGradGradGradGradGradGradGradGradGradGradGradGradGrad

 ---------------------------------------------------------------------------------------------------
                            Z-MATRIX (ANGSTROMS AND DEGREES)
   CD    Cent   Atom    N1       Length/X        N2       Alpha/Y        N3        Beta/Z          J
 ---------------------------------------------------------------------------------------------------
      1      1  C 
      2      2  C        1   1.387869(     1)
      3      3  C        1   1.447171(     2)      2  133.817(    17)
      4      4  N        1   1.380024(     3)      2  106.243(    18)      3  175.127(    32)      0
      5      5  C        3   1.346698(     4)      1  129.926(    19)      2  -26.142(    33)      0
      6      6  H        2   1.075615(     5)      1  125.885(    20)      3    1.212(    34)      0
      7      7  H        3   1.085809(     6)      1  114.651(    21)      5  178.846(    35)      0
      8      8  C        2   1.416656(     7)      1  108.000(    22)      6 -176.875(    36)      0
      9      9  C        4   1.367565(     8)      1  110.724(    23)      2    0.738(    37)      0
     10     10  H        4   1.004902(     9)      1  123.812(    24)      9  177.447(    38)      0
     11     11  C        5   1.452883(    10)      3  131.302(    25)      1   -5.266(    39)      0
     12     12  H        5   1.082870(    11)      3  116.229(    26)     11 -179.406(    40)      0
     13     13  H        8   1.077852(    12)      2  126.553(    27)      1  179.350(    41)      0
     14     14  H        9   1.076787(    13)      4  121.357(    28)      1  179.559(    42)      0
     15     15  C       11   1.318402(    14)      5  129.141(    29)      3  -18.145(    43)      0
     16     16  H       11   1.085681(    15)      5  118.102(    30)     15 -173.320(    44)      0
     17     17  O       15   1.159634(    16)     11  176.918(    31)      5  176.988(    45)      0
 ---------------------------------------------------------------------------------------------------
                         Z-Matrix orientation:                         
 ---------------------------------------------------------------------
 Center     Atomic      Atomic             Coordinates (Angstroms)
 Number     Number       Type             X           Y           Z
 ---------------------------------------------------------------------
      1          6           0        0.000000    0.000000    0.000000
      2          6           0        0.000000    0.000000    1.387869
      3          6           0        1.044209    0.000000   -1.001964
      4          7           0       -1.320146   -0.112552   -0.386019
      5          6           0        2.309743    0.455019   -0.931417
      6          1           0        0.871262    0.018435    2.018353
      7          1           0        0.763813   -0.452557   -1.948299
      8          6           0       -1.343457   -0.101898    1.825651
      9          6           0       -2.140941   -0.165989    0.706534
     10          1           0       -1.624738   -0.111983   -1.343648
     11          6           0        3.012483    1.176285    0.115866
     12          1           0        2.933147    0.271935   -1.797705
     13          1           0       -1.684692   -0.137634    2.847437
     14          1           0       -3.209463   -0.247413    0.601177
     15          6           0        2.520231    1.852612    1.134911
     16          1           0        4.090184    1.277705    0.032331
     17          8           0        2.145701    2.457775    2.050474
 ---------------------------------------------------------------------
                    Distance matrix (angstroms):
                    1          2          3          4          5
     1  C    0.000000
     2  C    1.387869   0.000000
     3  C    1.447171   2.608002   0.000000
     4  N    1.380024   2.214077   2.445860   0.000000
     5  C    2.531698   3.304701   1.346698   3.714255   0.000000
     6  H    2.198451   1.075615   3.025320   3.255831   3.310737
     7  H    2.141048   3.452280   1.085809   2.626635   2.060981
     8  C    2.268978   1.416656   3.702261   2.211819   4.610581
     9  C    2.260613   2.252865   3.618245   1.367565   4.783004
    10  H    2.111327   3.180173   2.693058   1.004902   3.996444
    11  C    3.236066   3.475154   2.550940   4.548040   1.452883
    12  H    3.450949   4.338800   2.067666   4.497910   1.082870
    13  H    3.311348   2.233264   4.720564   3.254038   5.530505
    14  H    3.274642   3.313722   4.552472   2.135946   5.770953
    15  C    3.327425   3.138108   3.190148   4.574231   2.503454
    16  H    4.285228   4.494399   3.461251   5.601741   2.185313
    17  O    3.853457   3.329224   4.070788   4.955318   3.595777
                    6          7          8          9         10
     6  H    0.000000
     7  H    3.995962   0.000000
     8  C    2.226342   4.336618   0.000000
     9  C    3.290631   3.945613   1.375686   0.000000
    10  H    4.189281   2.487322   3.181773   2.114859   0.000000
    11  C    3.089482   3.459829   4.850911   5.358020   5.029278
    12  H    4.344875   2.292068   5.617634   5.675330   4.596507
    13  H    2.691587   5.393833   1.077852   2.189163   4.191592
    14  H    4.327977   4.725340   2.236625   1.076787   2.512377
    15  C    2.619880   4.231429   4.384668   5.097527   5.213794
    16  H    3.986415   4.240453   5.885895   6.431619   6.040271
    17  O    2.752382   5.135156   4.333208   5.202462   5.686820
                   11         12         13         14         15
    11  C    0.000000
    12  H    2.117994   0.000000
    13  H    5.590288   6.562738   0.000000
    14  H    6.401177   6.614834   2.717106   0.000000
    15  C    1.318402   3.356974   4.957338   6.125714   0.000000
    16  H    1.085681   2.387329   6.578540   7.478932   2.002736
    17  O    2.477143   4.495159   4.695019   6.172219   1.159634
                   16         17
    16  H    0.000000
    17  O    3.040803   0.000000
 Symmetry turned off by external request.
 Stoichiometry    C8H7NO
 Framework group  C1[X(C8H7NO)]
 Deg. of freedom    45
 Full point group                 C1      NOp   1
 Rotational constants (GHZ):           2.4007235           0.9809690           0.7323759
 Standard basis: def2TZVP (5D, 7F)
 The following finite field(s) will be applied:
 An electric field of             -0.0042  0.0009  0.0025
   352 basis functions,   566 primitive gaussians,   402 cartesian basis functions
    35 alpha electrons       35 beta electrons
       nuclear repulsion energy       460.3982850502 Hartrees.
 NAtoms=   17 NActive=   17 NUniq=   17 SFac= 1.00D+00 NAtFMM=   60 NAOKFM=F Big=F
 Integral buffers will be    131072 words long.
 Raffenetti 2 integral format.
 Two-electron integral symmetry is turned off.
 One-electron integrals computed using PRISM.
   1 Symmetry operations used in ECPInt.
 ECPInt:  NShTT=    9591 NPrTT=   29644 LenC2=    9223 LenP2D=   22146.
 LDataN:  DoStor=T MaxTD1= 6 Len=  172
 NBasis=   352 RedAO= T EigKep=  3.33D-05  NBF=   352
 NBsUse=   352 1.00D-06 EigRej= -1.00D+00 NBFU=   352
 The nuclear repulsion energy is now       460.2828674656 hartrees.
 Initial guess from the checkpoint file:  "checkpoint.chk"
 B after Tr=    -0.000281   -0.003385   -0.001020
         Rot=    0.999999    0.000668    0.000441   -0.000838 Ang=   0.13 deg.
 Requested convergence on RMS density matrix=1.00D-08 within 128 cycles.
 Requested convergence on MAX density matrix=1.00D-06.
 Requested convergence on             energy=1.00D-06.
 No special actions if energy rises.
 SCF Done:  E(RB3LYP) =  -439.157609301     A.U. after    9 cycles
            NFock=  9  Conv=0.56D-08     -V/T= 2.0049
   1 Symmetry operations used in ECPInt.
 ECPInt:  NShTT=    9591 NPrTT=   29644 LenC2=    9223 LenP2D=   22146.
 LDataN:  DoStor=T MaxTD1= 7 Len=  274
 Calling FoFJK, ICntrl=      2127 FMM=F ISym2X=0 I1Cent= 0 IOpClX= 0 NMat=1 NMatS=1 NMatT=0.
 -------------------------------------------------------------------
 Center     Atomic                   Forces (Hartrees/Bohr)
 Number     Number              X              Y              Z
 -------------------------------------------------------------------
      1        6           0.001032914   -0.000768395    0.000099103
      2        6          -0.001338748    0.000372323    0.000057952
      3        6           0.000064163    0.000367641   -0.000268908
      4        7           0.000119654    0.000260663   -0.000140687
      5        6          -0.000137936    0.000023688    0.000111539
      6        1          -0.000016646   -0.000012095   -0.000028598
      7        1           0.000029422   -0.000071949    0.000049832
      8        6          -0.000078037   -0.000056522   -0.000074626
      9        6          -0.000006371    0.000033750    0.000269213
     10        1           0.000114187   -0.000115672   -0.000052872
     11        6           0.000086541    0.000086752    0.000097628
     12        1           0.000013583   -0.000041902   -0.000013271
     13        1           0.000029310   -0.000029119    0.000022625
     14        1           0.000051784   -0.000005506   -0.000038200
     15        6           0.000309301   -0.000152838   -0.000195731
     16        1          -0.000013171   -0.000038236   -0.000050460
     17        8          -0.000259951    0.000147418    0.000155462
 -------------------------------------------------------------------
 Cartesian Forces:  Max     0.001338748 RMS     0.000293144
 -----------------------------------------------------------------------------------------------
                       Internal Coordinate Forces (Hartree/Bohr or radian)
  Cent   Atom   N1       Length/X         N2         Alpha/Y        N3         Beta/Z          J
 -----------------------------------------------------------------------------------------------
      1  C 
      2  C        1  -0.000023(     1)
      3  C        1   0.000145(     2)      2  -0.000177(    17)
      4  N        1  -0.000292(     3)      2  -0.000031(    18)      3   0.000326(    32)     0
      5  C        3   0.000012(     4)      1  -0.000113(    19)      2  -0.000278(    33)     0
      6  H        2  -0.000030(     5)      1  -0.000027(    20)      3   0.000209(    34)     0
      7  H        3  -0.000021(     6)      1  -0.000010(    21)      5  -0.000167(    35)     0
      8  C        2   0.000036(     7)      1  -0.000111(    22)      6   0.000229(    36)     0
      9  C        4   0.000156(     8)      1  -0.000370(    23)      2   0.000250(    37)     0
     10  H        4   0.000016(     9)      1  -0.000214(    24)      9   0.000201(    38)     0
     11  C        5   0.000086(    10)      3   0.000130(    25)      1  -0.000246(    39)     0
     12  H        5   0.000026(    11)      3  -0.000030(    26)     11  -0.000065(    40)     0
     13  H        8   0.000013(    12)      2  -0.000067(    27)      1  -0.000051(    41)     0
     14  H        9  -0.000047(    13)      4  -0.000088(    28)      1   0.000016(    42)     0
     15  C       11  -0.000052(    14)      5  -0.000307(    29)      3  -0.000110(    43)     0
     16  H       11  -0.000013(    15)      5  -0.000130(    30)     15  -0.000010(    44)     0
     17  O       15   0.000284(    16)     11   0.000392(    31)      5   0.000004(    45)     0
 -----------------------------------------------------------------------------------------------
 Internal  Forces:  Max     0.000392253 RMS     0.000167021

 GradGradGradGradGradGradGradGradGradGradGradGradGradGradGradGradGradGrad
 Berny optimization.
 Search for a local minimum.
 Step number   2 out of a maximum of   55
 All quantities printed in internal units (Hartrees-Bohrs-Radians)
 Update second derivatives using D2CorN and points    1    2
 DE= -1.15D-05 DEPred=-9.13D-06 R= 1.26D+00
 TightC=F SS=  1.41D+00  RLast= 8.85D-03 DXNew= 1.6818D-01 2.6558D-02
 Trust test= 1.26D+00 RLast= 8.85D-03 DXMaxT set to 1.00D-01
 ITU=  1  0
     Eigenvalues ---    0.02498   0.02742   0.03271   0.04041   0.06039
     Eigenvalues ---    0.07805   0.09059   0.09184   0.14236   0.14944
     Eigenvalues ---    0.16441   0.19891   0.20413   0.20790   0.21856
     Eigenvalues ---    0.23594   0.24568   0.25375   0.26000   0.28420
     Eigenvalues ---    0.29995   0.35271   0.35370   0.35640   0.36277
     Eigenvalues ---    0.36434   0.36512   0.37868   0.38327   0.39482
     Eigenvalues ---    0.44608   0.46844   0.48566   0.51006   0.53554
     Eigenvalues ---    0.54680   0.55592   0.55722   0.60503   0.62125
     Eigenvalues ---    0.75046   1.28057   1.73980   1.85193  16.30326
 RFO step:  Lambda=-5.13626330D-06 EMin= 2.49791471D-02
 Quartic linear search produced a step of  0.34385.
 Variable       Old X    -DE/DX   Delta X   Delta X   Delta X     New X
                                 (Linear)    (Quad)   (Total)
    R2        2.62269  -0.00002  -0.00012   0.00010  -0.00002   2.62268
    R3        2.73476   0.00015   0.00046   0.00027   0.00073   2.73548
    R4        2.60787  -0.00029  -0.00028  -0.00062  -0.00089   2.60697
    R5        2.54489   0.00001  -0.00004   0.00007   0.00003   2.54492
    R6        2.03262  -0.00003  -0.00006  -0.00009  -0.00015   2.03247
    R7        2.05188  -0.00002  -0.00012  -0.00001  -0.00013   2.05175
    R8        2.67709   0.00004   0.00059  -0.00044   0.00015   2.67724
    R9        2.58432   0.00016   0.00038   0.00020   0.00058   2.58490
   R10        1.89899   0.00002   0.00003   0.00004   0.00007   1.89906
   R11        2.74555   0.00009  -0.00046   0.00073   0.00027   2.74582
   R12        2.04633   0.00003  -0.00011   0.00020   0.00009   2.04642
   R13        2.03684   0.00001   0.00021  -0.00010   0.00011   2.03696
   R14        2.03483  -0.00005   0.00013  -0.00031  -0.00018   2.03465
   R15        2.49142  -0.00005  -0.00050   0.00028  -0.00022   2.49120
   R16        2.05164  -0.00001   0.00025  -0.00025   0.00000   2.05164
   R17        2.19139   0.00028   0.00039   0.00000   0.00039   2.19179
    A3        2.33555  -0.00018  -0.00018  -0.00045  -0.00062   2.33493
    A4        1.85430  -0.00003   0.00021   0.00052   0.00073   1.85503
    A5        2.26763  -0.00011  -0.00029  -0.00005  -0.00034   2.26729
    A6        2.19711  -0.00003  -0.00023   0.00015  -0.00008   2.19703
    A7        2.00104  -0.00001   0.00017  -0.00004   0.00013   2.00117
    A8        1.88496  -0.00011  -0.00031  -0.00006  -0.00037   1.88459
    A9        1.93250  -0.00037   0.00032  -0.00079  -0.00047   1.93202
   A10        2.16093  -0.00021  -0.00095  -0.00014  -0.00109   2.15984
   A11        2.29166   0.00013   0.00021   0.00080   0.00101   2.29267
   A12        2.02859  -0.00003  -0.00004  -0.00065  -0.00070   2.02789
   A13        2.20876  -0.00007  -0.00029  -0.00012  -0.00041   2.20836
   A14        2.11808  -0.00009  -0.00003  -0.00057  -0.00060   2.11748
   A15        2.25394  -0.00031  -0.00052  -0.00054  -0.00105   2.25288
   A16        2.06127  -0.00013   0.00004  -0.00024  -0.00019   2.06108
   A17        3.08779   0.00039   0.00096   0.00175   0.00270   3.09050
    D4        3.05654   0.00033  -0.00067   0.00022  -0.00045   3.05609
    D5       -0.45626  -0.00028  -0.00018  -0.00195  -0.00213  -0.45839
    D6        0.02116   0.00021  -0.00018   0.00025   0.00007   0.02123
    D7        3.12144  -0.00017  -0.00106  -0.00266  -0.00372   3.11772
    D8       -3.08705   0.00023   0.00058   0.00240   0.00298  -3.08406
    D9        0.01289   0.00025   0.00002  -0.00198  -0.00196   0.01093
   D10        3.09703   0.00020   0.00123   0.00404   0.00527   3.10230
   D11       -0.09191  -0.00025  -0.00046  -0.00316  -0.00362  -0.09553
   D12       -3.13123  -0.00006  -0.00023   0.00054   0.00031  -3.13092
   D13        3.13024  -0.00005  -0.00059  -0.00347  -0.00406   3.12618
   D14        3.13389   0.00002   0.00097   0.00228   0.00325   3.13714
   D15       -0.31669  -0.00011   0.00006  -0.00102  -0.00096  -0.31765
   D16       -3.02500  -0.00001   0.00012   0.00052   0.00064  -3.02437
   D17        3.08903   0.00000   0.00008   0.00043   0.00052   3.08955
         Item               Value     Threshold  Converged?
 Maximum Force            0.000392     0.000450     YES
 RMS     Force            0.000167     0.000300     YES
 Maximum Displacement     0.005269     0.001800     NO 
 RMS     Displacement     0.001606     0.001200     NO 
 Predicted change in Energy=-3.039602D-06
 GradGradGradGradGradGradGradGradGradGradGradGradGradGradGradGradGradGrad

 ---------------------------------------------------------------------------------------------------
                            Z-MATRIX (ANGSTROMS AND DEGREES)
   CD    Cent   Atom    N1       Length/X        N2       Alpha/Y        N3        Beta/Z          J
 ---------------------------------------------------------------------------------------------------
      1      1  C 
      2      2  C        1   1.387860(     1)
      3      3  C        1   1.447555(     2)      2  133.781(    17)
      4      4  N        1   1.379551(     3)      2  106.285(    18)      3  175.101(    32)      0
      5      5  C        3   1.346714(     4)      1  129.906(    19)      2  -26.264(    33)      0
      6      6  H        2   1.075534(     5)      1  125.880(    20)      3    1.216(    34)      0
      7      7  H        3   1.085742(     6)      1  114.659(    21)      5  178.632(    35)      0
      8      8  C        2   1.416737(     7)      1  107.979(    22)      6 -176.704(    36)      0
      9      9  C        4   1.367869(     8)      1  110.697(    23)      2    0.626(    37)      0
     10     10  H        4   1.004937(     9)      1  123.750(    24)      9  177.749(    38)      0
     11     11  C        5   1.453027(    10)      3  131.360(    25)      1   -5.473(    39)      0
     12     12  H        5   1.082920(    11)      3  116.190(    26)     11 -179.388(    40)      0
     13     13  H        8   1.077910(    12)      2  126.529(    27)      1  179.117(    41)      0
     14     14  H        9   1.076691(    13)      4  121.322(    28)      1  179.745(    42)      0
     15     15  C       11   1.318286(    14)      5  129.081(    29)      3  -18.200(    43)      0
     16     16  H       11   1.085681(    15)      5  118.091(    30)     15 -173.283(    44)      0
     17     17  O       15   1.159843(    16)     11  177.072(    31)      5  177.018(    45)      0
 ---------------------------------------------------------------------------------------------------
                         Z-Matrix orientation:                         
 ---------------------------------------------------------------------
 Center     Atomic      Atomic             Coordinates (Angstroms)
 Number     Number       Type             X           Y           Z
 ---------------------------------------------------------------------
      1          6           0        0.000000    0.000000    0.000000
      2          6           0        0.000000    0.000000    1.387860
      3          6           0        1.045112    0.000000   -1.001578
      4          7           0       -1.319362   -0.113080   -0.386854
      5          6           0        2.309873    0.457128   -0.930508
      6          1           0        0.871247    0.018500    2.018225
      7          1           0        0.767294   -0.457628   -1.946156
      8          6           0       -1.343379   -0.106024    1.825166
      9          6           0       -2.140390   -0.169419    0.705759
     10          1           0       -1.621974   -0.115232   -1.345144
     11          6           0        3.010636    1.184514    0.114063
     12          1           0        2.934764    0.270638   -1.795059
     13          1           0       -1.684220   -0.146313    2.846976
     14          1           0       -3.208431   -0.254673    0.599529
     15          6           0        2.515158    1.866008    1.127939
     16          1           0        4.088377    1.286193    0.031362
     17          8           0        2.134664    2.475581    2.038369
 ---------------------------------------------------------------------
                    Distance matrix (angstroms):
                    1          2          3          4          5
     1  C    0.000000
     2  C    1.387860   0.000000
     3  C    1.447555   2.608001   0.000000
     4  N    1.379551   2.214298   2.445692   0.000000
     5  C    2.531862   3.304438   1.346714   3.713765   0.000000
     6  H    2.198328   1.075534   3.024861   3.255839   3.310147
     7  H    2.141422   3.451641   1.085742   2.627597   2.061036
     8  C    2.268730   1.416737   3.702243   2.212162   4.610545
     9  C    2.260104   2.252828   3.618166   1.367869   4.782758
    10  H    2.110330   3.180156   2.691591   1.004937   3.994864
    11  C    3.237285   3.477005   2.551669   4.547918   1.453027
    12  H    3.450844   4.337863   2.067279   4.497541   1.082920
    13  H    3.311083   2.233164   4.720383   3.254517   5.530488
    14  H    3.273885   3.313662   4.552036   2.135786   5.770559
    15  C    3.328702   3.142542   3.190277   4.573286   2.502857
    16  H    4.286036   4.495465   3.461607   5.601475   2.185319
    17  O    3.852303   3.332935   4.069017   4.951078   3.594312
                    6          7          8          9         10
     6  H    0.000000
     7  H    3.994224   0.000000
     8  C    2.226510   4.336062   0.000000
     9  C    3.290568   3.945928   1.375615   0.000000
    10  H    4.188829   2.487378   3.182541   2.116104   0.000000
    11  C    3.092315   3.460306   4.852917   5.358760   5.027893
    12  H    4.343134   2.291534   5.616975   5.674939   4.595126
    13  H    2.691542   5.392675   1.077910   2.189391   4.192697
    14  H    4.327943   4.725261   2.236672   1.076691   2.513572
    15  C    2.628372   4.231357   4.389003   5.098562   5.211269
    16  H    3.988057   4.240411   5.887272   6.432042   6.038781
    17  O    2.762947   5.133211   4.336695   5.200766   5.680916
                   11         12         13         14         15
    11  C    0.000000
    12  H    2.117941   0.000000
    13  H    5.592994   6.561809   0.000000
    14  H    6.401854   6.614291   2.717715   0.000000
    15  C    1.318286   3.356366   4.963799   6.126661   0.000000
    16  H    1.085681   2.387046   6.580474   7.479338   2.003419
    17  O    2.477324   4.494118   4.702345   6.170349   1.159843
                   16         17
    16  H    0.000000
    17  O    3.042978   0.000000
 Symmetry turned off by external request.
 Stoichiometry    C8H7NO
 Framework group  C1[X(C8H7NO)]
 Deg. of freedom    45
 Full point group                 C1      NOp   1
 Rotational constants (GHZ):           2.4007415           0.9801823           0.7326603
 Standard basis: def2TZVP (5D, 7F)
 The following finite field(s) will be applied:
 An electric field of             -0.0042  0.0009  0.0025
   352 basis functions,   566 primitive gaussians,   402 cartesian basis functions
    35 alpha electrons       35 beta electrons
       nuclear repulsion energy       460.3606822088 Hartrees.
 NAtoms=   17 NActive=   17 NUniq=   17 SFac= 1.00D+00 NAtFMM=   60 NAOKFM=F Big=F
 Integral buffers will be    131072 words long.
 Raffenetti 2 integral format.
 Two-electron integral symmetry is turned off.
 One-electron integrals computed using PRISM.
   1 Symmetry operations used in ECPInt.
 ECPInt:  NShTT=    9591 NPrTT=   29644 LenC2=    9223 LenP2D=   22143.
 LDataN:  DoStor=T MaxTD1= 6 Len=  172
 NBasis=   352 RedAO= T EigKep=  3.34D-05  NBF=   352
 NBsUse=   352 1.00D-06 EigRej= -1.00D+00 NBFU=   352
 The nuclear repulsion energy is now       460.2457502588 hartrees.
 Initial guess from the checkpoint file:  "checkpoint.chk"
 B after Tr=     0.001075   -0.001040   -0.001125
         Rot=    0.999997    0.001751    0.000270   -0.001652 Ang=   0.28 deg.
 Requested convergence on RMS density matrix=1.00D-08 within 128 cycles.
 Requested convergence on MAX density matrix=1.00D-06.
 Requested convergence on             energy=1.00D-06.
 No special actions if energy rises.
 SCF Done:  E(RB3LYP) =  -439.157612192     A.U. after    9 cycles
            NFock=  9  Conv=0.79D-08     -V/T= 2.0050
   1 Symmetry operations used in ECPInt.
 ECPInt:  NShTT=    9591 NPrTT=   29644 LenC2=    9223 LenP2D=   22143.
 LDataN:  DoStor=T MaxTD1= 7 Len=  274
 Calling FoFJK, ICntrl=      2127 FMM=F ISym2X=0 I1Cent= 0 IOpClX= 0 NMat=1 NMatS=1 NMatT=0.
 -------------------------------------------------------------------
 Center     Atomic                   Forces (Hartrees/Bohr)
 Number     Number              X              Y              Z
 -------------------------------------------------------------------
      1        6           0.001484783   -0.000479602   -0.000016007
      2        6          -0.001456189    0.000106241   -0.000057996
      3        6           0.000115116    0.000331960    0.000097338
      4        7           0.000013316    0.000135171    0.000085085
      5        6          -0.000123528    0.000000882   -0.000083689
      6        1           0.000069323    0.000038180    0.000009559
      7        1           0.000007531   -0.000046879   -0.000001969
      8        6           0.000031289    0.000051687   -0.000064680
      9        6          -0.000068259   -0.000135260   -0.000012435
     10        1          -0.000042971   -0.000079034    0.000042659
     11        6           0.000161358    0.000021635    0.000051166
     12        1           0.000023061    0.000010851   -0.000006462
     13        1          -0.000016245    0.000084199   -0.000033778
     14        1          -0.000026994    0.000032763    0.000008057
     15        6          -0.000122851    0.000046711    0.000163072
     16        1          -0.000042217   -0.000035417   -0.000025215
     17        8          -0.000006524   -0.000084086   -0.000154704
 -------------------------------------------------------------------
 Cartesian Forces:  Max     0.001484783 RMS     0.000310569
 -----------------------------------------------------------------------------------------------
                       Internal Coordinate Forces (Hartree/Bohr or radian)
  Cent   Atom   N1       Length/X         N2         Alpha/Y        N3         Beta/Z          J
 -----------------------------------------------------------------------------------------------
      1  C 
      2  C        1  -0.000147(     1)
      3  C        1  -0.000019(     2)      2  -0.000397(    17)
      4  N        1   0.000089(     3)      2  -0.000317(    18)      3  -0.000212(    32)     0
      5  C        3  -0.000120(     4)      1  -0.000358(    19)      2  -0.000083(    33)     0
      6  H        2   0.000062(     5)      1  -0.000068(    20)      3  -0.000337(    34)     0
      7  H        3   0.000020(     6)      1  -0.000003(    21)      5  -0.000081(    35)     0
      8  C        2  -0.000055(     7)      1  -0.000270(    22)      6  -0.000397(    36)     0
      9  C        4   0.000058(     8)      1   0.000200(    23)      2  -0.000099(    37)     0
     10  H        4  -0.000028(     9)      1   0.000116(    24)      9   0.000116(    38)     0
     11  C        5  -0.000006(    10)      3  -0.000437(    25)      1   0.000067(    39)     0
     12  H        5   0.000017(    11)      3   0.000040(    26)     11   0.000010(    40)     0
     13  H        8  -0.000030(    12)      2   0.000042(    27)      1   0.000139(    41)     0
     14  H        9   0.000023(    13)      4   0.000022(    28)      1  -0.000060(    42)     0
     15  C       11   0.000036(    14)      5  -0.000452(    29)      3   0.000014(    43)     0
     16  H       11  -0.000043(    15)      5  -0.000083(    30)     15  -0.000022(    44)     0
     17  O       15  -0.000163(    16)     11   0.000141(    31)      5   0.000002(    45)     0
 -----------------------------------------------------------------------------------------------
 Internal  Forces:  Max     0.000452156 RMS     0.000177113

 GradGradGradGradGradGradGradGradGradGradGradGradGradGradGradGradGradGrad
 Berny optimization.
 Search for a local minimum.
 Step number   3 out of a maximum of   55
 All quantities printed in internal units (Hartrees-Bohrs-Radians)
 Update second derivatives using D2CorN and points    1    2    3
 DE= -2.89D-06 DEPred=-3.04D-06 R= 9.51D-01
 TightC=F SS=  1.41D+00  RLast= 1.08D-02 DXNew= 1.6818D-01 3.2323D-02
 Trust test= 9.51D-01 RLast= 1.08D-02 DXMaxT set to 1.00D-01
 ITU=  1  1  0
     Eigenvalues ---    0.02655   0.03194   0.03278   0.04119   0.06040
     Eigenvalues ---    0.08066   0.08811   0.09089   0.14139   0.14523
     Eigenvalues ---    0.16394   0.19746   0.20451   0.20791   0.21906
     Eigenvalues ---    0.23616   0.24505   0.25458   0.25862   0.28488
     Eigenvalues ---    0.30035   0.35275   0.35385   0.35643   0.36286
     Eigenvalues ---    0.36438   0.36522   0.37884   0.38236   0.39368
     Eigenvalues ---    0.44644   0.46845   0.48570   0.51011   0.53479
     Eigenvalues ---    0.54556   0.55628   0.55730   0.60431   0.62180
     Eigenvalues ---    0.75207   1.28099   1.74105   1.85213  16.30340
 RFO step:  Lambda=-2.73801162D-06 EMin= 2.65525943D-02
 Quartic linear search produced a step of -0.08907.
 Variable       Old X    -DE/DX   Delta X   Delta X   Delta X     New X
                                 (Linear)    (Quad)   (Total)
    R2        2.62268  -0.00015   0.00000  -0.00018  -0.00018   2.62250
    R3        2.73548  -0.00002  -0.00006   0.00012   0.00006   2.73554
    R4        2.60697   0.00009   0.00008  -0.00004   0.00004   2.60702
    R5        2.54492  -0.00012  -0.00000  -0.00022  -0.00023   2.54469
    R6        2.03247   0.00006   0.00001   0.00015   0.00016   2.03262
    R7        2.05175   0.00002   0.00001   0.00003   0.00004   2.05179
    R8        2.67724  -0.00005  -0.00001   0.00007   0.00006   2.67730
    R9        2.58490   0.00006  -0.00005   0.00008   0.00003   2.58493
   R10        1.89906  -0.00003  -0.00001  -0.00005  -0.00005   1.89900
   R11        2.74582  -0.00001  -0.00002   0.00001  -0.00002   2.74581
   R12        2.04642   0.00002  -0.00001   0.00006   0.00005   2.04648
   R13        2.03696  -0.00003  -0.00001  -0.00005  -0.00006   2.03689
   R14        2.03465   0.00002   0.00002   0.00004   0.00006   2.03471
   R15        2.49120   0.00004   0.00002  -0.00000   0.00001   2.49121
   R16        2.05164  -0.00004  -0.00000  -0.00012  -0.00012   2.05152
   R17        2.19179  -0.00016  -0.00004  -0.00005  -0.00009   2.19170
    A3        2.33493  -0.00040   0.00006  -0.00055  -0.00049   2.33443
    A4        1.85503  -0.00032  -0.00007  -0.00005  -0.00011   1.85492
    A5        2.26729  -0.00036   0.00003  -0.00067  -0.00064   2.26665
    A6        2.19703  -0.00007   0.00001  -0.00021  -0.00020   2.19683
    A7        2.00117  -0.00000  -0.00001   0.00032   0.00030   2.00147
    A8        1.88459  -0.00027   0.00003  -0.00008  -0.00005   1.88454
    A9        1.93202   0.00020   0.00004   0.00021   0.00025   1.93228
   A10        2.15984   0.00012   0.00010  -0.00002   0.00007   2.15991
   A11        2.29267  -0.00044  -0.00009  -0.00075  -0.00084   2.29183
   A12        2.02789   0.00004   0.00006   0.00036   0.00042   2.02831
   A13        2.20836   0.00004   0.00004  -0.00009  -0.00005   2.20830
   A14        2.11748   0.00002   0.00005   0.00012   0.00017   2.11765
   A15        2.25288  -0.00045   0.00009  -0.00123  -0.00113   2.25175
   A16        2.06108  -0.00008   0.00002   0.00008   0.00010   2.06117
   A17        3.09050   0.00014  -0.00024   0.00113   0.00088   3.09138
    D4        3.05609  -0.00021   0.00004  -0.00033  -0.00029   3.05580
    D5       -0.45839  -0.00008   0.00019  -0.00077  -0.00058  -0.45896
    D6        0.02123  -0.00034  -0.00001  -0.00006  -0.00007   0.02116
    D7        3.11772  -0.00008   0.00033  -0.00181  -0.00147   3.11624
    D8       -3.08406  -0.00040  -0.00027  -0.00100  -0.00126  -3.08533
    D9        0.01093  -0.00010   0.00017   0.00011   0.00028   0.01121
   D10        3.10230   0.00012  -0.00047   0.00308   0.00261   3.10491
   D11       -0.09553   0.00007   0.00032  -0.00073  -0.00041  -0.09593
   D12       -3.13092   0.00001  -0.00003   0.00002  -0.00001  -3.13093
   D13        3.12618   0.00014   0.00036   0.00162   0.00198   3.12817
   D14        3.13714  -0.00006  -0.00029   0.00093   0.00064   3.13778
   D15       -0.31765   0.00001   0.00009  -0.00007   0.00001  -0.31763
   D16       -3.02437  -0.00002  -0.00006   0.00014   0.00009  -3.02428
   D17        3.08955   0.00000  -0.00005   0.00029   0.00024   3.08979
         Item               Value     Threshold  Converged?
 Maximum Force            0.000452     0.000450     NO 
 RMS     Force            0.000177     0.000300     YES
 Maximum Displacement     0.002611     0.001800     NO 
 RMS     Displacement     0.000661     0.001200     YES
 Predicted change in Energy=-1.492282D-06
 GradGradGradGradGradGradGradGradGradGradGradGradGradGradGradGradGradGrad

 ---------------------------------------------------------------------------------------------------
                            Z-MATRIX (ANGSTROMS AND DEGREES)
   CD    Cent   Atom    N1       Length/X        N2       Alpha/Y        N3        Beta/Z          J
 ---------------------------------------------------------------------------------------------------
      1      1  C 
      2      2  C        1   1.387765(     1)
      3      3  C        1   1.447587(     2)      2  133.753(    17)
      4      4  N        1   1.379574(     3)      2  106.279(    18)      3  175.085(    32)      0
      5      5  C        3   1.346594(     4)      1  129.869(    19)      2  -26.297(    33)      0
      6      6  H        2   1.075619(     5)      1  125.869(    20)      3    1.212(    34)      0
      7      7  H        3   1.085762(     6)      1  114.676(    21)      5  178.548(    35)      0
      8      8  C        2   1.416768(     7)      1  107.976(    22)      6 -176.776(    36)      0
      9      9  C        4   1.367887(     8)      1  110.711(    23)      2    0.642(    37)      0
     10     10  H        4   1.004908(     9)      1  123.754(    24)      9  177.898(    38)      0
     11     11  C        5   1.453019(    10)      3  131.312(    25)      1   -5.497(    39)      0
     12     12  H        5   1.082948(    11)      3  116.214(    26)     11 -179.389(    40)      0
     13     13  H        8   1.077878(    12)      2  126.526(    27)      1  179.231(    41)      0
     14     14  H        9   1.076720(    13)      4  121.332(    28)      1  179.782(    42)      0
     15     15  C       11   1.318294(    14)      5  129.016(    29)      3  -18.199(    43)      0
     16     16  H       11   1.085619(    15)      5  118.097(    30)     15 -173.278(    44)      0
     17     17  O       15   1.159796(    16)     11  177.123(    31)      5  177.032(    45)      0
 ---------------------------------------------------------------------------------------------------
                         Z-Matrix orientation:                         
 ---------------------------------------------------------------------
 Center     Atomic      Atomic             Coordinates (Angstroms)
 Number     Number       Type             X           Y           Z
 ---------------------------------------------------------------------
      1          6           0        0.000000    0.000000    0.000000
      2          6           0        0.000000    0.000000    1.387765
      3          6           0        1.045627    0.000000   -1.001085
      4          7           0       -1.319395   -0.113468   -0.386712
      5          6           0        2.309923    0.457866   -0.928769
      6          1           0        0.871444    0.018442    2.018004
      7          1           0        0.769220   -0.459364   -1.945258
      8          6           0       -1.343570   -0.104236    1.825015
      9          6           0       -2.140601   -0.169702    0.705796
     10          1           0       -1.621949   -0.118129   -1.344981
     11          6           0        3.007986    1.186267    0.116891
     12          1           0        2.936335    0.271421   -1.792264
     13          1           0       -1.684574   -0.142355    2.846820
     14          1           0       -3.208606   -0.255801    0.599597
     15          6           0        2.508533    1.867317    1.129124
     16          1           0        4.085719    1.289045    0.036285
     17          8           0        2.123524    2.476414    2.037912
 ---------------------------------------------------------------------
                    Distance matrix (angstroms):
                    1          2          3          4          5
     1  C    0.000000
     2  C    1.387765   0.000000
     3  C    1.447587   2.607670   0.000000
     4  N    1.379574   2.214147   2.446152   0.000000
     5  C    2.531403   3.303289   1.346594   3.713785   0.000000
     6  H    2.198203   1.075619   3.024165   3.255738   3.308442
     7  H    2.141668   3.451341   1.085762   2.628882   2.061147
     8  C    2.268640   1.416768   3.702157   2.211878   4.609479
     9  C    2.260336   2.253010   3.618604   1.367887   4.782553
    10  H    2.110367   3.180028   2.692245   1.004908   3.995576
    11  C    3.235564   3.474238   2.551069   4.546334   1.453019
    12  H    3.450789   4.336856   2.067464   4.498328   1.082948
    13  H    3.310957   2.233136   4.720236   3.254215   5.529136
    14  H    3.274157   3.313880   4.552595   2.135927   5.770563
    15  C    3.324835   3.137914   3.188221   4.568840   2.502183
    16  H    4.284396   4.492353   3.461203   5.600109   2.185323
    17  O    3.846435   3.326360   4.065709   4.943681   3.593115
                    6          7          8          9         10
     6  H    0.000000
     7  H    3.993268   0.000000
     8  C    2.226787   4.336468   0.000000
     9  C    3.290852   3.947030   1.375572   0.000000
    10  H    4.188714   2.488868   3.182226   2.115973   0.000000
    11  C    3.089151   3.460149   4.849652   5.356623   5.027407
    12  H    4.341188   2.292126   5.616352   5.675400   4.596712
    13  H    2.691843   5.393107   1.077878   2.189222   4.192338
    14  H    4.328268   4.726608   2.236735   1.076720   2.513527
    15  C    2.624596   4.229713   4.382919   5.093437   5.208078
    16  H    3.984119   4.240591   5.883703   6.429872   6.038668
    17  O    2.758573   5.130163   4.327334   5.192228   5.674873
                   11         12         13         14         15
    11  C    0.000000
    12  H    2.118242   0.000000
    13  H    5.589085   6.560877   0.000000
    14  H    6.399890   6.615079   2.717638   0.000000
    15  C    1.318294   3.356249   4.956955   6.121578   0.000000
    16  H    1.085619   2.387516   6.576039   7.477369   2.004049
    17  O    2.477312   4.493651   4.691897   6.161604   1.159796
                   16         17
    16  H    0.000000
    17  O    3.044103   0.000000
 Symmetry turned off by external request.
 Stoichiometry    C8H7NO
 Framework group  C1[X(C8H7NO)]
 Deg. of freedom    45
 Full point group                 C1      NOp   1
 Rotational constants (GHZ):           2.4000923           0.9821320           0.7337679
 Standard basis: def2TZVP (5D, 7F)
 The following finite field(s) will be applied:
 An electric field of             -0.0042  0.0009  0.0025
   352 basis functions,   566 primitive gaussians,   402 cartesian basis functions
    35 alpha electrons       35 beta electrons
       nuclear repulsion energy       460.4919745654 Hartrees.
 NAtoms=   17 NActive=   17 NUniq=   17 SFac= 1.00D+00 NAtFMM=   60 NAOKFM=F Big=F
 Integral buffers will be    131072 words long.
 Raffenetti 2 integral format.
 Two-electron integral symmetry is turned off.
 One-electron integrals computed using PRISM.
   1 Symmetry operations used in ECPInt.
 ECPInt:  NShTT=    9591 NPrTT=   29644 LenC2=    9224 LenP2D=   22145.
 LDataN:  DoStor=T MaxTD1= 6 Len=  172
 NBasis=   352 RedAO= T EigKep=  3.34D-05  NBF=   352
 NBsUse=   352 1.00D-06 EigRej= -1.00D+00 NBFU=   352
 The nuclear repulsion energy is now       460.3784524963 hartrees.
 Initial guess from the checkpoint file:  "checkpoint.chk"
 B after Tr=    -0.002044   -0.000767    0.000897
         Rot=    1.000000    0.000385    0.000459   -0.000475 Ang=   0.09 deg.
 Requested convergence on RMS density matrix=1.00D-08 within 128 cycles.
 Requested convergence on MAX density matrix=1.00D-06.
 Requested convergence on             energy=1.00D-06.
 No special actions if energy rises.
 SCF Done:  E(RB3LYP) =  -439.157613536     A.U. after    8 cycles
            NFock=  8  Conv=0.73D-08     -V/T= 2.0049
   1 Symmetry operations used in ECPInt.
 ECPInt:  NShTT=    9591 NPrTT=   29644 LenC2=    9224 LenP2D=   22145.
 LDataN:  DoStor=T MaxTD1= 7 Len=  274
 Calling FoFJK, ICntrl=      2127 FMM=F ISym2X=0 I1Cent= 0 IOpClX= 0 NMat=1 NMatS=1 NMatT=0.
 -------------------------------------------------------------------
 Center     Atomic                   Forces (Hartrees/Bohr)
 Number     Number              X              Y              Z
 -------------------------------------------------------------------
      1        6           0.001427461   -0.000614692   -0.000024639
      2        6          -0.001483394    0.000310064    0.000023641
      3        6           0.000007883    0.000175132    0.000056097
      4        7           0.000000749    0.000065486   -0.000040002
      5        6          -0.000075418    0.000018266   -0.000085593
      6        1          -0.000025930    0.000058186   -0.000003697
      7        1          -0.000004903    0.000004419   -0.000009387
      8        6           0.000055544   -0.000156498    0.000046867
      9        6           0.000034089    0.000025571   -0.000039546
     10        1          -0.000036487   -0.000055465    0.000008668
     11        6           0.000173445    0.000047461    0.000044148
     12        1           0.000013481    0.000011979    0.000017151
     13        1          -0.000011087    0.000021227   -0.000003282
     14        1          -0.000000658    0.000072948    0.000004802
     15        6          -0.000083361    0.000054061    0.000076079
     16        1          -0.000028224   -0.000015680    0.000007013
     17        8           0.000036810   -0.000022466   -0.000078320
 -------------------------------------------------------------------
 Cartesian Forces:  Max     0.001483394 RMS     0.000309135
 -----------------------------------------------------------------------------------------------
                       Internal Coordinate Forces (Hartree/Bohr or radian)
  Cent   Atom   N1       Length/X         N2         Alpha/Y        N3         Beta/Z          J
 -----------------------------------------------------------------------------------------------
      1  C 
      2  C        1   0.000064(     1)
      3  C        1   0.000010(     2)      2  -0.000080(    17)
      4  N        1   0.000012(     3)      2   0.000050(    18)      3   0.000536(    32)     0
      5  C        3   0.000065(     4)      1   0.000055(    19)      2  -0.000215(    33)     0
      6  H        2  -0.000022(     5)      1   0.000023(    20)      3   0.000434(    34)     0
      7  H        3   0.000008(     6)      1  -0.000000(    21)      5   0.000016(    35)     0
      8  C        2  -0.000019(     7)      1   0.000119(    22)      6   0.000338(    36)     0
      9  C        4  -0.000052(     8)      1  -0.000043(    23)      2   0.000340(    37)     0
     10  H        4   0.000003(     9)      1   0.000081(    24)      9   0.000081(    38)     0
     11  C        5   0.000114(    10)      3   0.000112(    25)      1  -0.000156(    39)     0
     12  H        5  -0.000008(    11)      3   0.000048(    26)     11  -0.000001(    40)     0
     13  H        8  -0.000000(    12)      2   0.000021(    27)      1   0.000036(    41)     0
     14  H        9  -0.000006(    13)      4   0.000010(    28)      1  -0.000126(    42)     0
     15  C       11   0.000032(    14)      5  -0.000070(    29)      3  -0.000119(    43)     0
     16  H       11  -0.000030(    15)      5  -0.000005(    30)     15  -0.000025(    44)     0
     17  O       15  -0.000085(    16)     11  -0.000018(    31)      5   0.000003(    45)     0
 -----------------------------------------------------------------------------------------------
 Internal  Forces:  Max     0.000536390 RMS     0.000141907

 GradGradGradGradGradGradGradGradGradGradGradGradGradGradGradGradGradGrad
 Berny optimization.
 Search for a local minimum.
 Step number   4 out of a maximum of   55
 All quantities printed in internal units (Hartrees-Bohrs-Radians)
 Update second derivatives using D2CorN and points    1    2    3    4
 DE= -1.34D-06 DEPred=-1.49D-06 R= 9.01D-01
 TightC=F SS=  1.41D+00  RLast= 4.44D-03 DXNew= 1.6818D-01 1.3311D-02
 Trust test= 9.01D-01 RLast= 4.44D-03 DXMaxT set to 1.00D-01
 ITU=  1  1  1  0
     Eigenvalues ---    0.01852   0.02695   0.03293   0.04109   0.06123
     Eigenvalues ---    0.07690   0.08196   0.09347   0.13991   0.14389
     Eigenvalues ---    0.16515   0.19931   0.20527   0.20907   0.22181
     Eigenvalues ---    0.23684   0.24496   0.25661   0.26214   0.28467
     Eigenvalues ---    0.30015   0.35275   0.35384   0.35646   0.36288
     Eigenvalues ---    0.36440   0.36540   0.38045   0.38178   0.39341
     Eigenvalues ---    0.44704   0.46846   0.48573   0.51009   0.53500
     Eigenvalues ---    0.54352   0.55661   0.55861   0.60774   0.62184
     Eigenvalues ---    0.75180   1.28078   1.75733   1.85513  16.30348
 RFO step:  Lambda=-2.70349870D-06 EMin= 1.85227699D-02
 Quartic linear search produced a step of -0.06549.
 Variable       Old X    -DE/DX   Delta X   Delta X   Delta X     New X
                                 (Linear)    (Quad)   (Total)
    R2        2.62250   0.00006   0.00001   0.00001   0.00002   2.62251
    R3        2.73554   0.00001  -0.00000   0.00032   0.00032   2.73586
    R4        2.60702   0.00001  -0.00000  -0.00015  -0.00016   2.60686
    R5        2.54469   0.00007   0.00001   0.00009   0.00010   2.54480
    R6        2.03262  -0.00002  -0.00001  -0.00006  -0.00007   2.03256
    R7        2.05179   0.00001  -0.00000   0.00002   0.00001   2.05181
    R8        2.67730  -0.00002  -0.00000  -0.00000  -0.00001   2.67730
    R9        2.58493  -0.00005  -0.00000   0.00011   0.00010   2.58503
   R10        1.89900   0.00000   0.00000  -0.00000   0.00000   1.89900
   R11        2.74581   0.00011   0.00000   0.00055   0.00055   2.74636
   R12        2.04648  -0.00001  -0.00000  -0.00001  -0.00001   2.04647
   R13        2.03689  -0.00000   0.00000   0.00002   0.00003   2.03692
   R14        2.03471  -0.00001  -0.00000  -0.00001  -0.00001   2.03469
   R15        2.49121   0.00003  -0.00000   0.00000  -0.00000   2.49121
   R16        2.05152  -0.00003   0.00001  -0.00019  -0.00018   2.05134
   R17        2.19170  -0.00009   0.00001  -0.00007  -0.00007   2.19163
    A3        2.33443  -0.00008   0.00003  -0.00059  -0.00056   2.33388
    A4        1.85492   0.00005   0.00001   0.00015   0.00016   1.85507
    A5        2.26665   0.00005   0.00004  -0.00016  -0.00012   2.26653
    A6        2.19683   0.00002   0.00001  -0.00009  -0.00008   2.19675
    A7        2.00147  -0.00000  -0.00002   0.00015   0.00013   2.00160
    A8        1.88454   0.00012   0.00000  -0.00004  -0.00004   1.88450
    A9        1.93228  -0.00004  -0.00002  -0.00013  -0.00015   1.93213
   A10        2.15991   0.00008  -0.00000   0.00020   0.00020   2.16011
   A11        2.29183   0.00011   0.00006   0.00029   0.00035   2.29217
   A12        2.02831   0.00005  -0.00003   0.00014   0.00011   2.02842
   A13        2.20830   0.00002   0.00000   0.00002   0.00002   2.20832
   A14        2.11765   0.00001  -0.00001  -0.00006  -0.00007   2.11757
   A15        2.25175  -0.00007   0.00007  -0.00130  -0.00123   2.25052
   A16        2.06117  -0.00001  -0.00001   0.00021   0.00021   2.06138
   A17        3.09138  -0.00002  -0.00006   0.00129   0.00123   3.09261
    D4        3.05580   0.00054   0.00002   0.00018   0.00020   3.05600
    D5       -0.45896  -0.00022   0.00004  -0.00414  -0.00411  -0.46307
    D6        0.02116   0.00043   0.00000   0.00199   0.00199   0.02315
    D7        3.11624   0.00002   0.00010  -0.00242  -0.00232   3.11392
    D8       -3.08533   0.00034   0.00008  -0.00053  -0.00045  -3.08578
    D9        0.01121   0.00034  -0.00002  -0.00080  -0.00081   0.01039
   D10        3.10491   0.00008  -0.00017   0.00613   0.00596   3.11087
   D11       -0.09593  -0.00016   0.00003  -0.00322  -0.00319  -0.09913
   D12       -3.13093  -0.00000   0.00000   0.00088   0.00089  -3.13004
   D13        3.12817   0.00004  -0.00013   0.00006  -0.00007   3.12810
   D14        3.13778  -0.00013  -0.00004   0.00039   0.00034   3.13813
   D15       -0.31763  -0.00012  -0.00000  -0.00208  -0.00208  -0.31971
   D16       -3.02428  -0.00002  -0.00001   0.00080   0.00080  -3.02348
   D17        3.08979   0.00000  -0.00002   0.00098   0.00096   3.09075
         Item               Value     Threshold  Converged?
 Maximum Force            0.000536     0.000450     NO 
 RMS     Force            0.000142     0.000300     YES
 Maximum Displacement     0.005959     0.001800     NO 
 RMS     Displacement     0.001364     0.001200     NO 
 Predicted change in Energy=-1.446272D-06
 GradGradGradGradGradGradGradGradGradGradGradGradGradGradGradGradGradGrad

 ---------------------------------------------------------------------------------------------------
                            Z-MATRIX (ANGSTROMS AND DEGREES)
   CD    Cent   Atom    N1       Length/X        N2       Alpha/Y        N3        Beta/Z          J
 ---------------------------------------------------------------------------------------------------
      1      1  C 
      2      2  C        1   1.387775(     1)
      3      3  C        1   1.447756(     2)      2  133.721(    17)
      4      4  N        1   1.379492(     3)      2  106.288(    18)      3  175.096(    32)      0
      5      5  C        3   1.346649(     4)      1  129.863(    19)      2  -26.532(    33)      0
      6      6  H        2   1.075582(     5)      1  125.864(    20)      3    1.327(    34)      0
      7      7  H        3   1.085769(     6)      1  114.683(    21)      5  178.415(    35)      0
      8      8  C        2   1.416766(     7)      1  107.974(    22)      6 -176.802(    36)      0
      9      9  C        4   1.367941(     8)      1  110.703(    23)      2    0.595(    37)      0
     10     10  H        4   1.004909(     9)      1  123.765(    24)      9  178.240(    38)      0
     11     11  C        5   1.453311(    10)      3  131.332(    25)      1   -5.679(    39)      0
     12     12  H        5   1.082943(    11)      3  116.220(    26)     11 -179.338(    40)      0
     13     13  H        8   1.077892(    12)      2  126.528(    27)      1  179.227(    41)      0
     14     14  H        9   1.076713(    13)      4  121.328(    28)      1  179.801(    42)      0
     15     15  C       11   1.318293(    14)      5  128.945(    29)      3  -18.318(    43)      0
     16     16  H       11   1.085522(    15)      5  118.108(    30)     15 -173.233(    44)      0
     17     17  O       15   1.159760(    16)     11  177.193(    31)      5  177.087(    45)      0
 ---------------------------------------------------------------------------------------------------
                         Z-Matrix orientation:                         
 ---------------------------------------------------------------------
 Center     Atomic      Atomic             Coordinates (Angstroms)
 Number     Number       Type             X           Y           Z
 ---------------------------------------------------------------------
      1          6           0        0.000000    0.000000    0.000000
      2          6           0        0.000000    0.000000    1.387775
      3          6           0        1.046306    0.000000   -1.000621
      4          7           0       -1.319278   -0.113199   -0.386897
      5          6           0        2.309283    0.461732   -0.928815
      6          1           0        0.871425    0.020180    2.017925
      7          1           0        0.772602   -0.464944   -1.942856
      8          6           0       -1.343422   -0.106309    1.824970
      9          6           0       -2.140454   -0.170313    0.705655
     10          1           0       -1.621477   -0.122084   -1.345249
     11          6           0        3.004094    1.198357    0.113650
     12          1           0        2.937546    0.272675   -1.790389
     13          1           0       -1.684431   -0.145020    2.846765
     14          1           0       -3.208423   -0.256679    0.599375
     15          6           0        2.499889    1.885584    1.119331
     16          1           0        4.081730    1.302485    0.034813
     17          8           0        2.109292    2.500137    2.021994
 ---------------------------------------------------------------------
                    Distance matrix (angstroms):
                    1          2          3          4          5
     1  C    0.000000
     2  C    1.387775   0.000000
     3  C    1.447756   2.607526   0.000000
     4  N    1.379492   2.214219   2.446520   0.000000
[...]
 8\A11=131.27286092\A12=116.24529179\A13=126.53953341\A14=121.33227061\
 A15=128.9195405\A16=118.12864259\A17=177.15414291\D4=175.0427605\D5=-2
 6.75001749\D6=1.44919888\D7=178.59071672\D8=-176.91458266\D9=0.6014718
 5\D10=178.31540754\D11=-5.49303559\D12=-179.40470425\D13=179.33664519\
 D14=179.72311459\D15=-18.40727517\D16=-173.2299153\D17=177.12124449\\V
 ersion=ES64L-G16RevA.03\HF=-439.1576153\RMSD=4.216e-09\RMSF=3.077e-04\
 ZeroPoint=0.1300021\Thermal=0.1389511\Dipole=0.5283792,-0.2477176,-1.2
 247863\DipoleDeriv=0.1299955,-0.0018627,0.2015799,-0.0375835,-0.015734
 8,0.0140416,0.1422538,-0.0209575,0.1106044,0.0361322,0.0228496,-0.0784
 851,-0.0143726,-0.1833304,-0.0156705,-0.0132587,-0.0199667,-0.1385776,
 -0.0747321,-0.0437067,-0.241523,-0.0035986,-0.1645059,0.0260106,-0.278
 5636,-0.0496603,0.0658011,0.0935821,0.0891471,-0.1190898,0.077088,-0.1
 801671,-0.0494534,-0.3027009,-0.035552,-0.5332885,0.201962,0.2372783,0
 .2138874,0.3939859,0.2102797,0.2783049,0.4681678,0.4231458,0.2601245,-
 0.0098444,-0.0050585,-0.0540122,-0.0022079,0.1511852,-0.0170419,-0.041
 0742,-0.008022,0.0634251,0.0033519,-0.061998,-0.039574,-0.0595233,0.08
 39224,-0.0823322,0.0208695,-0.0596107,-0.0513639,-0.1494181,-0.0540787
 ,-0.0204395,0.0302967,-0.2391656,0.0106525,-0.0881296,-0.0243842,-0.00
 78098,-0.3746863,-0.0867941,0.0128059,-0.0260338,-0.1933577,0.0094258,
 0.3608834,0.1216806,0.2701512,0.2108165,0.0102044,0.0439029,-0.000523,
 0.2857876,0.0162697,0.0346696,0.0070526,0.1869526,-0.1728645,0.1756552
 ,0.2252056,-0.1844816,-0.5400687,-0.2374582,-0.3349902,-0.4614138,-0.6
 638676,0.0274308,-0.0119357,0.0508603,-0.0359142,0.0871912,-0.0640653,
 0.0461019,-0.0450895,0.0106197,0.0355026,-0.0185342,0.071696,-0.004544
 2,0.1629153,0.0010422,0.0829553,0.0144625,-0.0740984,-0.0797673,-0.023
 3236,-0.0135135,-0.0377856,0.1757405,-0.0029627,-0.0211942,0.0009642,0
 .0649063,0.1367525,-0.5380896,-0.5761572,0.0704603,0.9688333,0.7811123
 ,0.2308435,1.1667212,1.3835029,0.1098889,-0.0381826,-0.0354967,-0.0057
 522,0.160909,-0.0531458,-0.0085247,-0.075145,0.0978589,-0.1241023,0.34
 84298,0.358353,-0.1595104,-0.7704339,-0.6147298,-0.2983087,-0.934225,-
 1.0449406\Polar=140.2249833,21.6807611,75.8362248,-11.2197685,12.58989
 6,105.8531278\PG=C01 [X(C8H7N1O1)]\NImag=0\\0.63724032,0.03724635,0.15
 288215,-0.09087588,0.01398329,0.70637382,-0.10377341,-0.00172372,-0.01
 549942,0.71474606,-0.00318021,-0.06813259,0.00506308,0.03478060,0.1189
 1795,-0.00549495,-0.00191835,-0.32624929,0.14148285,0.00152713,0.67615
 771,-0.16796002,-0.01172391,0.05656467,0.00460616,0.00516521,0.0171450
 4,0.72472051,-0.00284649,-0.05685737,-0.01689870,0.00080360,0.00428264
 ,0.00163181,0.19355507,0.24121304,0.08938351,-0.00718659,-0.18220668,0
 .02643780,-0.00211723,-0.02099985,-0.02467653,0.15158697,0.54899237,-0
 .25752959,-0.01622984,-0.04482056,-0.02679602,-0.00428638,-0.06079472,
 -0.04380015,-0.00379787,-0.00202522,0.63613716,-0.01484260,-0.06081815
 ,-0.00850596,-0.00365665,0.01258856,-0.00397824,-0.00430013,-0.0010994
 8,0.00243646,0.04147823,0.07883976,-0.04421264,-0.00671449,-0.12723856
 ,-0.01958705,-0.00095957,-0.06002469,0.02891189,0.00294293,0.01298538,
 0.07519639,0.00257926,0.92809163,-0.03792602,-0.00644502,0.02110500,0.
 00390838,-0.00311008,-0.00961183,-0.41747282,-0.13367418,-0.02191633,0
 .00437027,0.00093418,0.00249715,0.72868654,-0.00412247,0.00522533,0.00
 746200,0.00056553,-0.00111787,-0.00225411,-0.12515363,-0.10746306,-0.0
 2640487,0.00150699,0.00206154,-0.00108354,0.17149210,0.25600022,0.0212
 3437,0.00875845,0.01172016,-0.00016518,-0.00114017,0.00031274,0.002686
 23,-0.02028837,-0.10179462,-0.00024297,-0.00077248,-0.00292413,-0.0711
 9175,0.16394653,0.50997932,0.00609534,0.00044609,0.00298186,-0.2532865
 2,-0.00735458,-0.14325468,-0.00043591,0.00006671,-0.00043233,0.0009151
 5,-0.00011739,0.00213288,0.00024541,0.00004602,0.00003508,0.26353298,0
 .00050501,-0.00084326,-0.00040016,-0.00614752,-0.02548247,-0.00277544,
 -0.00059333,-0.00330719,-0.00005158,0.00033840,0.00414906,-0.00034469,
 0.00011240,0.00015133,0.00117756,0.00986510,0.02233849,-0.02437964,-0.
 00090543,-0.00592969,-0.14098911,-0.00260596,-0.16153992,0.00020537,-0
 .00001084,0.00100224,-0.00033607,-0.00001807,-0.00616035,-0.00007029,-
 0.00020702,-0.00089708,0.15400832,0.00283647,0.16160590,0.00701393,0.0
 0861234,0.02066728,-0.00323603,-0.00004268,0.00104755,-0.07011722,-0.0
 3278182,-0.05208040,0.00185411,-0.00013458,-0.00004343,-0.00784987,-0.
 01534760,-0.02666277,0.00004086,0.00010004,0.00004107,0.07749578,-0.00
 350258,0.00203798,0.00262899,0.00030151,0.00120612,-0.00079636,-0.0306
 3872,-0.08447336,-0.11114070,0.00007358,-0.00039782,0.00112403,-0.0075
 3860,-0.00378533,-0.01118350,0.00005229,-0.00006265,-0.00005027,0.0422
 2048,0.08306296,-0.00490569,-0.00904611,-0.02189328,0.00284700,-0.0012
 3148,0.00127992,-0.05726069,-0.10908414,-0.25554411,-0.00209844,0.0011
 9812,0.00227381,0.00071808,-0.00152927,-0.00110535,-0.00010185,-0.0000
 5787,0.00003866,0.05708334,0.11836786,0.27344190,-0.00441261,-0.001136
 96,0.07569012,-0.26470244,-0.01457794,0.03373926,0.00514041,0.00004509
 ,-0.00519875,-0.00335247,-0.00156022,-0.02265366,-0.00307000,0.0007331
 4,0.00218380,-0.01171697,-0.00190549,0.00976052,0.00010380,-0.00073598
 ,0.00030659,0.56366370,-0.00208054,0.00958416,0.00485575,-0.01699456,-
 0.05735204,0.00491518,0.00078964,0.00398471,0.00007408,-0.00121607,0.0
 1426759,-0.00246072,0.00045756,-0.00003917,-0.00057419,0.00021112,-0.0
 0060863,0.00027550,-0.00029224,0.00016703,0.00047181,0.03683693,0.1127
 1530,0.01902740,0.00132607,-0.03015843,0.06553052,0.00721956,-0.125688
 28,-0.00105749,-0.00061317,-0.00594458,0.01638439,0.00093946,-0.093287
 61,-0.00160596,-0.00056156,0.00022863,-0.01770421,-0.00173741,0.011754
 72,0.00111232,0.00015986,-0.00048982,-0.04413768,-0.00720313,0.8382111
 3,-0.07843012,-0.00765931,0.00588609,-0.06304097,-0.00554387,0.0025268
 7,-0.00400986,-0.00229952,-0.00448281,-0.18601503,-0.00941677,0.096555
 60,0.00010487,0.00145301,0.00412062,-0.00456889,-0.00075897,0.00356068
 ,-0.00026909,0.00065209,0.00101950,-0.18450670,-0.01011105,-0.13491589
 ,0.84068098,-0.00791514,0.01463890,0.00042090,-0.00603421,0.01142698,-
 0.00016103,-0.00084501,0.00118756,-0.00117515,-0.00920931,-0.04956124,
 0.00632007,0.00053585,0.00069874,0.00066372,-0.00045622,0.00329724,0.0
 0042332,0.00029019,-0.00004891,0.00027935,-0.01100699,-0.05862469,-0.0
 1055486,0.05872414,0.10625089,0.03633289,0.00362954,-0.01522766,-0.053
 92029,-0.00591168,0.02003808,-0.00712105,0.00054320,0.00092913,0.09981
 367,0.00687915,-0.23636700,0.00114363,-0.00124551,-0.00308602,0.002215
 21,0.00099872,-0.00143413,0.00043116,0.00002988,-0.00119350,-0.1179207
 2,-0.00874685,-0.28224471,0.06569698,0.00687383,0.60630901,0.00249032,
 0.00127916,-0.02987815,-0.00755088,-0.00067480,-0.00212404,0.00225837,
 -0.00042558,-0.00126483,-0.10861384,-0.00704951,-0.11063747,-0.0005230
 6,-0.00035759,0.00014503,0.00054709,-0.00029468,-0.00138045,-0.0005338
 1,0.00064406,0.00126456,-0.00353195,-0.00029546,0.00518884,0.01537012,
 0.00134297,0.01850837,0.09885797,0.00035679,-0.00598701,-0.00315599,-0
 .00125879,0.00152065,0.00037475,0.00041701,-0.00182580,0.00095991,-0.0
 0648575,-0.00154089,-0.00199964,-0.00034300,-0.00048759,-0.00013895,-0
 .00002922,0.00231642,-0.00021261,0.00018461,0.00035126,-0.00059834,0.0
 0037534,0.00182331,0.00047379,0.00163146,-0.00729583,0.00047479,0.0052
 4854,0.01006032,0.00040248,-0.00014712,-0.00295501,-0.00113783,-0.0000
 3219,0.00154340,0.00065817,0.00072500,0.00157143,-0.11099139,-0.003558
 17,-0.42100982,-0.00011284,-0.00011792,-0.00042686,0.00018809,-0.00007
 026,0.00003762,-0.00016218,-0.00040777,-0.00008751,0.00434328,0.000454
 37,-0.00186688,-0.01252852,-0.00049953,-0.01351205,0.11964527,0.003809
 26,0.43611229,0.00336958,0.00173529,-0.00259398,-0.00068803,-0.0000198
 8,0.00156311,-0.01455224,-0.01748355,-0.02263745,-0.00129596,-0.000427
 41,-0.00021597,-0.12025796,-0.05301403,-0.06624514,-0.00050494,0.00098
 779,-0.00000879,-0.00276772,-0.00318486,0.00075636,0.00096110,-0.00071
 766,-0.00005021,0.00026039,0.00007802,-0.00082830,0.00004052,-0.000043
 98,0.00006509,0.58253034,0.00661013,-0.00320149,-0.00331657,-0.0004603
 1,0.00196255,0.00257755,-0.02041110,-0.00555625,-0.01366265,0.00021543
 ,0.00011614,-0.00024694,-0.03605123,-0.09196053,-0.07443233,0.00000664
 ,-0.00038704,-0.00010904,-0.00388867,0.00731383,-0.00134436,-0.0010752
 6,-0.00043957,0.00021518,-0.00069009,-0.00055096,0.00133726,0.00054327
 ,0.00007201,-0.00002895,0.00410081,0.29125321,0.00502040,0.00250792,-0
 .00678688,-0.00054669,0.00188416,0.00157321,-0.02434093,-0.01159389,-0
 .00426676,0.00138263,0.00067446,0.00007512,-0.03325149,-0.06675129,-0.
 15016148,0.00003612,-0.00041242,0.00034549,0.00015520,-0.00143267,0.00
 303705,-0.00186841,-0.00057653,0.00044622,-0.00188211,-0.00068543,0.00
 278594,0.00064651,0.00006461,0.00007311,-0.08722789,0.30821658,0.53095
 261,-0.00234945,-0.00353059,-0.00096394,-0.00021020,0.00015462,-0.0001
 6247,-0.01691378,0.00346631,0.02515863,-0.00035048,-0.00045324,0.00096
 104,-0.14783204,0.02355995,0.13083972,0.00000522,-0.00008903,0.0000574
 6,-0.00026768,0.00186603,-0.00038605,-0.00000970,-0.00002551,0.0001617
 1,-0.00030620,0.00007312,-0.00022525,-0.00003372,-0.00005148,0.0000318
 6,0.00699092,-0.00474913,-0.01252452,0.15986783,-0.00350094,0.00710074
 ,-0.00454628,0.00042218,-0.00029087,-0.00004768,-0.01073743,0.00394831
 ,0.00842022,-0.00125201,0.00056007,0.00115101,0.02726354,-0.04649923,-
 0.04424060,0.00000645,0.00008395,0.00004000,0.00161658,-0.00533840,0.0
 0272504,0.00004021,0.00001913,0.00010761,-0.00014511,-0.00014609,-0.00
 038722,0.00000269,0.00012159,0.00007112,0.00539630,-0.00363877,-0.0169
 5904,-0.01823268,0.04414289,-0.00034393,-0.00376362,0.00370014,-0.0003
 3051,0.00009722,-0.00019042,-0.00010433,-0.00065075,0.00344673,0.00071
 931,-0.00011865,-0.00040700,0.13174154,-0.04533125,-0.23104016,-0.0000
 0588,-0.00013080,0.00004407,-0.00172882,0.00305538,0.00041739,-0.00019
 755,0.00004451,0.00000284,-0.00004020,0.00007042,0.00035272,0.00000356
 ,-0.00005534,-0.00004726,0.01048090,-0.00693013,-0.01681941,-0.1391561
 5,0.05496392,0.24230864,-0.00632183,-0.00080773,0.00154271,0.00129616,
 -0.00022203,0.02567228,0.00098065,0.00001923,0.00094958,-0.00259908,-0
 .00060832,-0.00448658,0.00010410,0.00019391,0.00027667,0.00076623,0.00
 021433,-0.00102618,-0.00032459,0.00001606,0.00034087,-0.08679330,-0.00
 598546,0.08799280,0.01178062,0.00130943,-0.01626841,0.00095541,-0.0001
 5891,-0.00067570,0.00006408,-0.00019044,-0.00028557,-0.00004756,0.0000
 1649,-0.00003473,0.08012033,-0.00079961,0.00385027,-0.00019783,0.00006
 069,-0.00122006,0.00229478,0.00001954,0.00115954,0.00044465,-0.0006179
 3,0.00453585,-0.00029689,0.00013659,-0.00003102,-0.00012453,0.00010620
 ,-0.00220671,-0.00015034,-0.00023220,-0.00012674,0.00015866,-0.0055605
 3,-0.02443070,0.01012950,0.00079873,-0.00231354,-0.00164375,-0.0000641
 1,0.00243845,-0.00015274,-0.00001197,0.00002181,-0.00005260,0.00002133
 ,-0.00008965,0.00003722,0.00586570,0.02111598,0.00039756,-0.00000899,0
 .00026229,-0.00145587,-0.00012210,-0.00117367,-0.00009255,-0.00001218,
 -0.00001246,-0.00297060,-0.00012650,-0.00304518,-0.00005045,-0.0001191
 5,-0.00016095,0.00046756,0.00002983,0.00006769,0.00008562,0.00006180,-
 0.00001520,0.08592576,0.00965419,-0.32026070,0.01245066,0.00112494,-0.
 01244676,0.00080342,0.00004924,-0.00026876,-0.00000509,0.00012275,0.00
 016045,0.00002761,0.00000548,0.00000808,-0.09511165,-0.01053444,0.3367
 3301,0.00108164,0.00002886,0.00299198,-0.00045198,-0.00036081,-0.00261
 766,-0.00053343,-0.00036150,-0.00056826,-0.01345941,-0.00074854,-0.004
 63371,-0.00003306,0.00015173,0.00023782,-0.00029571,-0.00017073,0.0003
 0424,0.00001680,-0.00001336,0.00001950,-0.00637695,-0.00041293,0.00390
 304,-0.34690505,-0.02660093,-0.02916336,-0.00006891,0.00015273,0.00033
 063,-0.00002033,-0.00005452,-0.00002538,-0.00007188,-0.00004347,0.0000
 0148,0.00006052,0.00023708,-0.00048308,0.36703830,0.00006156,0.0016659
 5,0.00061280,-0.00014769,0.00465661,-0.00059215,-0.00023716,0.00226220
 ,-0.00035354,-0.00049072,-0.00378163,0.00000223,-0.00003030,0.00001071
 ,0.00016003,-0.00023679,0.00128723,0.00012046,-0.00005639,-0.00003533,
 -0.00004530,-0.00067046,-0.00079969,0.00013414,-0.02698789,-0.01915571
 ,-0.00254595,0.00015450,-0.00165541,-0.00004930,0.00015837,0.00007818,
 -0.00013910,0.00017339,-0.00036349,0.00014616,0.00023573,-0.00277437,-
 0.00008040,0.02817678,0.01852015,0.00044569,-0.00008516,-0.00593354,-0
 .00324072,-0.00016922,-0.00444614,0.00144709,0.00026634,0.00088149,0.0
 3161309,0.00255997,0.00723690,-0.00002135,-0.00024774,-0.00051591,-0.0
 0112317,-0.00013753,0.00085119,-0.00004377,0.00001070,0.00003758,-0.02
 063128,-0.00163895,0.00945933,-0.03855237,-0.00344900,-0.06406688,-0.0
 0073009,-0.00004635,0.00077878,-0.00005744,0.00006871,0.00020981,0.000
 07349,0.00011191,-0.00003040,0.00100564,0.00007563,0.00020363,0.029713
 54,0.00269788,0.05539403,0.00164420,0.00029892,-0.00423202,-0.00004552
 ,0.00206673,0.00038169,-0.00299700,-0.00602540,-0.00910093,0.00299101,
 0.00186988,0.00069089,0.01501685,0.00433534,0.00641162,-0.00019199,-0.
 00313795,0.00062741,-0.00128705,-0.00000848,0.00068679,-0.00383688,0.0
 0032936,0.00033465,-0.00128279,-0.00070956,0.00386886,0.00074693,-0.00
 005793,-0.00013569,-0.15285544,0.06170475,0.10122071,-0.00064430,-0.00
 225419,-0.00228992,-0.00024507,-0.00002016,0.00010517,0.00003585,-0.00
 033620,0.00024599,0.32338189,-0.00275774,-0.00226932,0.00369866,-0.001
 10577,-0.00283535,-0.00163174,0.00657315,0.00387075,0.00327921,-0.0012
 0783,-0.00035053,-0.00029482,0.00185785,-0.02312515,-0.02483485,-0.001
 88637,0.00046720,0.00112433,0.00060290,0.00121844,-0.00046512,0.002117
 93,-0.00031666,0.00030900,0.00204919,0.00035597,-0.00238385,-0.0004741
 9,0.00005268,-0.00010506,0.06783010,-0.16117618,-0.18037949,-0.0021394
 7,0.00142824,-0.00132719,0.00034318,0.00021922,-0.00021702,0.00009892,
 0.00031136,-0.00010497,-0.23948249,0.49303772,-0.00325617,0.00062714,0
 .00429091,0.00023149,-0.00378490,0.00100988,0.00979833,0.00594803,0.01
 082474,-0.00454015,-0.00153346,-0.00106890,0.00309284,-0.02721880,-0.0
 4957182,-0.00015814,0.00309617,-0.00002502,0.00135864,0.00024178,-0.00
 048219,0.00444776,0.00026126,-0.00024379,0.00341767,0.00094475,-0.0052
 2813,-0.00103241,0.00011541,0.00001122,0.10633809,-0.17612805,-0.29165
 800,-0.00387858,-0.00227089,-0.00299498,0.00060397,0.00010524,-0.00032
 198,0.00003552,0.00018872,-0.00032104,-0.36429115,0.58734390,0.9512114
 5,0.00019839,0.00006320,-0.00029112,0.00004784,0.00005270,-0.00003970,
 0.00096495,-0.00028415,-0.00168351,-0.00006292,0.00002307,0.00012164,-
 0.01162005,-0.00233966,0.00114971,-0.00001461,-0.00013971,0.00004144,-
 0.00036638,-0.00035545,0.00006159,-0.00003523,0.00007147,0.00008239,0.
 00008224,0.00002980,-0.00004328,0.00002414,-0.00002670,-0.00001455,-0.
 32277097,-0.02832231,0.02359421,0.00129636,0.00035269,0.00051501,-0.00
 000492,-0.00000638,-0.00000241,0.00000286,-0.00001377,0.00001194,-0.01
 734752,0.00414367,0.00918146,0.34736783,-0.00051438,0.00038746,0.00039
 685,-0.00016974,-0.00006538,0.00036203,0.00063734,0.00079890,-0.002360
 58,0.00013064,-0.00003710,0.00003488,-0.01793269,0.00089977,-0.0017482
 8,-0.00008775,0.00030858,-0.00010835,-0.00053503,-0.00039237,-0.000178
 25,0.00006795,-0.00025011,-0.00017358,-0.00017196,0.00000951,0.0000162
 2,0.00000062,0.00000817,-0.00000613,-0.02721915,-0.02768300,-0.0076325
 4,0.00042498,-0.00050613,0.00031857,0.00001084,-0.00001676,0.00000650,
 -0.00000031,0.00003709,-0.00001834,0.01985784,-0.00108656,-0.00419977,
 0.02945525,0.02630376,0.00073036,-0.00017900,-0.00098549,0.00025215,0.
 00021901,-0.00023870,-0.00116533,-0.00249432,-0.00273062,-0.00004170,0
 .00010892,0.00011324,-0.02318050,-0.00405435,0.00494626,0.00008797,-0.
 00039019,0.00015521,-0.00050868,-0.00066046,0.00000432,-0.00025078,0.0
 0022254,0.00018567,0.00005344,0.00000308,0.00017501,0.00008737,-0.0000
 3539,0.00000260,0.02999043,-0.00983530,-0.04099859,-0.00029367,0.00089
 931,0.00108062,-0.00001750,0.00000360,0.00000455,-0.00000521,-0.000044
 41,0.00003613,0.02642753,0.00166047,-0.00417066,-0.02925943,0.01760376
 ,0.04235389,-0.00043068,-0.00045313,0.00172536,-0.00082259,-0.00284658
 ,0.00054140,0.00012140,0.00202404,0.00413784,-0.00239277,-0.00099002,-
 0.00059698,-0.00585153,-0.00370275,-0.00481285,-0.00113275,0.00111433,
 -0.00041599,0.00049415,0.00015192,-0.00035146,0.00247620,-0.00056461,-
 0.00024663,0.00105547,0.00039382,-0.00252013,-0.00043467,0.00008927,0.
 00009383,0.02149667,0.02271205,0.02989721,0.00087668,0.00104872,0.0007
 7022,0.00020826,0.00006703,-0.00009165,-0.00001926,0.00024703,-0.00015
 628,-0.16308317,0.16343697,0.23865083,0.00223798,-0.00395446,-0.002906
 45,0.14520062,0.00128285,0.00073625,-0.00210081,0.00076488,-0.00006543
 ,0.00047187,-0.00251656,-0.00212512,-0.00274861,0.00105043,0.00046828,
 0.00024690,0.00233503,0.00946134,0.00477195,-0.00063831,-0.00150154,-0
 .00044213,-0.00031594,-0.00069669,0.00037939,-0.00198677,0.00030004,-0
 .00017046,-0.00152409,-0.00016880,0.00208221,0.00042011,0.00002769,0.0
 0011537,0.02183582,-0.00622393,-0.02673275,-0.00046860,-0.00053228,-0.
 00042567,-0.00025201,-0.00013158,0.00016606,-0.00007902,-0.00026385,0.
 00010612,0.16156954,-0.30980181,-0.38373653,-0.00270373,0.00128419,-0.
 00302726,-0.17877364,0.30923324,0.00049424,-0.00087755,-0.00078282,0.0
 0009086,0.00206433,-0.00136398,-0.00159789,-0.00199793,-0.00713385,0.0
 0375234,0.00123573,0.00075714,0.00071455,0.00571788,0.01449726,0.00062
 716,-0.00163040,0.00008338,-0.00075214,-0.00000856,0.00028034,-0.00353
 825,-0.00002881,-0.00010373,-0.00288621,-0.00059939,0.00421694,0.00075
 451,-0.00007915,0.00004368,0.03067629,-0.02650369,-0.02896789,0.000279
 08,-0.00004392,0.00016840,-0.00047821,-0.00009616,0.00026593,-0.000041
 08,-0.00021229,0.00022505,0.23904839,-0.38567147,-0.61126169,-0.003425
 38,-0.00231298,0.00006658,-0.26371827,0.41104434,0.62900925\\-0.001435
 60,0.00063661,0.00000326,0.00146436,-0.00037603,-0.00000265,-0.0000214
 6,-0.00025946,0.00000379,-0.00001519,0.00004416,0.00000326,0.00000629,
 -0.00000200,0.00000458,0.00000314,0.00001790,0.00000292,0.00000497,-0.
 00000471,-0.00000036,0.00000152,-0.00003989,0.00000441,-0.00000128,0.0
 0004857,-0.00001245,0.00000261,-0.00002707,-0.00000111,-0.00001569,-0.
 00002096,-0.00000397,-0.00000139,0.00000088,-0.00000140,0.00000062,0.0
 0000237,0.00000135,-0.00000007,-0.00002255,0.00000113,0.00000587,0.000
 00613,0.00000606,0.00000255,0.00000250,-0.00000271,-0.00000126,-0.0000
 0645,-0.00000610\\\@


 EXPERIMENTALISTS THINK SILICON IS REALLY FUN TO USE
     ITS PLACE IN NOVEL COMPOUNDS IS CERTAIN TO AMUSE
 THEY SIT ALL DAY IN LABORATORIES MAKING ALL THIS SLUDGE
     "LOADED WITH THE SILICON THEY SAY", TO ME IT LOOKS LIKE FUDGE.
 FOR HAPPY THOUGH THEY BE WITH CRUD, I'D LIKE TO KNOW A LITTLE
      ABOUT THE PI BONDS ON THE EDGE AND SIGMAS IN THE MIDDLE.

 SO LETS DERIVE A WAVEFUNCTION.....6-31G*
     USE AN OPTIMAL GEOMETRY AND SEE WHERE ELECTRONS ARE.
 BUT WHAT OF CORRELATION?  ASKS THE WIRY LITTLE SKEPTIC.
     WE'LL THROW IN PERTURBATION AS AN ELECTRON ANTISEPTIC.
 AND WHEN THE PROGRAM GIVES US ANSWERS IN THEM WE CAN TRUST
     SINCE NOBODY CAN MAKE THE STUFF, WE HAVE NO CHOICE, WE MUST.

 SO THEORY GUYS HAVE GOT IT MADE, IN ROOMS FREE OF POLLUTION.
     INSTEAD OF PROBLEMS WITH THE REFLUX, THEY HAVE ONLY SOLUTIONS.
 AND WHEN THE FEDS ANNOUNCE THE LIST OF CARCINOGENIC TERRORS,
     THE THEORISTS SIT SAFELY AT THEIR TERMINALS FIXING ERRORS.
 IN OTHER WORDS, EXPERIMENTALISTS WILL LIKELY DIE OF CANCER
     FROM WORKING HARD YET FRUITLESSLY...TILL THEORY GIVES THE ANSWER.
          -- THOMAS A. HOLME, 1983
 Job cpu time:       0 days  2 hours  1 minutes 11.4 seconds.
 Elapsed time:       0 days  0 hours 10 minutes  6.7 seconds.
 File lengths (MBytes):  RWF=    182 Int=      0 D2E=      0 Chk=     32 Scr=      1
 Normal termination of Gaussian 16 at Fri Jun 10 12:21:07 2022.
