 Entering Gaussian System, Link 0=g16
 Input=int_zmat_field_N100.gjf
 Output=int_zmat_field_N100.out
 Initial command:
 /software/gaussian/g16-a03/l1.exe "/local_scratch/11172270/Gau-8789.inp" -scrdir="/local_scratch/11172270/"
 Entering Link 1 = /software/gaussian/g16-a03/l1.exe PID=      8790.
  
 Copyright (c) 1988,1990,1992,1993,1995,1998,2003,2009,2016,
            Gaussian, Inc.  All Rights Reserved.
  
 This is part of the Gaussian(R) 16 program.  It is based on
 the Gaussian(R) 09 system (copyright 2009, Gaussian, Inc.),
 the Gaussian(R) 03 system (copyright 2003, Gaussian, Inc.),
 the Gaussian(R) 98 system (copyright 1998, Gaussian, Inc.),
 the Gaussian(R) 94 system (copyright 1995, Gaussian, Inc.),
 the Gaussian 92(TM) system (copyright 1992, Gaussian, Inc.),
 the Gaussian 90(TM) system (copyright 1990, Gaussian, Inc.),
 the Gaussian 88(TM) system (copyright 1988, Gaussian, Inc.),
 the Gaussian 86(TM) system (copyright 1986, Carnegie Mellon
 University), and the Gaussian 82(TM) system (copyright 1983,
 Carnegie Mellon University). Gaussian is a federally registered
 trademark of Gaussian, Inc.
  
 This software contains proprietary and confidential information,
 including trade secrets, belonging to Gaussian, Inc.
  
 This software is provided under written license and may be
 used, copied, transmitted, or stored only in accord with that
 written license.
  
 The following legend is applicable only to US Government
 contracts under FAR:
  
                    RESTRICTED RIGHTS LEGEND
  
 Use, reproduction and disclosure by the US Government is
 subject to restrictions as set forth in subparagraphs (a)
 and (c) of the Commercial Computer Software - Restricted
 Rights clause in FAR 52.227-19.
  
 Gaussian, Inc.
 340 Quinnipiac St., Bldg. 40, Wallingford CT 06492
  
  
 ---------------------------------------------------------------
 Warning -- This program may not be used in any manner that
 competes with the business of Gaussian, Inc. or will provide
 assistance to any competitor of Gaussian, Inc.  The licensee
 of this program is prohibited from giving any competitor of
 Gaussian, Inc. access to this program.  By using this program,
 the user acknowledges that Gaussian, Inc. is engaged in the
 business of creating and licensing software in the field of
 computational chemistry and represents and warrants to the
 licensee that it is not a competitor of Gaussian, Inc. and that
 it will not use this program in any manner prohibited above.
 ---------------------------------------------------------------
  

 Cite this work as:
 Gaussian 16, Revision A.03,
 M. J. Frisch, G. W. Trucks, H. B. Schlegel, G. E. Scuseria, 
 M. A. Robb, J. R. Cheeseman, G. Scalmani, V. Barone, 
 G. A. Petersson, H. Nakatsuji, X. Li, M. Caricato, A. V. Marenich, 
 J. Bloino, B. G. Janesko, R. Gomperts, B. Mennucci, H. P. Hratchian, 
 J. V. Ortiz, A. F. Izmaylov, J. L. Sonnenberg, D. Williams-Young, 
 F. Ding, F. Lipparini, F. Egidi, J. Goings, B. Peng, A. Petrone, 
 T. Henderson, D. Ranasinghe, V. G. Zakrzewski, J. Gao, N. Rega, 
 G. Zheng, W. Liang, M. Hada, M. Ehara, K. Toyota, R. Fukuda, 
 J. Hasegawa, M. Ishida, T. Nakajima, Y. Honda, O. Kitao, H. Nakai, 
 T. Vreven, K. Throssell, J. A. Montgomery, Jr., J. E. Peralta, 
 F. Ogliaro, M. J. Bearpark, J. J. Heyd, E. N. Brothers, K. N. Kudin, 
 V. N. Staroverov, T. A. Keith, R. Kobayashi, J. Normand, 
 K. Raghavachari, A. P. Rendell, J. C. Burant, S. S. Iyengar, 
 J. Tomasi, M. Cossi, J. M. Millam, M. Klene, C. Adamo, R. Cammi, 
 J. W. Ochterski, R. L. Martin, K. Morokuma, O. Farkas, 
 J. B. Foresman, and D. J. Fox, Gaussian, Inc., Wallingford CT, 2016.
 
 ******************************************
 Gaussian 16:  ES64L-G16RevA.03 25-Dec-2016
                10-Jun-2022 
 ******************************************
 %nprocshared=12
 Will use up to   12 processors via shared memory.
 %chk=checkpoint.chk
 %mem=12GB
 ----------------------------------------------------------------------
 # Opt=(Z-matrix, MaxStep=10) B3LYP/Def2TZVP geom=allcheckpoint guess=r
 ead Field=read NoSymm freq=noraman pop=none
 ----------------------------------------------------------------------
 1/8=10,10=7,18=40,26=3,29=7,38=1/1,3;
 2/12=2,15=1,29=3,40=1/2;
 3/5=44,7=101,11=2,14=-6,25=1,30=1,71=1,74=-5,116=-2/1,2,3;
 4/5=1/1;
 5/5=2,38=6/2;
 7/29=1,30=1/1,2,3,16;
 1/8=10,10=7,18=40,26=3/3(2);
 2/15=1,29=3/2;
 99//99;
 2/15=1,29=3/2;
 3/5=44,7=101,11=2,14=-2,25=1,30=1,71=1,74=-5/1,2,3;
 4/5=5,16=3,69=1/1;
 5/5=2,38=5/2;
 7/30=1/1,2,3,16;
 1/8=10,18=40,26=3/3(-5);
 2/15=1,29=3/2;
 99/9=1/99;
 Structure from the checkpoint file:  "checkpoint.chk"
 ------------------
 int_zmat_initalOpt
 ------------------
 Charge =  0 Multiplicity = 1
 Z-Matrix found in chk file.
 C
 C,1,R2
 C,1,R3,2,A3
 N,1,R4,2,A4,3,D4,0
 C,3,R5,1,A5,2,D5,0
 H,2,R6,1,A6,3,D6,0
 H,3,R7,1,A7,5,D7,0
 C,2,R8,1,A8,6,D8,0
 C,4,R9,1,A9,2,D9,0
 H,4,R10,1,A10,9,D10,0
 C,5,R11,3,A11,1,D11,0
 H,5,R12,3,A12,11,D12,0
 H,8,R13,2,A13,1,D13,0
 H,9,R14,4,A14,1,D14,0
 C,11,R15,5,A15,3,D15,0
 H,11,R16,5,A16,15,D16,0
 O,15,R17,11,A17,5,D17,0
      Variables:
 R2=1.38779416
 R3=1.4486247
 R4=1.37883768
 R5=1.34659848
 R6=1.07551997
 R7=1.08562112
 R8=1.41747539
 R9=1.36871656
 R10=1.00498396
 R11=1.45300588
 R12=1.08295123
 R13=1.07831185
 R14=1.07691013
 R15=1.3174331
 R16=1.08584387
 R17=1.16053661
 A3=133.64886248
 A4=106.33836755
 A5=129.79920231
 A6=125.80862444
 A7=114.71426937
 A8=107.91524357
 A9=110.74436608
 A10=123.57656234
 A11=131.31569866
 A12=116.22516585
 A13=126.47220477
 A14=121.30360577
 A15=128.59560893
 A16=118.14821946
 A17=177.61877571
 D4=174.82924858
 D5=-26.81186621
 D6=1.70498848
 D7=178.15108925
 D8=-176.93688899
 D9=0.45915
 D10=179.3407944
 D11=-5.76852804
 D12=-179.51209194
 D13=179.16406163
 D14=180.20979335
 D15=-18.90070631
 D16=-173.02567317
 D17=177.29613538
 Recover connectivity data from disk.

 GradGradGradGradGradGradGradGradGradGradGradGradGradGradGradGradGradGrad
 Berny optimization.
 Initialization pass.
                       ----------------------------
                       !    Initial Parameters    !
                       ! (Angstroms and Degrees)  !
 ----------------------                            ----------------------
 !      Name          Value   Derivative information (Atomic Units)     !
 ------------------------------------------------------------------------
 !       R2          1.3878   estimate D2E/DX2                          !
 !       R3          1.4486   estimate D2E/DX2                          !
 !       R4          1.3788   estimate D2E/DX2                          !
 !       R5          1.3466   estimate D2E/DX2                          !
 !       R6          1.0755   estimate D2E/DX2                          !
 !       R7          1.0856   estimate D2E/DX2                          !
 !       R8          1.4175   estimate D2E/DX2                          !
 !       R9          1.3687   estimate D2E/DX2                          !
 !       R10         1.005    estimate D2E/DX2                          !
 !       R11         1.453    estimate D2E/DX2                          !
 !       R12         1.083    estimate D2E/DX2                          !
 !       R13         1.0783   estimate D2E/DX2                          !
 !       R14         1.0769   estimate D2E/DX2                          !
 !       R15         1.3174   estimate D2E/DX2                          !
 !       R16         1.0858   estimate D2E/DX2                          !
 !       R17         1.1605   estimate D2E/DX2                          !
 !       A3        133.6489   estimate D2E/DX2                          !
 !       A4        106.3384   estimate D2E/DX2                          !
 !       A5        129.7992   estimate D2E/DX2                          !
 !       A6        125.8086   estimate D2E/DX2                          !
 !       A7        114.7143   estimate D2E/DX2                          !
 !       A8        107.9152   estimate D2E/DX2                          !
 !       A9        110.7444   estimate D2E/DX2                          !
 !       A10       123.5766   estimate D2E/DX2                          !
 !       A11       131.3157   estimate D2E/DX2                          !
 !       A12       116.2252   estimate D2E/DX2                          !
 !       A13       126.4722   estimate D2E/DX2                          !
 !       A14       121.3036   estimate D2E/DX2                          !
 !       A15       128.5956   estimate D2E/DX2                          !
 !       A16       118.1482   estimate D2E/DX2                          !
 !       A17       177.6188   estimate D2E/DX2                          !
 !       D4        174.8292   estimate D2E/DX2                          !
 !       D5        -26.8119   estimate D2E/DX2                          !
 !       D6          1.705    estimate D2E/DX2                          !
 !       D7        178.1511   estimate D2E/DX2                          !
 !       D8       -176.9369   estimate D2E/DX2                          !
 !       D9          0.4592   estimate D2E/DX2                          !
 !       D10       179.3408   estimate D2E/DX2                          !
 !       D11        -5.7685   estimate D2E/DX2                          !
 !       D12      -179.5121   estimate D2E/DX2                          !
 !       D13       179.1641   estimate D2E/DX2                          !
 !       D14       180.2098   estimate D2E/DX2                          !
 !       D15       -18.9007   estimate D2E/DX2                          !
 !       D16      -173.0257   estimate D2E/DX2                          !
 !       D17       177.2961   estimate D2E/DX2                          !
 ------------------------------------------------------------------------
 Trust Radius=1.00D-01 FncErr=1.00D-07 GrdErr=1.00D-06 EigMax=2.50D+02 EigMin=1.00D-04
 Number of steps in this run=     55 maximum allowed number of steps=    100.
 GradGradGradGradGradGradGradGradGradGradGradGradGradGradGradGradGradGrad

 ---------------------------------------------------------------------------------------------------
                            Z-MATRIX (ANGSTROMS AND DEGREES)
   CD    Cent   Atom    N1       Length/X        N2       Alpha/Y        N3        Beta/Z          J
 ---------------------------------------------------------------------------------------------------
      1      1  C 
      2      2  C        1   1.387794(     1)
      3      3  C        1   1.448625(     2)      2  133.649(    17)
      4      4  N        1   1.378838(     3)      2  106.338(    18)      3  174.829(    32)      0
      5      5  C        3   1.346598(     4)      1  129.799(    19)      2  -26.812(    33)      0
      6      6  H        2   1.075520(     5)      1  125.809(    20)      3    1.705(    34)      0
      7      7  H        3   1.085621(     6)      1  114.714(    21)      5  178.151(    35)      0
      8      8  C        2   1.417475(     7)      1  107.915(    22)      6 -176.937(    36)      0
      9      9  C        4   1.368717(     8)      1  110.744(    23)      2    0.459(    37)      0
     10     10  H        4   1.004984(     9)      1  123.577(    24)      9  179.341(    38)      0
     11     11  C        5   1.453006(    10)      3  131.316(    25)      1   -5.769(    39)      0
     12     12  H        5   1.082951(    11)      3  116.225(    26)     11 -179.512(    40)      0
     13     13  H        8   1.078312(    12)      2  126.472(    27)      1  179.164(    41)      0
     14     14  H        9   1.076910(    13)      4  121.304(    28)      1  180.210(    42)      0
     15     15  C       11   1.317433(    14)      5  128.596(    29)      3  -18.901(    43)      0
     16     16  H       11   1.085844(    15)      5  118.148(    30)     15 -173.026(    44)      0
     17     17  O       15   1.160537(    16)     11  177.619(    31)      5  177.296(    45)      0
 ---------------------------------------------------------------------------------------------------
                         Z-Matrix orientation:                         
 ---------------------------------------------------------------------
 Center     Atomic      Atomic             Coordinates (Angstroms)
 Number     Number       Type             X           Y           Z
 ---------------------------------------------------------------------
      1          6           0        0.000000    0.000000    0.000000
      2          6           0        0.000000    0.000000    1.387794
      3          6           0        1.048201    0.000000   -0.999894
      4          7           0       -1.317772   -0.119248   -0.387880
      5          6           0        2.309233    0.466661   -0.926723
      6          1           0        0.871834    0.025951    2.017059
      7          1           0        0.779332   -0.472996   -1.939340
      8          6           0       -1.344078   -0.112112    1.823823
      9          6           0       -2.140618   -0.183411    0.703996
     10          1           0       -1.614646   -0.143178   -1.347716
     11          6           0        2.997943    1.210494    0.114246
     12          1           0        2.941544    0.273408   -1.784406
     13          1           0       -1.685037   -0.153246    2.845984
     14          1           0       -3.207534   -0.281753    0.595581
     15          6           0        2.480882    1.906595    1.106074
     16          1           0        4.076483    1.313468    0.042108
     17          8           0        2.070111    2.528644    1.995549
 ---------------------------------------------------------------------
                    Distance matrix (angstroms):
                    1          2          3          4          5
     1  C    0.000000
     2  C    1.387794   0.000000
     3  C    1.448625   2.607639   0.000000
     4  N    1.378838   2.214444   2.446755   0.000000
     5  C    2.531629   3.302623   1.346598   3.713328   0.000000
     6  H    2.197566   1.075520   3.022215   3.255640   3.305479
     7  H    2.142924   3.449769   1.085621   2.632491   2.061296
     8  C    2.268358   1.417475   3.702560   2.211871   4.609465
     9  C    2.260861   2.254654   3.620144   1.368717   4.783619
    10  H    2.108061   3.179717   2.689282   1.004984   3.993240
    11  C    3.235121   3.474893   2.551097   4.543758   1.453006
    12  H    3.451309   4.334776   2.067597   4.499581   1.082951
    13  H    3.310960   2.233641   4.720683   3.254829   5.529176
    14  H    3.274504   3.315910   4.553703   2.136541   5.771677
    15  C    3.318626   3.141536   3.181632   4.556941   2.497025
    16  H    4.283070   4.489297   3.461425   5.597817   2.186068
    17  O    3.829049   3.323968   4.051052   4.916281   3.584498
                    6          7          8          9         10
     6  H    0.000000
     7  H    3.988809   0.000000
     8  C    2.228603   4.335955   0.000000
     9  C    3.292846   3.949328   1.376072   0.000000
    10  H    4.187231   2.487957   3.183212   2.118440   0.000000
    11  C    3.089365   3.460287   4.850267   5.356826   5.024514
    12  H    4.335443   2.292658   5.615558   5.677076   4.595988
    13  H    2.693848   5.392094   1.078312   2.190109   4.194303
    14  H    4.330881   4.728372   2.238264   1.076910   2.516525
    15  C    2.637375   4.222827   4.384138   5.088030   5.195768
    16  H    3.978430   4.241320   5.881265   6.428926   6.036753
    17  O    2.774851   5.114616   4.319695   5.172387   5.647432
                   11         12         13         14         15
    11  C    0.000000
    12  H    2.118063   0.000000
    13  H    5.590392   6.559557   0.000000
    14  H    6.400502   6.616925   2.720078   0.000000
    15  C    1.317433   3.351772   4.962370   6.116171   0.000000
    16  H    1.085844   2.388716   6.573286   7.477164   2.007427
    17  O    2.477437   4.487042   4.692218   6.140992   1.160537
                   16         17
    16  H    0.000000
    17  O    3.052559   0.000000
 Symmetry turned off by external request.
 Stoichiometry    C8H7NO
 Framework group  C1[X(C8H7NO)]
 Deg. of freedom    45
 Full point group                 C1      NOp   1
 Rotational constants (GHZ):           2.4011532           0.9832314           0.7366367
 Standard basis: def2TZVP (5D, 7F)
 The following finite field(s) will be applied:
 An electric field of             -0.0085  0.0018  0.0050
   352 basis functions,   566 primitive gaussians,   402 cartesian basis functions
    35 alpha electrons       35 beta electrons
       nuclear repulsion energy       460.6238720652 Hartrees.
 NAtoms=   17 NActive=   17 NUniq=   17 SFac= 1.00D+00 NAtFMM=   60 NAOKFM=F Big=F
 Integral buffers will be    131072 words long.
 Raffenetti 2 integral format.
 Two-electron integral symmetry is turned off.
 One-electron integrals computed using PRISM.
   1 Symmetry operations used in ECPInt.
 ECPInt:  NShTT=    9591 NPrTT=   29644 LenC2=    9227 LenP2D=   22154.
 LDataN:  DoStor=T MaxTD1= 6 Len=  172
 NBasis=   352 RedAO= T EigKep=  3.35D-05  NBF=   352
 NBsUse=   352 1.00D-06 EigRej= -1.00D+00 NBFU=   352
 The nuclear repulsion energy is now       460.4042504733 hartrees.
 Initial guess from the checkpoint file:  "checkpoint.chk"
 B after Tr=    -0.000000    0.000000    0.000000
         Rot=    1.000000   -0.000000   -0.000000    0.000000 Ang=   0.00 deg.
 Requested convergence on RMS density matrix=1.00D-08 within 128 cycles.
 Requested convergence on MAX density matrix=1.00D-06.
 Requested convergence on             energy=1.00D-06.
 No special actions if energy rises.
 SCF Done:  E(RB3LYP) =  -439.164876024     A.U. after   11 cycles
            NFock= 11  Conv=0.43D-08     -V/T= 2.0050
   1 Symmetry operations used in ECPInt.
 ECPInt:  NShTT=    9591 NPrTT=   29644 LenC2=    9227 LenP2D=   22154.
 LDataN:  DoStor=T MaxTD1= 7 Len=  274
 Calling FoFJK, ICntrl=      2127 FMM=F ISym2X=0 I1Cent= 0 IOpClX= 0 NMat=1 NMatS=1 NMatT=0.
 -------------------------------------------------------------------
 Center     Atomic                   Forces (Hartrees/Bohr)
 Number     Number              X              Y              Z
 -------------------------------------------------------------------
      1        6           0.002435328   -0.000841825   -0.000212935
      2        6          -0.002115561    0.000705119    0.000383990
      3        6          -0.000138298    0.000176845   -0.000403060
      4        7           0.000230834    0.000170675    0.000087119
      5        6           0.000262540    0.000414615    0.000481736
      6        1           0.000075930   -0.000035838   -0.000158910
      7        1           0.000056418   -0.000014986    0.000087029
      8        6          -0.000049445    0.000042019   -0.000115367
      9        6          -0.000884902    0.000098963    0.000237938
     10        1           0.000377708   -0.000139439   -0.000163640
     11        6          -0.000734450    0.000190162    0.000290683
     12        1           0.000066151   -0.000031942    0.000020662
     13        1          -0.000046267   -0.000090490    0.000325950
     14        1          -0.000237569   -0.000105199   -0.000111530
     15        6           0.001221269   -0.001320755   -0.001799525
     16        1           0.000392662   -0.000037421   -0.000104359
     17        8          -0.000912349    0.000819497    0.001154220
 -------------------------------------------------------------------
 Cartesian Forces:  Max     0.002435328 RMS     0.000686269
 -----------------------------------------------------------------------------------------------
                       Internal Coordinate Forces (Hartree/Bohr or radian)
  Cent   Atom   N1       Length/X         N2         Alpha/Y        N3         Beta/Z          J
 -----------------------------------------------------------------------------------------------
      1  C 
      2  C        1   0.000436(     1)
      3  C        1   0.000343(     2)      2  -0.000112(    17)
      4  N        1   0.000475(     3)      2   0.002539(    18)      3   0.000041(    32)     0
      5  C        3   0.000291(     4)      1  -0.000113(    19)      2   0.000089(    33)     0
      6  H        2  -0.000032(     5)      1  -0.000351(    20)      3   0.000095(    34)     0
      7  H        3  -0.000083(     6)      1   0.000035(    21)      5  -0.000116(    35)     0
      8  C        2   0.000159(     7)      1   0.000563(    22)      6   0.000158(    36)     0
      9  C        4   0.000776(     8)      1   0.002287(    23)      2   0.000465(    37)     0
     10  H        4   0.000048(     9)      1  -0.000751(    24)      9   0.000275(    38)     0
     11  C        5  -0.000523(    10)      3  -0.000006(    25)      1  -0.000024(    39)     0
     12  H        5   0.000028(    11)      3   0.000090(    26)     11  -0.000102(    40)     0
     13  H        8   0.000327(    12)      2  -0.000109(    27)      1  -0.000134(    41)     0
     14  H        9   0.000256(    13)      4  -0.000177(    28)      1   0.000143(    42)     0
     15  C       11  -0.000872(    14)      5  -0.000863(    29)      3   0.000013(    43)     0
     16  H       11   0.000393(    15)      5  -0.000217(    30)     15  -0.000040(    44)     0
     17  O       15   0.001647(    16)     11   0.000773(    31)      5  -0.000000(    45)     0
 -----------------------------------------------------------------------------------------------
 Internal  Forces:  Max     0.002539396 RMS     0.000664636

 GradGradGradGradGradGradGradGradGradGradGradGradGradGradGradGradGradGrad
 Berny optimization.
 Search for a local minimum.
 Step number   1 out of a maximum of   55
 All quantities printed in internal units (Hartrees-Bohrs-Radians)
 Second derivative matrix not updated -- first step.
 ITU=  0
     Eigenvalues ---    0.02034   0.02720   0.03528   0.04112   0.06936
     Eigenvalues ---    0.07713   0.09056   0.10107   0.13607   0.19039
     Eigenvalues ---    0.20045   0.20654   0.20876   0.21477   0.22223
     Eigenvalues ---    0.23352   0.26321   0.27617   0.28238   0.29296
     Eigenvalues ---    0.30110   0.35296   0.35322   0.35640   0.36199
     Eigenvalues ---    0.36371   0.36542   0.37855   0.38425   0.41782
     Eigenvalues ---    0.44258   0.46828   0.48687   0.50624   0.53837
     Eigenvalues ---    0.55751   0.57180   0.58173   0.62567   0.64093
     Eigenvalues ---    0.91827   1.27446   1.72521   1.83704  16.24813
 RFO step:  Lambda=-1.85647167D-05 EMin= 2.03445693D-02
 Linear search not attempted -- first point.
 Variable       Old X    -DE/DX   Delta X   Delta X   Delta X     New X
                                 (Linear)    (Quad)   (Total)
    R2        2.62255   0.00044   0.00000   0.00036   0.00036   2.62291
    R3        2.73750   0.00034   0.00000   0.00089   0.00089   2.73840
    R4        2.60563   0.00047   0.00000  -0.00036  -0.00036   2.60527
    R5        2.54470   0.00029   0.00000   0.00052   0.00052   2.54523
    R6        2.03244  -0.00003   0.00000  -0.00009  -0.00009   2.03235
    R7        2.05153  -0.00008   0.00000  -0.00023  -0.00023   2.05129
    R8        2.67864   0.00016   0.00000   0.00152   0.00152   2.68016
    R9        2.58650   0.00078   0.00000   0.00119   0.00119   2.58769
   R10        1.89914   0.00005   0.00000   0.00012   0.00012   1.89926
   R11        2.74578  -0.00052   0.00000  -0.00138  -0.00138   2.74440
   R12        2.04648   0.00003   0.00000   0.00008   0.00008   2.04656
   R13        2.03771   0.00033   0.00000   0.00090   0.00090   2.03862
   R14        2.03507   0.00026   0.00000   0.00071   0.00071   2.03577
   R15        2.48959  -0.00087   0.00000  -0.00140  -0.00140   2.48819
   R16        2.05195   0.00039   0.00000   0.00111   0.00111   2.05306
   R17        2.19310   0.00165   0.00000   0.00130   0.00130   2.19439
    A3        2.33261  -0.00011   0.00000  -0.00005  -0.00005   2.33257
    A4        1.85595   0.00254   0.00000   0.00010   0.00010   1.85606
    A5        2.26542  -0.00011   0.00000  -0.00001  -0.00001   2.26541
    A6        2.19577  -0.00035   0.00000  -0.00082  -0.00082   2.19495
    A7        2.00214   0.00003   0.00000   0.00009   0.00009   2.00223
    A8        1.88348   0.00056   0.00000  -0.00063  -0.00063   1.88284
    A9        1.93285   0.00229   0.00000   0.00127   0.00127   1.93412
   A10        2.15682  -0.00075   0.00000  -0.00303  -0.00303   2.15379
   A11        2.29189  -0.00001   0.00000   0.00022   0.00022   2.29212
   A12        2.02851   0.00009   0.00000   0.00016   0.00016   2.02867
   A13        2.20736  -0.00011   0.00000  -0.00082  -0.00082   2.20654
   A14        2.11715  -0.00018   0.00000   0.00011   0.00011   2.11726
   A15        2.24442  -0.00086   0.00000  -0.00189  -0.00189   2.24252
   A16        2.06208  -0.00022   0.00000   0.00027   0.00027   2.06235
   A17        3.10003   0.00077   0.00000   0.00276   0.00276   3.10279
    D4        3.05135   0.00004   0.00000  -0.00333  -0.00333   3.04802
    D5       -0.46796   0.00009   0.00000   0.00099   0.00099  -0.46696
    D6        0.02976   0.00009   0.00000   0.00174   0.00174   0.03150
    D7        3.10932  -0.00012   0.00000  -0.00189  -0.00189   3.10743
    D8       -3.08813   0.00016   0.00000   0.00187   0.00187  -3.08626
    D9        0.00801   0.00047   0.00000  -0.00008  -0.00008   0.00794
   D10        3.13009   0.00028   0.00000   0.00385   0.00385   3.13394
   D11       -0.10068  -0.00002   0.00000  -0.00029  -0.00029  -0.10097
   D12       -3.13308  -0.00010   0.00000  -0.00091  -0.00091  -3.13398
   D13        3.12700  -0.00013   0.00000  -0.00341  -0.00341   3.12359
   D14        3.14525   0.00014   0.00000   0.00369   0.00369   3.14895
   D15       -0.32988   0.00001   0.00000   0.00017   0.00017  -0.32971
   D16       -3.01987  -0.00004   0.00000  -0.00017  -0.00017  -3.02004
   D17        3.09440  -0.00000   0.00000  -0.00001  -0.00001   3.09439
         Item               Value     Threshold  Converged?
 Maximum Force            0.002539     0.000450     NO 
 RMS     Force            0.000665     0.000300     NO 
 Maximum Displacement     0.003853     0.001800     NO 
 RMS     Displacement     0.001494     0.001200     NO 
 Predicted change in Energy=-9.282358D-06
 GradGradGradGradGradGradGradGradGradGradGradGradGradGradGradGradGradGrad

 ---------------------------------------------------------------------------------------------------
                            Z-MATRIX (ANGSTROMS AND DEGREES)
   CD    Cent   Atom    N1       Length/X        N2       Alpha/Y        N3        Beta/Z          J
 ---------------------------------------------------------------------------------------------------
      1      1  C 
      2      2  C        1   1.387984(     1)
      3      3  C        1   1.449097(     2)      2  133.646(    17)
      4      4  N        1   1.378650(     3)      2  106.344(    18)      3  174.639(    32)      0
      5      5  C        3   1.346876(     4)      1  129.799(    19)      2  -26.755(    33)      0
      6      6  H        2   1.075474(     5)      1  125.761(    20)      3    1.805(    34)      0
      7      7  H        3   1.085498(     6)      1  114.719(    21)      5  178.043(    35)      0
      8      8  C        2   1.418281(     7)      1  107.879(    22)      6 -176.830(    36)      0
      9      9  C        4   1.369348(     8)      1  110.817(    23)      2    0.455(    37)      0
     10     10  H        4   1.005047(     9)      1  123.403(    24)      9  179.562(    38)      0
     11     11  C        5   1.452274(    10)      3  131.329(    25)      1   -5.785(    39)      0
     12     12  H        5   1.082993(    11)      3  116.234(    26)     11 -179.564(    40)      0
     13     13  H        8   1.078789(    12)      2  126.425(    27)      1  178.969(    41)      0
     14     14  H        9   1.077285(    13)      4  121.310(    28)      1  180.421(    42)      0
     15     15  C       11   1.316693(    14)      5  128.487(    29)      3  -18.891(    43)      0
     16     16  H       11   1.086433(    15)      5  118.164(    30)     15 -173.035(    44)      0
     17     17  O       15   1.161223(    16)     11  177.777(    31)      5  177.296(    45)      0
 ---------------------------------------------------------------------------------------------------
                         Z-Matrix orientation:                         
 ---------------------------------------------------------------------
 Center     Atomic      Atomic             Coordinates (Angstroms)
 Number     Number       Type             X           Y           Z
 ---------------------------------------------------------------------
      1          6           0        0.000000    0.000000    0.000000
      2          6           0        0.000000    0.000000    1.387984
      3          6           0        1.048590    0.000000   -1.000170
      4          7           0       -1.317148   -0.123613   -0.387963
      5          6           0        2.310196    0.465844   -0.926577
      6          1           0        0.872269    0.027484    2.016503
      7          1           0        0.780181   -0.473703   -1.939248
      8          6           0       -1.344703   -0.117055    1.823407
      9          6           0       -2.141640   -0.190785    0.703281
     10          1           0       -1.610666   -0.151400   -1.348794
     11          6           0        2.999187    1.208354    0.114130
     12          1           0        2.942917    0.271853   -1.783844
     13          1           0       -1.685229   -0.162380    2.846038
     14          1           0       -3.208130   -0.296108    0.593516
     15          6           0        2.480713    1.903368    1.104999
     16          1           0        4.078393    1.310715    0.042202
     17          8           0        2.065178    2.524627    1.993710
 ---------------------------------------------------------------------
                    Distance matrix (angstroms):
                    1          2          3          4          5
     1  C    0.000000
     2  C    1.387984   0.000000
     3  C    1.449097   2.608222   0.000000
     4  N    1.378650   2.214531   2.446793   0.000000
     5  C    2.532303   3.303212   1.346876   3.714187   0.000000
     6  H    2.197247   1.075474   3.021947   3.255432   3.304772
     7  H    2.143306   3.450152   1.085498   2.632078   2.061358
     8  C    2.268643   1.418281   3.703261   2.211552   4.610907
     9  C    2.262217   2.256510   3.621562   1.369348   4.786067
    10  H    2.106279   3.179170   2.686281   1.005047   3.991543
    11  C    3.235470   3.475334   2.550806   4.544995   1.452274
    12  H    3.452066   4.335338   2.067975   4.500337   1.082993
    13  H    3.311540   2.234342   4.721594   3.255111   5.530887
    14  H    3.275979   3.318276   4.554907   2.137491   5.774354
    15  C    3.316288   3.139558   3.178918   4.556461   2.494565
    16  H    4.284045   4.490255   3.461823   5.599482   2.186061
    17  O    3.822771   3.317469   4.046049   4.911789   3.581438
                    6          7          8          9         10
     6  H    0.000000
     7  H    3.988438   0.000000
     8  C    2.230054   4.335885   0.000000
     9  C    3.294819   3.949688   1.376672   0.000000
    10  H    4.185951   2.483679   3.183516   2.120023   0.000000
    11  C    3.088245   3.459720   4.852598   5.360297   5.023924
    12  H    4.334736   2.292909   5.616688   5.679132   4.593858
    13  H    2.695361   5.392043   1.078789   2.191009   4.195509
    14  H    4.333504   4.727901   2.239878   1.077285   2.519007
    15  C    2.633794   4.220156   4.385433   5.090481   5.194473
    16  H    3.977911   4.241285   5.883977   6.432755   6.036393
    17  O    2.767539   5.109732   4.316801   5.170685   5.643162
                   11         12         13         14         15
    11  C    0.000000
    12  H    2.117192   0.000000
    13  H    5.593387   6.560800   0.000000
    14  H    6.404997   6.618897   2.722309   0.000000
    15  C    1.316693   3.349759   4.965239   6.120640   0.000000
    16  H    1.086433   2.388092   6.576537   7.481927   2.008322
    17  O    2.477452   4.485011   4.691696   6.142057   1.161223
                   16         17
    16  H    0.000000
    17  O    3.055323   0.000000
 Symmetry turned off by external request.
 Stoichiometry    C8H7NO
 Framework group  C1[X(C8H7NO)]
 Deg. of freedom    45
 Full point group                 C1      NOp   1
 Rotational constants (GHZ):           2.4041396           0.9832190           0.7367609
 Standard basis: def2TZVP (5D, 7F)
 The following finite field(s) will be applied:
 An electric field of             -0.0085  0.0018  0.0050
   352 basis functions,   566 primitive gaussians,   402 cartesian basis functions
    35 alpha electrons       35 beta electrons
       nuclear repulsion energy       460.6317706695 Hartrees.
 NAtoms=   17 NActive=   17 NUniq=   17 SFac= 1.00D+00 NAtFMM=   60 NAOKFM=F Big=F
 Integral buffers will be    131072 words long.
 Raffenetti 2 integral format.
 Two-electron integral symmetry is turned off.
 One-electron integrals computed using PRISM.
   1 Symmetry operations used in ECPInt.
 ECPInt:  NShTT=    9591 NPrTT=   29644 LenC2=    9227 LenP2D=   22158.
 LDataN:  DoStor=T MaxTD1= 6 Len=  172
 NBasis=   352 RedAO= T EigKep=  3.37D-05  NBF=   352
 NBsUse=   352 1.00D-06 EigRej= -1.00D+00 NBFU=   352
 The nuclear repulsion energy is now       460.4115086405 hartrees.
 Initial guess from the checkpoint file:  "checkpoint.chk"
 B after Tr=     0.000494   -0.006553   -0.001152
         Rot=    1.000000   -0.000045    0.000088   -0.000443 Ang=  -0.05 deg.
 Requested convergence on RMS density matrix=1.00D-08 within 128 cycles.
 Requested convergence on MAX density matrix=1.00D-06.
 Requested convergence on             energy=1.00D-06.
 No special actions if energy rises.
 SCF Done:  E(RB3LYP) =  -439.164886736     A.U. after    9 cycles
            NFock=  9  Conv=0.81D-08     -V/T= 2.0050
   1 Symmetry operations used in ECPInt.
 ECPInt:  NShTT=    9591 NPrTT=   29644 LenC2=    9227 LenP2D=   22158.
 LDataN:  DoStor=T MaxTD1= 7 Len=  274
 Calling FoFJK, ICntrl=      2127 FMM=F ISym2X=0 I1Cent= 0 IOpClX= 0 NMat=1 NMatS=1 NMatT=0.
 -------------------------------------------------------------------
 Center     Atomic                   Forces (Hartrees/Bohr)
 Number     Number              X              Y              Z
 -------------------------------------------------------------------
      1        6           0.002521859   -0.001027998   -0.000056009
      2        6          -0.002787992    0.000580214    0.000181793
      3        6          -0.000053158    0.000326281   -0.000091655
      4        7           0.000051370    0.000203874   -0.000111538
      5        6          -0.000071332    0.000026482    0.000063695
      6        1          -0.000036617   -0.000001168   -0.000022621
      7        1           0.000002804   -0.000003515    0.000016914
      8        6           0.000071052   -0.000024980   -0.000059062
      9        6          -0.000019356    0.000020235    0.000163581
     10        1           0.000108463   -0.000108158   -0.000058198
     11        6           0.000105398    0.000110905    0.000073976
     12        1          -0.000014342   -0.000050871   -0.000012648
     13        1           0.000018007    0.000021187    0.000020952
     14        1           0.000064741   -0.000003090   -0.000028909
     15        6           0.000352108   -0.000157423   -0.000227378
     16        1          -0.000013157   -0.000074775   -0.000038058
     17        8          -0.000299846    0.000162799    0.000185165
 -------------------------------------------------------------------
 Cartesian Forces:  Max     0.002787992 RMS     0.000563752
 -----------------------------------------------------------------------------------------------
                       Internal Coordinate Forces (Hartree/Bohr or radian)
  Cent   Atom   N1       Length/X         N2         Alpha/Y        N3         Beta/Z          J
 -----------------------------------------------------------------------------------------------
      1  C 
      2  C        1   0.000121(     1)
      3  C        1   0.000027(     2)      2   0.000057(    17)
      4  N        1  -0.000196(     3)      2   0.000220(    18)      3   0.000169(    32)     0
      5  C        3   0.000063(     4)      1   0.000166(    19)      2  -0.000058(    33)     0
      6  H        2  -0.000043(     5)      1   0.000006(    20)      3   0.000017(    34)     0
      7  H        3  -0.000014(     6)      1  -0.000009(    21)      5  -0.000018(    35)     0
      8  C        2  -0.000096(     7)      1   0.000027(    22)      6   0.000017(    36)     0
      9  C        4   0.000079(     8)      1  -0.000235(    23)      2   0.000212(    37)     0
     10  H        4   0.000027(     9)      1  -0.000210(    24)      9   0.000187(    38)     0
     11  C        5   0.000085(    10)      3   0.000190(    25)      1  -0.000262(    39)     0
     12  H        5   0.000011(    11)      3  -0.000083(    26)     11  -0.000063(    40)     0
     13  H        8   0.000013(    12)      2  -0.000051(    27)      1   0.000033(    41)     0
     14  H        9  -0.000061(    13)      4  -0.000072(    28)      1   0.000016(    42)     0
     15  C       11  -0.000050(    14)      5  -0.000332(    29)      3  -0.000179(    43)     0
     16  H       11  -0.000018(    15)      5  -0.000148(    30)     15  -0.000075(    44)     0
     17  O       15   0.000336(    16)     11   0.000424(    31)      5   0.000002(    45)     0
 -----------------------------------------------------------------------------------------------
 Internal  Forces:  Max     0.000423952 RMS     0.000146810

 GradGradGradGradGradGradGradGradGradGradGradGradGradGradGradGradGradGrad
 Berny optimization.
 Search for a local minimum.
 Step number   2 out of a maximum of   55
 All quantities printed in internal units (Hartrees-Bohrs-Radians)
 Update second derivatives using D2CorN and points    1    2
 DE= -1.07D-05 DEPred=-9.28D-06 R= 1.15D+00
 TightC=F SS=  1.41D+00  RLast= 1.00D-02 DXNew= 1.6818D-01 3.0067D-02
 Trust test= 1.15D+00 RLast= 1.00D-02 DXMaxT set to 1.00D-01
 ITU=  1  0
     Eigenvalues ---    0.02037   0.02704   0.03422   0.04088   0.06832
     Eigenvalues ---    0.07811   0.08978   0.10096   0.13503   0.19078
     Eigenvalues ---    0.19958   0.20143   0.20854   0.21606   0.22265
     Eigenvalues ---    0.23291   0.25362   0.27556   0.28045   0.29263
     Eigenvalues ---    0.30312   0.35315   0.35322   0.35639   0.36187
     Eigenvalues ---    0.36415   0.36542   0.37971   0.38399   0.41498
     Eigenvalues ---    0.44528   0.46827   0.48575   0.50482   0.53833
     Eigenvalues ---    0.55709   0.56766   0.58126   0.62528   0.64055
     Eigenvalues ---    0.91876   1.27048   1.72470   1.83839  16.24801
 RFO step:  Lambda=-3.05644456D-06 EMin= 2.03731425D-02
 Quartic linear search produced a step of  0.18248.
 Variable       Old X    -DE/DX   Delta X   Delta X   Delta X     New X
                                 (Linear)    (Quad)   (Total)
    R2        2.62291   0.00012   0.00007   0.00020   0.00027   2.62318
    R3        2.73840   0.00003   0.00016  -0.00004   0.00012   2.73852
    R4        2.60527  -0.00020  -0.00006  -0.00045  -0.00052   2.60475
    R5        2.54523   0.00006   0.00010   0.00006   0.00016   2.54538
    R6        2.03235  -0.00004  -0.00002  -0.00013  -0.00015   2.03220
    R7        2.05129  -0.00001  -0.00004  -0.00002  -0.00006   2.05123
    R8        2.68016  -0.00010   0.00028  -0.00053  -0.00025   2.67991
    R9        2.58769   0.00008   0.00022   0.00005   0.00027   2.58796
   R10        1.89926   0.00003   0.00002   0.00006   0.00008   1.89935
   R11        2.74440   0.00009  -0.00025   0.00049   0.00024   2.74464
   R12        2.04656   0.00001   0.00001   0.00003   0.00004   2.04660
   R13        2.03862   0.00001   0.00016  -0.00008   0.00008   2.03870
   R14        2.03577  -0.00006   0.00013  -0.00031  -0.00018   2.03559
   R15        2.48819  -0.00005  -0.00026   0.00012  -0.00013   2.48806
   R16        2.05306  -0.00002   0.00020  -0.00022  -0.00002   2.05305
   R17        2.19439   0.00034   0.00024   0.00011   0.00034   2.19474
    A3        2.33257   0.00006  -0.00001   0.00000  -0.00000   2.33256
    A4        1.85606   0.00022   0.00002   0.00041   0.00043   1.85649
    A5        2.26541   0.00017  -0.00000   0.00040   0.00040   2.26581
    A6        2.19495   0.00001  -0.00015   0.00025   0.00010   2.19505
    A7        2.00223  -0.00001   0.00002  -0.00025  -0.00023   2.00200
    A8        1.88284   0.00003  -0.00012  -0.00012  -0.00023   1.88261
    A9        1.93412  -0.00024   0.00023  -0.00061  -0.00038   1.93375
   A10        2.15379  -0.00021  -0.00055  -0.00023  -0.00078   2.15300
   A11        2.29212   0.00019   0.00004   0.00067   0.00071   2.29282
   A12        2.02867  -0.00008   0.00003  -0.00058  -0.00055   2.02812
   A13        2.20654  -0.00005  -0.00015  -0.00009  -0.00024   2.20630
   A14        2.11726  -0.00007   0.00002  -0.00044  -0.00042   2.11684
   A15        2.24252  -0.00033  -0.00035  -0.00063  -0.00098   2.24155
   A16        2.06235  -0.00015   0.00005  -0.00001   0.00004   2.06238
   A17        3.10279   0.00042   0.00050   0.00158   0.00208   3.10487
    D4        3.04802   0.00017  -0.00061   0.00073   0.00013   3.04815
    D5       -0.46696  -0.00006   0.00018   0.00057   0.00075  -0.46622
    D6        0.03150   0.00002   0.00032  -0.00050  -0.00018   0.03132
    D7        3.10743  -0.00002  -0.00035  -0.00100  -0.00134   3.10609
    D8       -3.08626   0.00002   0.00034  -0.00030   0.00004  -3.08622
    D9        0.00794   0.00021  -0.00001  -0.00011  -0.00012   0.00782
   D10        3.13394   0.00019   0.00070   0.00215   0.00285   3.13679
   D11       -0.10097  -0.00026  -0.00005  -0.00172  -0.00178  -0.10274
   D12       -3.13398  -0.00006  -0.00017   0.00016  -0.00001  -3.13399
   D13        3.12359   0.00003  -0.00062   0.00024  -0.00039   3.12321
   D14        3.14895   0.00002   0.00067   0.00066   0.00133   3.15028
   D15       -0.32971  -0.00018   0.00003  -0.00108  -0.00105  -0.33077
   D16       -3.02004  -0.00008  -0.00003   0.00013   0.00010  -3.01994
   D17        3.09439   0.00000  -0.00000   0.00010   0.00010   3.09449
         Item               Value     Threshold  Converged?
 Maximum Force            0.000424     0.000450     YES
 RMS     Force            0.000147     0.000300     YES
 Maximum Displacement     0.002850     0.001800     NO 
 RMS     Displacement     0.000746     0.001200     YES
 Predicted change in Energy=-1.562903D-06
 GradGradGradGradGradGradGradGradGradGradGradGradGradGradGradGradGradGrad

 ---------------------------------------------------------------------------------------------------
                            Z-MATRIX (ANGSTROMS AND DEGREES)
   CD    Cent   Atom    N1       Length/X        N2       Alpha/Y        N3        Beta/Z          J
 ---------------------------------------------------------------------------------------------------
      1      1  C 
      2      2  C        1   1.388126(     1)
      3      3  C        1   1.449160(     2)      2  133.646(    17)
      4      4  N        1   1.378377(     3)      2  106.369(    18)      3  174.646(    32)      0
      5      5  C        3   1.346958(     4)      1  129.821(    19)      2  -26.712(    33)      0
      6      6  H        2   1.075395(     5)      1  125.767(    20)      3    1.794(    34)      0
      7      7  H        3   1.085466(     6)      1  114.706(    21)      5  177.966(    35)      0
      8      8  C        2   1.418147(     7)      1  107.866(    22)      6 -176.827(    36)      0
      9      9  C        4   1.369492(     8)      1  110.796(    23)      2    0.448(    37)      0
     10     10  H        4   1.005091(     9)      1  123.358(    24)      9  179.725(    38)      0
     11     11  C        5   1.452400(    10)      3  131.369(    25)      1   -5.887(    39)      0
     12     12  H        5   1.083015(    11)      3  116.202(    26)     11 -179.564(    40)      0
     13     13  H        8   1.078832(    12)      2  126.412(    27)      1  178.947(    41)      0
     14     14  H        9   1.077190(    13)      4  121.286(    28)      1  180.498(    42)      0
     15     15  C       11   1.316622(    14)      5  128.431(    29)      3  -18.951(    43)      0
     16     16  H       11   1.086425(    15)      5  118.166(    30)     15 -173.030(    44)      0
     17     17  O       15   1.161406(    16)     11  177.896(    31)      5  177.301(    45)      0
 ---------------------------------------------------------------------------------------------------
                         Z-Matrix orientation:                         
 ---------------------------------------------------------------------
 Center     Atomic      Atomic             Coordinates (Angstroms)
 Number     Number       Type             X           Y           Z
 ---------------------------------------------------------------------
      1          6           0        0.000000    0.000000    0.000000
      2          6           0        0.000000    0.000000    1.388126
      3          6           0        1.048640    0.000000   -1.000210
      4          7           0       -1.316736   -0.123405   -0.388457
      5          6           0        2.310649    0.465028   -0.926858
      6          1           0        0.872144    0.027322    2.016689
      7          1           0        0.780207   -0.474255   -1.938966
      8          6           0       -1.344693   -0.116868    1.823194
      9          6           0       -2.141368   -0.190639    0.702859
     10          1           0       -1.608896   -0.153328   -1.349682
     11          6           0        3.000827    1.208396    0.112624
     12          1           0        2.943012    0.269208   -1.784000
     13          1           0       -1.685208   -0.162484    2.845860
     14          1           0       -3.207603   -0.297059    0.592613
     15          6           0        2.482254    1.905934    1.101571
     16          1           0        4.080211    1.308780    0.040696
     17          8           0        2.064285    2.529110    1.988034
 ---------------------------------------------------------------------
                    Distance matrix (angstroms):
                    1          2          3          4          5
     1  C    0.000000
     2  C    1.388126   0.000000
     3  C    1.449160   2.608408   0.000000
     4  N    1.378377   2.214784   2.446319   0.000000
     5  C    2.532669   3.303710   1.346958   3.714034   0.000000
     6  H    2.197366   1.075395   3.022181   3.255556   3.305352
     7  H    2.143182   3.450099   1.085466   2.631415   2.061278
     8  C    2.268456   1.418147   3.703148   2.211836   4.611172
     9  C    2.261816   2.256411   3.621179   1.369492   4.786055
    10  H    2.105635   3.179253   2.684798   1.005091   3.990486
    11  C    3.236954   3.477368   2.551402   4.546002   1.452400
    12  H    3.452021   4.335456   2.067715   4.499683   1.083015
    13  H    3.311381   2.234125   4.721502   3.255473   5.531188
    14  H    3.275386   3.318103   4.554222   2.137295   5.774138
    15  C    3.317774   3.142655   3.178885   4.557491   2.494029
    16  H    4.285170   4.491836   3.462197   5.600211   2.186191
    17  O    3.822296   3.319271   4.044444   4.910687   3.580185
                    6          7          8          9         10
     6  H    0.000000
     7  H    3.988388   0.000000
     8  C    2.229932   4.335524   0.000000
     9  C    3.294679   3.949085   1.376693   0.000000
    10  H    4.185768   2.481545   3.184066   2.120812   0.000000
    11  C    3.090581   3.459984   4.854474   5.361702   5.024160
    12  H    4.335002   2.292265   5.616521   5.678631   4.592063
    13  H    2.695107   5.391663   1.078832   2.191193   4.196247
    14  H    4.333308   4.726830   2.239918   1.077190   2.519729
    15  C    2.638006   4.219849   4.388392   5.092393   5.194873
    16  H    3.979745   4.241262   5.885520   6.433876   6.036294
    17  O    2.771455   5.107874   4.318506   5.170708   5.641638
                   11         12         13         14         15
    11  C    0.000000
    12  H    2.117214   0.000000
    13  H    5.595428   6.560669   0.000000
    14  H    6.406356   6.618083   2.722668   0.000000
    15  C    1.316622   3.349281   4.968765   6.122637   0.000000
    16  H    1.086425   2.388189   6.578268   7.483018   2.008859
    17  O    2.477612   4.484145   4.694596   6.142250   1.161406
                   16         17
    16  H    0.000000
    17  O    3.057006   0.000000
 Symmetry turned off by external request.
 Stoichiometry    C8H7NO
 Framework group  C1[X(C8H7NO)]
 Deg. of freedom    45
 Full point group                 C1      NOp   1
 Rotational constants (GHZ):           2.4048933           0.9825664           0.7366925
 Standard basis: def2TZVP (5D, 7F)
 The following finite field(s) will be applied:
 An electric field of             -0.0085  0.0018  0.0050
   352 basis functions,   566 primitive gaussians,   402 cartesian basis functions
    35 alpha electrons       35 beta electrons
       nuclear repulsion energy       460.5987376089 Hartrees.
 NAtoms=   17 NActive=   17 NUniq=   17 SFac= 1.00D+00 NAtFMM=   60 NAOKFM=F Big=F
 Integral buffers will be    131072 words long.
 Raffenetti 2 integral format.
 Two-electron integral symmetry is turned off.
 One-electron integrals computed using PRISM.
   1 Symmetry operations used in ECPInt.
 ECPInt:  NShTT=    9591 NPrTT=   29644 LenC2=    9227 LenP2D=   22158.
 LDataN:  DoStor=T MaxTD1= 6 Len=  172
 NBasis=   352 RedAO= T EigKep=  3.37D-05  NBF=   352
 NBsUse=   352 1.00D-06 EigRej= -1.00D+00 NBFU=   352
 The nuclear repulsion energy is now       460.3774164171 hartrees.
 Initial guess from the checkpoint file:  "checkpoint.chk"
 B after Tr=     0.000971   -0.000378   -0.000945
         Rot=    1.000000    0.000672    0.000019   -0.000140 Ang=   0.08 deg.
 Requested convergence on RMS density matrix=1.00D-08 within 128 cycles.
 Requested convergence on MAX density matrix=1.00D-06.
 Requested convergence on             energy=1.00D-06.
 No special actions if energy rises.
 SCF Done:  E(RB3LYP) =  -439.164888978     A.U. after    9 cycles
            NFock=  9  Conv=0.55D-08     -V/T= 2.0050
   1 Symmetry operations used in ECPInt.
 ECPInt:  NShTT=    9591 NPrTT=   29644 LenC2=    9227 LenP2D=   22158.
 LDataN:  DoStor=T MaxTD1= 7 Len=  274
 Calling FoFJK, ICntrl=      2127 FMM=F ISym2X=0 I1Cent= 0 IOpClX= 0 NMat=1 NMatS=1 NMatT=0.
 -------------------------------------------------------------------
 Center     Atomic                   Forces (Hartrees/Bohr)
 Number     Number              X              Y              Z
 -------------------------------------------------------------------
      1        6           0.002795915   -0.000954115   -0.000010043
      2        6          -0.002793111    0.000610970   -0.000021568
      3        6           0.000062956    0.000309485    0.000046448
      4        7           0.000015949    0.000174159    0.000059887
      5        6          -0.000095898   -0.000007032   -0.000015326
      6        1           0.000029028    0.000037762   -0.000000743
      7        1           0.000005444   -0.000013616   -0.000011972
      8        6           0.000030150   -0.000064675   -0.000061552
      9        6          -0.000076651   -0.000026159    0.000024938
     10        1           0.000004591   -0.000077840    0.000018754
     11        6           0.000133977    0.000047838    0.000053649
     12        1          -0.000004510   -0.000004784   -0.000013700
     13        1          -0.000006718    0.000033398   -0.000017890
     14        1          -0.000011505    0.000014524    0.000001345
     15        6           0.000023673    0.000014960    0.000047071
     16        1          -0.000032057   -0.000070243   -0.000031707
     17        8          -0.000081233   -0.000024632   -0.000067589
 -------------------------------------------------------------------
 Cartesian Forces:  Max     0.002795915 RMS     0.000579391
 -----------------------------------------------------------------------------------------------
                       Internal Coordinate Forces (Hartree/Bohr or radian)
  Cent   Atom   N1       Length/X         N2         Alpha/Y        N3         Beta/Z          J
 -----------------------------------------------------------------------------------------------
      1  C 
      2  C        1  -0.000102(     1)
      3  C        1   0.000004(     2)      2  -0.000134(    17)
      4  N        1   0.000027(     3)      2  -0.000184(    18)      3   0.000208(    32)     0
      5  C        3  -0.000069(     4)      1  -0.000033(    19)      2   0.000040(    33)     0
      6  H        2   0.000024(     5)      1  -0.000037(    20)      3   0.000123(    34)     0
      7  H        3   0.000015(     6)      1   0.000013(    21)      5  -0.000018(    35)     0
      8  C        2  -0.000044(     7)      1  -0.000205(    22)      6   0.000063(    36)     0
      9  C        4   0.000075(     8)      1   0.000137(    23)      2   0.000120(    37)     0
     10  H        4  -0.000017(     9)      1   0.000015(    24)      9   0.000124(    38)     0
     11  C        5   0.000006(    10)      3  -0.000123(    25)      1  -0.000051(    39)     0
     12  H        5   0.000009(    11)      3  -0.000024(    26)     11   0.000005(    40)     0
     13  H        8  -0.000016(    12)      2   0.000020(    27)      1   0.000055(    41)     0
     14  H        9   0.000010(    13)      4   0.000005(    28)      1  -0.000027(    42)     0
     15  C       11   0.000002(    14)      5  -0.000374(    29)      3  -0.000112(    43)     0
     16  H       11  -0.000036(    15)      5  -0.000132(    30)     15  -0.000070(    44)     0
     17  O       15  -0.000036(    16)     11   0.000223(    31)      5   0.000001(    45)     0
 -----------------------------------------------------------------------------------------------
 Internal  Forces:  Max     0.000374325 RMS     0.000103713

 GradGradGradGradGradGradGradGradGradGradGradGradGradGradGradGradGradGrad
 Berny optimization.
 Search for a local minimum.
 Step number   3 out of a maximum of   55
 All quantities printed in internal units (Hartrees-Bohrs-Radians)
 Update second derivatives using D2CorN and points    1    2    3
 DE= -2.24D-06 DEPred=-1.56D-06 R= 1.43D+00
 TightC=F SS=  1.41D+00  RLast= 5.01D-03 DXNew= 1.6818D-01 1.5020D-02
 Trust test= 1.43D+00 RLast= 5.01D-03 DXMaxT set to 1.00D-01
 ITU=  1  1  0
     Eigenvalues ---    0.02208   0.02660   0.03040   0.04007   0.06168
     Eigenvalues ---    0.07760   0.09038   0.10068   0.12927   0.18483
     Eigenvalues ---    0.19244   0.20272   0.20864   0.21531   0.22292
     Eigenvalues ---    0.23208   0.24341   0.27619   0.27970   0.29344
     Eigenvalues ---    0.30293   0.35323   0.35350   0.35638   0.36202
     Eigenvalues ---    0.36428   0.36554   0.38014   0.38397   0.41345
     Eigenvalues ---    0.44605   0.46831   0.48552   0.50454   0.53828
     Eigenvalues ---    0.55649   0.56146   0.58120   0.62564   0.64023
     Eigenvalues ---    0.92092   1.26998   1.72366   1.83930  16.24823
 RFO step:  Lambda=-2.16579695D-06 EMin= 2.20828945D-02
 Quartic linear search produced a step of  0.51068.
 Variable       Old X    -DE/DX   Delta X   Delta X   Delta X     New X
                                 (Linear)    (Quad)   (Total)
    R2        2.62318  -0.00010   0.00014  -0.00022  -0.00009   2.62309
    R3        2.73852   0.00000   0.00006   0.00003   0.00009   2.73861
    R4        2.60475   0.00003  -0.00026   0.00015  -0.00012   2.60464
    R5        2.54538  -0.00007   0.00008  -0.00026  -0.00018   2.54520
    R6        2.03220   0.00002  -0.00008   0.00015   0.00008   2.03228
    R7        2.05123   0.00001  -0.00003   0.00009   0.00006   2.05129
    R8        2.67991  -0.00004  -0.00013   0.00011  -0.00002   2.67989
    R9        2.58796   0.00007   0.00014   0.00001   0.00015   2.58811
   R10        1.89935  -0.00002   0.00004  -0.00008  -0.00004   1.89931
   R11        2.74464   0.00001   0.00012  -0.00006   0.00006   2.74470
   R12        2.04660   0.00001   0.00002   0.00005   0.00007   2.04667
   R13        2.03870  -0.00002   0.00004  -0.00007  -0.00003   2.03867
   R14        2.03559   0.00001  -0.00009   0.00011   0.00002   2.03561
   R15        2.48806   0.00000  -0.00007  -0.00000  -0.00007   2.48798
   R16        2.05305  -0.00004  -0.00001  -0.00017  -0.00017   2.05287
   R17        2.19474  -0.00004   0.00018  -0.00012   0.00006   2.19480
    A3        2.33256  -0.00013  -0.00000  -0.00000  -0.00001   2.33255
    A4        1.85649  -0.00018   0.00022  -0.00038  -0.00016   1.85633
    A5        2.26581  -0.00003   0.00020  -0.00004   0.00017   2.26598
    A6        2.19505  -0.00004   0.00005  -0.00027  -0.00021   2.19484
    A7        2.00200   0.00001  -0.00012   0.00007  -0.00005   2.00195
    A8        1.88261  -0.00020  -0.00012   0.00004  -0.00008   1.88253
    A9        1.93375   0.00014  -0.00019   0.00059   0.00040   1.93414
   A10        2.15300   0.00002  -0.00040  -0.00015  -0.00055   2.15246
   A11        2.29282  -0.00012   0.00036  -0.00049  -0.00013   2.29269
   A12        2.02812  -0.00002  -0.00028   0.00013  -0.00015   2.02797
   A13        2.20630   0.00002  -0.00012  -0.00006  -0.00018   2.20612
   A14        2.11684   0.00001  -0.00021   0.00039   0.00017   2.11702
   A15        2.24155  -0.00037  -0.00050  -0.00146  -0.00196   2.23958
   A16        2.06238  -0.00013   0.00002   0.00003   0.00004   2.06243
   A17        3.10487   0.00022   0.00106   0.00138   0.00244   3.10731
    D4        3.04815   0.00021   0.00006   0.00117   0.00123   3.04938
    D5       -0.46622   0.00004   0.00038   0.00245   0.00283  -0.46338
    D6        0.03132   0.00012  -0.00009   0.00065   0.00056   0.03187
    D7        3.10609  -0.00002  -0.00069  -0.00173  -0.00242   3.10367
    D8       -3.08622   0.00006   0.00002  -0.00069  -0.00066  -3.08688
    D9        0.00782   0.00012  -0.00006  -0.00122  -0.00129   0.00653
   D10        3.13679   0.00012   0.00146   0.00324   0.00470   3.14149
   D11       -0.10274  -0.00005  -0.00091  -0.00085  -0.00175  -0.10450
   D12       -3.13399   0.00001  -0.00000  -0.00003  -0.00004  -3.13402
   D13        3.12321   0.00005  -0.00020   0.00008  -0.00012   3.12309
   D14        3.15028  -0.00003   0.00068   0.00101   0.00169   3.15197
   D15       -0.33077  -0.00011  -0.00054  -0.00170  -0.00224  -0.33301
   D16       -3.01994  -0.00007   0.00005   0.00067   0.00072  -3.01922
   D17        3.09449   0.00000   0.00005   0.00043   0.00048   3.09497
         Item               Value     Threshold  Converged?
 Maximum Force            0.000374     0.000450     YES
 RMS     Force            0.000104     0.000300     YES
 Maximum Displacement     0.004696     0.001800     NO 
 RMS     Displacement     0.001175     0.001200     YES
 Predicted change in Energy=-1.155330D-06
 GradGradGradGradGradGradGradGradGradGradGradGradGradGradGradGradGradGrad

 ---------------------------------------------------------------------------------------------------
                            Z-MATRIX (ANGSTROMS AND DEGREES)
   CD    Cent   Atom    N1       Length/X        N2       Alpha/Y        N3        Beta/Z          J
 ---------------------------------------------------------------------------------------------------
      1      1  C 
      2      2  C        1   1.388080(     1)
      3      3  C        1   1.449209(     2)      2  133.646(    17)
      4      4  N        1   1.378314(     3)      2  106.360(    18)      3  174.717(    32)      0
      5      5  C        3   1.346862(     4)      1  129.831(    19)      2  -26.550(    33)      0
      6      6  H        2   1.075436(     5)      1  125.755(    20)      3    1.826(    34)      0
      7      7  H        3   1.085496(     6)      1  114.703(    21)      5  177.827(    35)      0
      8      8  C        2   1.418136(     7)      1  107.861(    22)      6 -176.865(    36)      0
      9      9  C        4   1.369570(     8)      1  110.818(    23)      2    0.374(    37)      0
     10     10  H        4   1.005070(     9)      1  123.327(    24)      9  179.994(    38)      0
     11     11  C        5   1.452431(    10)      3  131.361(    25)      1   -5.987(    39)      0
     12     12  H        5   1.083051(    11)      3  116.194(    26)     11 -179.566(    40)      0
     13     13  H        8   1.078816(    12)      2  126.401(    27)      1  178.940(    41)      0
     14     14  H        9   1.077198(    13)      4  121.296(    28)      1  180.594(    42)      0
     15     15  C       11   1.316585(    14)      5  128.319(    29)      3  -19.080(    43)      0
     16     16  H       11   1.086333(    15)      5  118.169(    30)     15 -172.989(    44)      0
     17     17  O       15   1.161437(    16)     11  178.036(    31)      5  177.328(    45)      0
 ---------------------------------------------------------------------------------------------------
                         Z-Matrix orientation:                         
 ---------------------------------------------------------------------
 Center     Atomic      Atomic             Coordinates (Angstroms)
 Number     Number       Type             X           Y           Z
 ---------------------------------------------------------------------
      1          6           0        0.000000    0.000000    0.000000
      2          6           0        0.000000    0.000000    1.388080
      3          6           0        1.048681    0.000000   -1.000237
      4          7           0       -1.316889   -0.121781   -0.388228
      5          6           0        2.311541    0.462313   -0.926144
      6          1           0        0.872296    0.027813    2.016482
      7          1           0        0.780065   -0.473919   -1.939144
      8          6           0       -1.344730   -0.116725    1.823036
      9          6           0       -2.141760   -0.189667    0.702965
     10          1           0       -1.608451   -0.154161   -1.349533
     11          6           0        3.002655    1.203875    0.114050
     12          1           0        2.943796    0.265352   -1.783149
     13          1           0       -1.685133   -0.162397    2.845720
     14          1           0       -3.207949   -0.296570    0.592659
     15          6           0        2.482572    1.903356    1.100780
     16          1           0        4.082354    1.300863    0.043601
     17          8           0        2.060581    2.527716    1.984541
 ---------------------------------------------------------------------
                    Distance matrix (angstroms):
                    1          2          3          4          5
     1  C    0.000000
     2  C    1.388080   0.000000
     3  C    1.449209   2.608408   0.000000
     4  N    1.378314   2.214565   2.446490   0.000000
     5  C    2.532725   3.303420   1.346862   3.714300   0.000000
     6  H    2.197242   1.075436   3.021999   3.255386   3.304430
     7  H    2.143218   3.450149   1.085496   2.631836   2.061096
     8  C    2.268344   1.418136   3.703095   2.211444   4.611029
     9  C    2.262138   2.256655   3.621572   1.369570   4.786539
    10  H    2.105260   3.178900   2.684423   1.005070   3.990693
    11  C    3.237014   3.476838   2.551267   4.546220   1.452431
    12  H    3.451951   4.335094   2.067564   4.499902   1.083051
    13  H    3.311219   2.234001   4.721387   3.255099   5.530879
    14  H    3.275689   3.318371   4.554578   2.137475   5.774724
    15  C    3.316270   3.141412   3.176961   4.555682   2.492845
    16  H    4.284829   4.490599   3.461937   5.600198   2.186172
    17  O    3.817558   3.315284   4.040073   4.904812   3.577842
                    6          7          8          9         10
     6  H    0.000000
     7  H    3.988385   0.000000
     8  C    2.230139   4.335475   0.000000
     9  C    3.295020   3.949507   1.376639   0.000000
    10  H    4.185365   2.480906   3.183731   2.120950   0.000000
    11  C    3.088818   3.459842   4.854315   5.362255   5.024802
    12  H    4.334136   2.291852   5.616227   5.678968   4.592054
    13  H    2.695229   5.391584   1.078816   2.191039   4.195962
    14  H    4.333693   4.727128   2.240035   1.077198   2.520077
    15  C    2.636127   4.217950   4.387554   5.091508   5.193639
    16  H    3.977108   4.241019   5.884657   6.433975   6.036818
    17  O    2.768133   5.103415   4.314545   5.165876   5.636516
                   11         12         13         14         15
    11  C    0.000000
    12  H    2.117465   0.000000
    13  H    5.595005   6.560212   0.000000
    14  H    6.407184   6.618473   2.722730   0.000000
    15  C    1.316585   3.348557   4.968090   6.122083   0.000000
    16  H    1.086333   2.388643   6.576998   7.483434   2.009957
    17  O    2.477659   4.482616   4.691345   6.137699   1.161437
                   16         17
    16  H    0.000000
    17  O    3.059408   0.000000
 Symmetry turned off by external request.
 Stoichiometry    C8H7NO
 Framework group  C1[X(C8H7NO)]
 Deg. of freedom    45
 Full point group                 C1      NOp   1
 Rotational constants (GHZ):           2.4061495           0.9831286           0.7372991
 Standard basis: def2TZVP (5D, 7F)
 The following finite field(s) will be applied:
 An electric field of             -0.0085  0.0018  0.0050
   352 basis functions,   566 primitive gaussians,   402 cartesian basis functions
    35 alpha electrons       35 beta electrons
       nuclear repulsion energy       460.6675639117 Hartrees.
 NAtoms=   17 NActive=   17 NUniq=   17 SFac= 1.00D+00 NAtFMM=   60 NAOKFM=F Big=F
 Integral buffers will be    131072 words long.
 Raffenetti 2 integral format.
 Two-electron integral symmetry is turned off.
 One-electron integrals computed using PRISM.
   1 Symmetry operations used in ECPInt.
 ECPInt:  NShTT=    9591 NPrTT=   29644 LenC2=    9227 LenP2D=   22161.
 LDataN:  DoStor=T MaxTD1= 6 Len=  172
 NBasis=   352 RedAO= T EigKep=  3.36D-05  NBF=   352
 NBsUse=   352 1.00D-06 EigRej= -1.00D+00 NBFU=   352
 The nuclear repulsion energy is now       460.4460695951 hartrees.
 Initial guess from the checkpoint file:  "checkpoint.chk"
 B after Tr=    -0.000627   -0.001554   -0.000208
         Rot=    1.000000    0.000281    0.000173    0.000289 Ang=   0.05 deg.
 Requested convergence on RMS density matrix=1.00D-08 within 128 cycles.
 Requested convergence on MAX density matrix=1.00D-06.
 Requested convergence on             energy=1.00D-06.
 No special actions if energy rises.
 SCF Done:  E(RB3LYP) =  -439.164890376     A.U. after    9 cycles
            NFock=  9  Conv=0.83D-08     -V/T= 2.0050
   1 Symmetry operations used in ECPInt.
 ECPInt:  NShTT=    9591 NPrTT=   29644 LenC2=    9227 LenP2D=   22161.
 LDataN:  DoStor=T MaxTD1= 7 Len=  274
 Calling FoFJK, ICntrl=      2127 FMM=F ISym2X=0 I1Cent= 0 IOpClX= 0 NMat=1 NMatS=1 NMatT=0.
 -------------------------------------------------------------------
 Center     Atomic                   Forces (Hartrees/Bohr)
 Number     Number              X              Y              Z
 -------------------------------------------------------------------
      1        6           0.002755193   -0.000777803    0.000028021
      2        6          -0.002768736    0.000568735    0.000010947
      3        6          -0.000030992    0.000129414    0.000060387
      4        7          -0.000029655    0.000032804   -0.000109689
      5        6          -0.000037916   -0.000005115   -0.000076903
      6        1          -0.000033054    0.000002437    0.000008562
      7        1          -0.000018391    0.000025762   -0.000013679
      8        6           0.000030043   -0.000039667    0.000101819
      9        6           0.000092159   -0.000029403   -0.000069099
     10        1          -0.000046438   -0.000048388    0.000001953
     11        6           0.000151235    0.000042301    0.000043625
     12        1           0.000003070    0.000028660    0.000005685
     13        1          -0.000009723    0.000037215    0.000004372
     14        1           0.000006481    0.000036819    0.000003148
     15        6          -0.000110716    0.000083877    0.000080805
     16        1          -0.000016776   -0.000041537    0.000017055
     17        8           0.000064215   -0.000046112   -0.000097009
 -------------------------------------------------------------------
 Cartesian Forces:  Max     0.002768736 RMS     0.000565980
 -----------------------------------------------------------------------------------------------
                       Internal Coordinate Forces (Hartree/Bohr or radian)
  Cent   Atom   N1       Length/X         N2         Alpha/Y        N3         Beta/Z          J
 -----------------------------------------------------------------------------------------------
      1  C 
      2  C        1   0.000126(     1)
      3  C        1  -0.000011(     2)      2   0.000048(    17)
      4  N        1   0.000028(     3)      2   0.000252(    18)      3   0.000022(    32)     0
      5  C        3   0.000070(     4)      1   0.000113(    19)      2  -0.000012(    33)     0
      6  H        2  -0.000022(     5)      1   0.000053(    20)      3  -0.000008(    34)     0
      7  H        3   0.000005(     6)      1  -0.000014(    21)      5   0.000062(    35)     0
      8  C        2   0.000014(     7)      1   0.000278(    22)      6  -0.000014(    36)     0
      9  C        4  -0.000112(     8)      1  -0.000106(    23)      2   0.000081(    37)     0
     10  H        4   0.000013(     9)      1   0.000093(    24)      9   0.000070(    38)     0
     11  C        5   0.000093(    10)      3   0.000121(    25)      1  -0.000103(    39)     0
     12  H        5  -0.000008(    11)      3   0.000038(    26)     11   0.000039(    40)     0
     13  H        8   0.000006(    12)      2   0.000011(    27)      1   0.000062(    41)     0
     14  H        9  -0.000010(    13)      4   0.000005(    28)      1  -0.000063(    42)     0
     15  C       11   0.000026(    14)      5  -0.000050(    29)      3  -0.000185(    43)     0
     16  H       11  -0.000021(    15)      5  -0.000016(    30)     15  -0.000076(    44)     0
     17  O       15  -0.000122(    16)     11  -0.000045(    31)      5   0.000001(    45)     0
 -----------------------------------------------------------------------------------------------
 Internal  Forces:  Max     0.000277661 RMS     0.000086369

 GradGradGradGradGradGradGradGradGradGradGradGradGradGradGradGradGradGrad
 Berny optimization.
 Search for a local minimum.
 Step number   4 out of a maximum of   55
 All quantities printed in internal units (Hartrees-Bohrs-Radians)
 Update second derivatives using D2CorN and points    1    2    3    4
 DE= -1.40D-06 DEPred=-1.16D-06 R= 1.21D+00
 TightC=F SS=  1.41D+00  RLast= 7.88D-03 DXNew= 1.6818D-01 2.3652D-02
 Trust test= 1.21D+00 RLast= 7.88D-03 DXMaxT set to 1.00D-01
 ITU=  1  1  1  0
     Eigenvalues ---    0.01960   0.02744   0.03030   0.04107   0.05942
     Eigenvalues ---    0.07763   0.09032   0.10175   0.12687   0.18177
     Eigenvalues ---    0.19233   0.20311   0.20902   0.21530   0.22466
     Eigenvalues ---    0.23282   0.24393   0.27633   0.27967   0.29346
     Eigenvalues ---    0.30358   0.35323   0.35355   0.35639   0.36201
     Eigenvalues ---    0.36433   0.36556   0.38071   0.38410   0.41347
     Eigenvalues ---    0.44639   0.46831   0.48544   0.50443   0.53844
     Eigenvalues ---    0.55571   0.56051   0.58117   0.62583   0.64038
     Eigenvalues ---    0.92138   1.27037   1.72340   1.84050  16.24812
 RFO step:  Lambda=-1.07322203D-06 EMin= 1.96004760D-02
 Quartic linear search produced a step of  0.12045.
 Variable       Old X    -DE/DX   Delta X   Delta X   Delta X     New X
                                 (Linear)    (Quad)   (Total)
    R2        2.62309   0.00013  -0.00001   0.00014   0.00013   2.62323
    R3        2.73861  -0.00001   0.00001  -0.00000   0.00001   2.73861
    R4        2.60464   0.00003  -0.00001   0.00004   0.00003   2.60466
    R5        2.54520   0.00007  -0.00002   0.00016   0.00014   2.54534
    R6        2.03228  -0.00002   0.00001  -0.00008  -0.00007   2.03221
    R7        2.05129   0.00001   0.00001   0.00002   0.00002   2.05131
    R8        2.67989   0.00001  -0.00000  -0.00009  -0.00009   2.67980
    R9        2.58811  -0.00011   0.00002  -0.00005  -0.00003   2.58808
   R10        1.89931   0.00001  -0.00000   0.00004   0.00003   1.89934
   R11        2.74470   0.00009   0.00001   0.00033   0.00034   2.74503
   R12        2.04667  -0.00001   0.00001  -0.00002  -0.00001   2.04666
   R13        2.03867   0.00001  -0.00000   0.00004   0.00004   2.03870
   R14        2.03561  -0.00001   0.00000  -0.00003  -0.00003   2.03558
   R15        2.48798   0.00003  -0.00001   0.00002   0.00002   2.48800
   R16        2.05287  -0.00002  -0.00002  -0.00008  -0.00010   2.05277
   R17        2.19480  -0.00012   0.00001  -0.00011  -0.00010   2.19470
    A3        2.33255   0.00005  -0.00000   0.00004   0.00004   2.33259
    A4        1.85633   0.00025  -0.00002   0.00018   0.00017   1.85649
    A5        2.26598   0.00011   0.00002   0.00031   0.00033   2.26631
    A6        2.19484   0.00005  -0.00003   0.00019   0.00016   2.19500
    A7        2.00195  -0.00001  -0.00001  -0.00021  -0.00021   2.00174
    A8        1.88253   0.00028  -0.00001   0.00002   0.00001   1.88254
    A9        1.93414  -0.00011   0.00005  -0.00036  -0.00031   1.93384
   A10        2.15246   0.00009  -0.00007   0.00042   0.00035   2.15281
   A11        2.29269   0.00012  -0.00002   0.00026   0.00024   2.29293
   A12        2.02797   0.00004  -0.00002   0.00002   0.00001   2.02797
   A13        2.20612   0.00001  -0.00002   0.00013   0.00011   2.20623
   A14        2.11702   0.00001   0.00002  -0.00019  -0.00017   2.11685
   A15        2.23958  -0.00005  -0.00024  -0.00060  -0.00083   2.23875
   A16        2.06243  -0.00002   0.00001   0.00016   0.00017   2.06260
   A17        3.10731  -0.00005   0.00029   0.00031   0.00061   3.10792
    D4        3.04938   0.00002   0.00015  -0.00009   0.00006   3.04944
    D5       -0.46338  -0.00001   0.00034   0.00069   0.00103  -0.46235
    D6        0.03187  -0.00001   0.00007   0.00031   0.00038   0.03225
    D7        3.10367   0.00006  -0.00029  -0.00031  -0.00060   3.10307
    D8       -3.08688  -0.00001  -0.00008  -0.00068  -0.00076  -3.08764
    D9        0.00653   0.00008  -0.00015   0.00014  -0.00002   0.00651
   D10        3.14149   0.00007   0.00057   0.00226   0.00282   3.14431
   D11       -0.10450  -0.00010  -0.00021  -0.00062  -0.00083  -0.10533
   D12       -3.13402   0.00004  -0.00000   0.00013   0.00012  -3.13390
   D13        3.12309   0.00006  -0.00001   0.00109   0.00108   3.12417
   D14        3.15197  -0.00006   0.00020   0.00009   0.00029   3.15226
   D15       -0.33301  -0.00019  -0.00027  -0.00276  -0.00303  -0.33604
   D16       -3.01922  -0.00008   0.00009   0.00075   0.00083  -3.01839
   D17        3.09497   0.00000   0.00006   0.00045   0.00050   3.09547
         Item               Value     Threshold  Converged?
 Maximum Force            0.000278     0.000450     YES
 RMS     Force            0.000086     0.000300     YES
 Maximum Displacement     0.003031     0.001800     NO 
 RMS     Displacement     0.000731     0.001200     YES
 Predicted change in Energy=-5.202006D-07
 GradGradGradGradGradGradGradGradGradGradGradGradGradGradGradGradGradGrad

 ---------------------------------------------------------------------------------------------------
                            Z-MATRIX (ANGSTROMS AND DEGREES)
   CD    Cent   Atom    N1       Length/X        N2       Alpha/Y        N3        Beta/Z          J
 ---------------------------------------------------------------------------------------------------
      1      1  C 
      2      2  C        1   1.388151(     1)
      3      3  C        1   1.449212(     2)      2  133.648(    17)
      4      4  N        1   1.378328(     3)      2  106.369(    18)      3  174.720(    32)      0
      5      5  C        3   1.346935(     4)      1  129.850(    19)      2  -26.491(    33)      0
      6      6  H        2   1.075398(     5)      1  125.764(    20)      3    1.848(    34)      0
      7      7  H        3   1.085509(     6)      1  114.691(    21)      5  177.793(    35)      0
      8      8  C        2   1.418087(     7)      1  107.862(    22)      6 -176.909(    36)      0
      9      9  C        4   1.369555(     8)      1  110.801(    23)      2    0.373(    37)      0
     10     10  H        4   1.005087(     9)      1  123.347(    24)      9  180.156(    38)      0
     11     11  C        5   1.452610(    10)      3  131.375(    25)      1   -6.035(    39)      0
     12     12  H        5   1.083045(    11)      3  116.194(    26)     11 -179.559(    40)      0
     13     13  H        8   1.078835(    12)      2  126.408(    27)      1  179.002(    41)      0
     14     14  H        9   1.077184(    13)      4  121.287(    28)      1  180.611(    42)      0
     15     15  C       11   1.316593(    14)      5  128.271(    29)      3  -19.254(    43)      0
     16     16  H       11   1.086278(    15)      5  118.178(    30)     15 -172.941(    44)      0
     17     17  O       15   1.161383(    16)     11  178.071(    31)      5  177.357(    45)      0
 ---------------------------------------------------------------------------------------------------
                         Z-Matrix orientation:                         
 ---------------------------------------------------------------------
 Center     Atomic      Atomic             Coordinates (Angstroms)
 Number     Number       Type             X           Y           Z
 ---------------------------------------------------------------------
      1          6           0        0.000000    0.000000    0.000000
      2          6           0        0.000000    0.000000    1.388151
      3          6           0        1.048648    0.000000   -1.000277
      4          7           0       -1.316846   -0.121699   -0.388451
      5          6           0        2.311980    0.461252   -0.926303
      6          1           0        0.872154    0.028140    2.016670
      7          1           0        0.779643   -0.473597   -1.939251
      8          6           0       -1.344723   -0.116216    1.823104
      9          6           0       -2.141555   -0.189541    0.702848
     10          1           0       -1.608379   -0.156425   -1.349702
     11          6           0        3.004163    1.202446    0.113692
     12          1           0        2.943988    0.263737   -1.783357
     13          1           0       -1.685329   -0.160836    2.845788
     14          1           0       -3.207707   -0.296652    0.592522
     15          6           0        2.483996    1.904932    1.098251
     16          1           0        4.084112    1.296693    0.044216
     17          8           0        2.061293    2.531729    1.979873
 ---------------------------------------------------------------------
                    Distance matrix (angstroms):
                    1          2          3          4          5
     1  C    0.000000
     2  C    1.388151   0.000000
     3  C    1.449212   2.608496   0.000000
     4  N    1.378328   2.214770   2.446365   0.000000
[...]
   zz         0.126286D+03      0.187137D+02      0.208218D+02

 ----------------------------------------------------------------------
 1\1\GINC-BHC0069\Freq\RB3LYP\def2TZVP\C8H7N1O1\DHANAWAY\10-Jun-2022\1\
 \#N Geom=AllCheck Guess=TCheck SCRF=Check GenChk RB3LYP/def2TZVP Freq\
 \int_zmat_initalOpt\\0,1\C\C,1,R2\C,1,R3,2,A3\N,1,R4,2,A4,3,D4,0\C,3,R
 5,1,A5,2,D5,0\H,2,R6,1,A6,3,D6,0\H,3,R7,1,A7,5,D7,0\C,2,R8,1,A8,6,D8,0
 \C,4,R9,1,A9,2,D9,0\H,4,R10,1,A10,9,D10,0\C,5,R11,3,A11,1,D11,0\H,5,R1
 2,3,A12,11,D12,0\H,8,R13,2,A13,1,D13,0\H,9,R14,4,A14,1,D14,0\C,11,R15,
 5,A15,3,D15,0\H,11,R16,5,A16,15,D16,0\O,15,R17,11,A17,5,D17,0\\R2=1.38
 8137\R3=1.44918049\R4=1.37840159\R5=1.34686957\R6=1.07540202\R7=1.0855
 1737\R8=1.41809078\R9=1.36949845\R10=1.00507505\R11=1.45273259\R12=1.0
 8305926\R13=1.07881619\R14=1.07719601\R15=1.31656996\R16=1.0862571\R17
 =1.1613595\A3=133.66871416\A4=106.36143353\A5=129.85796371\A6=125.7650
 3238\A7=114.68675469\A8=107.86508069\A9=110.80720661\A10=123.35851312\
 A11=131.32282525\A12=116.21912971\A13=126.41158074\A14=121.29311695\A1
 5=128.18310645\A16=118.21183031\A17=178.09088718\D4=174.70039181\D5=-2
 6.26917171\D6=1.94925741\D7=177.89098792\D8=-176.96556135\D9=0.3295918
 2\D10=180.3955952\D11=-5.93061876\D12=-179.63559742\D13=179.08111088\D
 14=180.52941684\D15=-19.84069249\D16=-172.77001424\D17=177.49227172\\V
 ersion=ES64L-G16RevA.03\HF=-439.1648917\RMSD=3.873e-09\RMSF=5.710e-04\
 ZeroPoint=0.1298051\Thermal=0.1387553\Dipole=1.1569894,-0.2887068,-1.5
 419156\DipoleDeriv=0.2738482,0.0435419,0.1478121,-0.0460201,-0.001917,
 0.0076799,-0.0732684,-0.085293,0.1806325,-0.0445847,0.0080357,-0.06778
 21,0.0018262,-0.1805808,-0.0197288,0.1264713,0.0172589,-0.1887395,-0.2
 915624,-0.1192345,-0.1989265,-0.023903,-0.1809114,0.0386403,-0.175434,
 -0.0162263,0.0250675,0.0492556,0.0762017,-0.0997455,0.075088,-0.184936
 1,-0.0209347,-0.2998557,-0.0316236,-0.5359262,0.358078,0.2954829,0.209
 8988,0.4226056,0.254779,0.2728876,0.4953204,0.4330041,0.266541,-0.0014
 953,-0.0068401,-0.0502991,-0.0054233,0.1523957,-0.0178671,-0.0360331,-
 0.0081469,0.0636508,-0.0078049,-0.0676299,-0.0362932,-0.0489286,0.0943
 025,-0.080315,0.0141382,-0.0542623,-0.0291667,-0.0224627,-0.025267,-0.
 0386018,0.0408072,-0.2518601,0.0009721,-0.0511873,-0.0216108,-0.007244
 1,-0.4335069,-0.087129,0.019465,-0.013236,-0.2190843,0.0079722,0.29160
 77,0.1089779,0.2789597,0.2097257,0.0095213,0.0430356,-0.0051638,0.2852
 133,0.0062281,0.032219,0.0058304,0.1922284,-0.1980774,0.1644447,0.2146
 262,-0.2089876,-0.5608749,-0.2589052,-0.3572832,-0.4934602,-0.6529217,
 0.0577019,-0.0115206,0.0279245,-0.0439036,0.0859642,-0.0586303,0.02217
 12,-0.0363669,0.045383,0.0230504,-0.0210534,0.08853,-0.0091874,0.15908
 59,0.0056222,0.1041426,0.0194482,-0.1160053,-0.1317521,-0.034143,-0.01
 32627,-0.0521562,0.1749469,-0.0033949,-0.0191811,0.0008991,0.0578414,0
 .1263508,-0.5894159,-0.5929992,0.0611235,1.0179079,0.7955236,0.2112748
 ,1.1700607,1.3397064,0.1636478,-0.0342908,-0.0442809,0.000426,0.169191
 8,-0.0479751,-0.018062,-0.0763882,0.106032,-0.1304122,0.3992961,0.3908
 987,-0.144967,-0.8136225,-0.627775,-0.2670405,-0.9321012,-1.0260394\Po
 lar=140.0241733,21.4885594,76.2656821,-10.9023031,12.7351293,105.21271
 51\PG=C01 [X(C8H7N1O1)]\NImag=0\\0.63495677,0.03996904,0.15646968,-0.0
 8974916,0.01489349,0.70369550,-0.10658354,-0.00184177,-0.01488764,0.71
 364893,-0.00374905,-0.06844812,0.00476126,0.03977521,0.11729981,-0.003
 29480,-0.00222156,-0.32444085,0.14283583,0.00269342,0.67386557,-0.1651
 6530,-0.01249928,0.05444538,0.00572806,0.00545765,0.01701230,0.7226141
 3,-0.00277676,-0.05811225,-0.01760848,0.00081518,0.00509247,0.00184076
 ,0.19217865,0.24030560,0.08734295,-0.00705757,-0.18084497,0.02573653,-
 0.00203022,-0.02116747,-0.02159068,0.15332328,0.54724665,-0.25802139,-
 0.01656242,-0.04124625,-0.02304881,-0.00427954,-0.06396868,-0.04348002
 ,-0.00405413,-0.00270179,0.63217358,-0.01799499,-0.06186803,-0.0098333
 4,-0.00421847,0.01195877,-0.00395044,-0.00400285,-0.00017819,0.0019101
 6,0.05071492,0.07938319,-0.04326827,-0.00790568,-0.12996520,-0.0206001
 9,-0.00078855,-0.05729098,0.02721101,0.00290940,0.01400372,0.07117471,
 0.01533477,0.92818625,-0.03845832,-0.00575752,0.02107025,0.00351792,-0
 .00318517,-0.00952038,-0.41760367,-0.13190083,-0.02278843,0.00383862,0
 .00066342,0.00316170,0.73156502,-0.00436603,0.00493042,0.00798511,0.00
 065171,-0.00124176,-0.00252532,-0.12196312,-0.10693952,-0.02664132,0.0
 0179664,0.00200718,-0.00106481,0.16505603,0.25912041,0.02048032,0.0088
 5480,0.01273349,0.00014261,-0.00134174,-0.00047068,0.00282948,-0.02049
 632,-0.10252870,0.00013298,-0.00067061,-0.00283385,-0.06988481,0.16473
 900,0.51066944,0.00617950,0.00049227,0.00276640,-0.25414239,-0.0094235
 4,-0.14391582,-0.00047815,0.00005252,-0.00041869,0.00108241,-0.0001309
 0,0.00207859,0.00030168,0.00009534,0.00016076,0.26398731,0.00065836,-0
 .00080620,-0.00032228,-0.00824380,-0.02495774,-0.00404367,-0.00078084,
 -0.00331228,0.00002944,0.00005425,0.00419775,-0.00030597,0.00028071,0.
 00022932,0.00122650,0.01194073,0.02219106,-0.02446862,-0.00111331,-0.0
 0582264,-0.14136936,-0.00374422,-0.16154243,0.00033762,0.00001365,0.00
 096717,-0.00045719,-0.00010099,-0.00616260,-0.00016628,-0.00022239,-0.
 00093375,0.15418045,0.00415057,0.16169293,0.00652471,0.00889586,0.0209
 4761,-0.00319488,-0.00013192,0.00107637,-0.06970344,-0.03291342,-0.052
 06855,0.00195600,-0.00003147,-0.00001141,-0.00812385,-0.01546352,-0.02
 661242,0.00002552,0.00010854,0.00004581,0.07785431,-0.00345101,0.00180
 612,0.00285047,0.00016627,0.00117781,-0.00084455,-0.03092988,-0.085480
 87,-0.11266973,-0.00004849,-0.00036307,0.00133418,-0.00753945,-0.00357
 414,-0.01106964,0.00006362,-0.00006915,-0.00005973,0.04233508,0.083957
 10,-0.00456431,-0.00888717,-0.02163639,0.00282283,-0.00109989,0.001186
 76,-0.05713312,-0.11024050,-0.25576489,-0.00205807,0.00105240,0.002144
 32,0.00044965,-0.00165679,-0.00093134,-0.00009525,-0.00004612,0.000043
 75,0.05684743,0.11950168,0.27338695,-0.00080750,-0.00127209,0.07568650
 ,-0.26330102,-0.01613168,0.03187780,0.00360736,0.00010267,-0.00466650,
 -0.00824167,-0.00117238,-0.01974730,-0.00228687,0.00063658,0.00183107,
 -0.01180480,-0.00187130,0.01013665,0.00006254,-0.00063526,0.00018986,0
 .55905086,-0.00211717,0.00864568,0.00547872,-0.01890880,-0.05519227,0.
 00539256,0.00083029,0.00401104,-0.00002273,-0.00114184,0.01433818,-0.0
 0249301,0.00041103,-0.00011477,-0.00055850,0.00014953,-0.00119461,0.00
 031924,-0.00033356,0.00022635,0.00039330,0.04178712,0.10748827,0.01980
 324,0.00129165,-0.03080395,0.06284084,0.00776334,-0.12332674,-0.001732
 37,-0.00071595,-0.00536173,0.01573361,0.00135373,-0.09354407,-0.001240
 51,-0.00054264,0.00017043,-0.01724856,-0.00184206,0.01174227,0.0010507
 8,0.00025915,-0.00049439,-0.04101996,-0.00847365,0.83047430,-0.0783243
 4,-0.00895117,0.00242561,-0.06461366,-0.00624755,0.00502387,-0.0048714
 5,-0.00257951,-0.00364459,-0.18220057,-0.01128737,0.09520981,0.0008709
 0,0.00168362,0.00435312,-0.00431372,-0.00072406,0.00356651,-0.00034121
 ,0.00077966,0.00096990,-0.17945501,-0.01189648,-0.13408162,0.82885845,
 -0.00789509,0.01515066,0.00066673,-0.00638271,0.01085196,-0.00045759,-
 0.00113937,0.00102490,-0.00113583,-0.01290410,-0.04777489,0.00747363,0
 .00064190,0.00075663,0.00066801,-0.00049884,0.00314206,0.00045081,0.00
 029779,-0.00007007,0.00032511,-0.01353558,-0.05428573,-0.01216496,0.07
 050207,0.09874021,0.03347504,0.00438163,-0.01214905,-0.05115604,-0.006
 42052,0.01689349,-0.00459696,0.00060476,-0.00019231,0.10156890,0.00616
 195,-0.23584884,-0.00019793,-0.00128309,-0.00303050,0.00238595,0.00088
 095,-0.00158715,0.00052062,-0.00019022,-0.00102154,-0.12105645,-0.0096
 2395,-0.28093160,0.06590615,0.00843345,0.60493884,0.00268420,0.0005028
 8,-0.03032927,-0.00748645,-0.00075938,-0.00234322,0.00226110,-0.000419
 02,-0.00128039,-0.10588217,-0.01095756,-0.10655351,-0.00051637,-0.0003
 2441,0.00016000,0.00056625,-0.00023704,-0.00140979,-0.00054250,0.00067
 641,0.00130962,-0.00378102,-0.00040395,0.00506179,0.01499080,0.0022587
 1,0.01869422,0.09653494,0.00090253,-0.00551384,-0.00290718,-0.00102340
 ,0.00168517,0.00007653,0.00044891,-0.00190655,0.00106209,-0.01106975,-
 0.00231442,-0.01477946,-0.00033215,-0.00052533,-0.00012017,-0.00001474
 ,0.00221341,-0.00018453,0.00014587,0.00038275,-0.00057686,-0.00014515,
 0.00156079,0.00045970,0.00200372,-0.00763344,0.00164888,0.00917320,0.0
 1074620,-0.00007306,-0.00013578,-0.00327563,-0.00127568,-0.00014262,0.
 00141030,0.00090879,0.00086036,0.00149970,-0.10747620,-0.01449452,-0.4
 2244756,-0.00019802,-0.00013143,-0.00047128,0.00020457,-0.00010391,0.0
 0002035,-0.00013607,-0.00047000,-0.00006152,0.00411596,0.00039182,-0.0
 0158440,-0.01191539,-0.00100094,-0.01295155,0.11613549,0.01526398,0.43
 726868,0.00324022,0.00169505,-0.00238580,-0.00052774,-0.00003791,0.001
 39425,-0.01407235,-0.01736847,-0.02265375,-0.00111692,-0.00034447,-0.0
 0027133,-0.12102401,-0.05240165,-0.06786665,-0.00048085,0.00093206,-0.
 00001109,-0.00277527,-0.00311188,0.00082665,0.00077790,-0.00066026,-0.
 00007545,0.00021715,0.00006387,-0.00063578,0.00004664,-0.00004936,0.00
 007265,0.58879238,0.00735541,-0.00344712,-0.00405556,-0.00061848,0.002
 17154,0.00297189,-0.02156842,-0.00496137,-0.01332044,0.00002314,0.0001
 1505,-0.00033065,-0.03446146,-0.09269529,-0.07325147,0.00003493,-0.000
 45294,-0.00010758,-0.00395082,0.00735903,-0.00140399,-0.00099876,-0.00
 044223,0.00022269,-0.00087012,-0.00057281,0.00138846,0.00055527,0.0000
 8159,-0.00003035,-0.00980450,0.30150823,0.00622432,0.00231481,-0.00816
 695,-0.00080202,0.00196328,0.00236133,-0.02625115,-0.01126819,-0.00339
 524,0.00100069,0.00057048,-0.00013801,-0.03269394,-0.06562887,-0.15034
 648,-0.00006579,-0.00046546,0.00037382,-0.00001257,-0.00134713,0.00301
 574,-0.00157436,-0.00056948,0.00044367,-0.00216744,-0.00068601,0.00281
 051,0.00064180,0.00007385,0.00010040,-0.08405381,0.31057620,0.51824357
 ,-0.00256500,-0.00342992,-0.00069056,-0.00019248,0.00015040,-0.0001995
 9,-0.01642562,0.00333731,0.02453183,-0.00035243,-0.00037235,0.00095346
 ,-0.14981652,0.02591298,0.13121095,0.00000094,-0.00008366,0.00005716,-
 0.00025335,0.00182721,-0.00029908,0.00000602,-0.00002544,0.00016609,-0
 .00023061,0.00007932,-0.00026630,-0.00004091,-0.00005220,0.00002526,0.
 00721806,-0.00498313,-0.01257647,0.16117722,-0.00356219,0.00725312,-0.
 00450493,0.00042720,-0.00031937,-0.00006208,-0.01077719,0.00459085,0.0
 0812031,-0.00129145,0.00040249,0.00111566,0.02990655,-0.04910024,-0.04
 540102,0.00000258,0.00008494,0.00004242,0.00152746,-0.00531757,0.00278
 947,0.00000780,0.00000316,0.00009385,-0.00018239,-0.00015768,-0.000338
 33,-0.00000422,0.00013743,0.00008206,0.00498096,-0.00355253,-0.0175783
 0,-0.02019508,0.04581512,-0.00052036,-0.00395348,0.00360336,-0.0003434
 9,0.00012345,-0.00016473,-0.00018611,-0.00073569,0.00404727,0.00072245
 ,-0.00007592,-0.00032777,0.13193785,-0.04647375,-0.23125957,-0.0000077
 3,-0.00012877,0.00003564,-0.00183088,0.00303980,0.00030666,-0.00018007
 ,0.00004538,0.00001200,-0.00009621,0.00007188,0.00033452,0.00001818,-0
 .00006183,-0.00004442,0.01023689,-0.00722642,-0.01627051,-0.13894215,0
 .05665929,0.24151132,-0.00637281,-0.00088329,0.00170561,0.00182389,-0.
 00019543,0.02571402,0.00099120,0.00003678,0.00096272,-0.00275877,-0.00
 073009,-0.00430253,0.00014671,0.00021745,0.00030149,0.00073760,0.00023
 035,-0.00106018,-0.00033911,-0.00000234,0.00033675,-0.08587399,-0.0070
 1156,0.08633360,0.01161842,0.00160897,-0.01611461,0.00094087,-0.000177
 44,-0.00063228,0.00005630,-0.00021400,-0.00030499,-0.00004398,0.000012
 83,-0.00004210,0.07904314,-0.00093879,0.00390158,-0.00015346,0.0002035
 5,-0.00177090,0.00242625,0.00009821,0.00109803,0.00043087,-0.00061880,
 0.00449559,-0.00038444,0.00011227,-0.00001935,-0.00009853,0.00012577,-
 0.00210778,-0.00015435,-0.00023433,-0.00011453,0.00014081,-0.00678428,
 -0.02222471,0.01203470,0.00111209,-0.00333946,-0.00181386,-0.00015273,
 0.00252566,-0.00014489,-0.00000298,-0.00000080,-0.00007465,0.00001803,
 -0.00008231,0.00003467,0.00675666,0.02013186,0.00059358,0.00002727,0.0
 0021944,-0.00154767,-0.00015189,-0.00188261,-0.00009350,-0.00000470,-0
 .00007033,-0.00303485,-0.00021712,-0.00329955,-0.00011530,-0.00017323,
 -0.00022971,0.00046869,0.00002977,0.00008468,0.00011623,0.00007150,-0.
 00002991,0.08442284,0.01131418,-0.31629148,0.01296081,0.00134565,-0.01
 249669,0.00084040,0.00011610,-0.00025367,-0.00000404,0.00017885,0.0002
 2886,0.00002606,0.00000902,0.00001801,-0.09404891,-0.01236734,0.333905
 41,0.00096959,0.00003155,0.00331047,-0.00048252,-0.00049432,-0.0028270
 1,-0.00056871,-0.00042901,-0.00071499,-0.01418150,-0.00091296,-0.00518
 451,-0.00003547,0.00019375,0.00033204,-0.00031731,-0.00021245,0.000337
 75,0.00001794,-0.00001475,0.00002559,-0.00682878,-0.00036824,0.0042620
 3,-0.34203705,-0.03284760,-0.02965229,-0.00008835,0.00018343,0.0002950
 3,-0.00002313,-0.00008503,-0.00006632,-0.00007780,-0.00005066,-0.00001
 188,0.00006591,0.00027415,-0.00059782,0.36356203,0.00021042,0.00116620
 ,0.00048641,-0.00029844,0.00477276,-0.00049582,-0.00036299,0.00221338,
 -0.00029690,-0.00057836,-0.00444916,-0.00011453,0.00002947,0.00012066,
 0.00017095,-0.00025786,0.00144951,0.00013976,-0.00005919,-0.00004559,-
 0.00001806,-0.00027290,-0.00251602,0.00030699,-0.03375555,-0.01605711,
 -0.00343926,0.00015980,-0.00152688,0.00005200,0.00014515,0.00006326,-0
 .00016456,0.00016332,-0.00036512,0.00015317,0.00024524,-0.00256694,-0.
 00011600,0.03470893,0.01764557,0.00039215,-0.00005288,-0.00598700,-0.0
 0311669,-0.00016803,-0.00456888,0.00146541,0.00027289,0.00090312,0.031
 23623,0.00311759,0.00762362,-0.00004613,-0.00027806,-0.00054327,-0.001
 08557,-0.00012430,0.00087678,-0.00004615,0.00001241,0.00003649,-0.0205
 5835,-0.00205584,0.00961401,-0.03913585,-0.00433598,-0.06396097,-0.000
 76556,-0.00006747,0.00073688,-0.00005542,0.00008224,0.00022907,0.00006
 828,0.00011656,-0.00002379,0.00105358,0.00010495,0.00016153,0.03049639
 ,0.00340372,0.05496122,0.00308458,-0.00013869,-0.00567542,-0.00068256,
 0.00217480,0.00124286,-0.00570922,-0.00606669,-0.00828824,0.00240628,0
 .00167388,0.00058303,0.01662220,0.00485613,0.00750756,-0.00022414,-0.0
 0308827,0.00061864,-0.00147137,0.00015555,0.00064883,-0.00335869,0.000
 16764,0.00036836,-0.00156366,-0.00068277,0.00366515,0.00077280,-0.0000
 4050,-0.00011668,-0.15794269,0.06839724,0.10185824,-0.00066735,-0.0023
 4835,-0.00199684,-0.00026846,-0.00005382,0.00016039,0.00001321,-0.0003
 2188,0.00026125,0.34464690,-0.00406567,-0.00224829,0.00521699,-0.00101
 938,-0.00317991,-0.00224988,0.00863844,0.00391431,0.00283639,-0.000886
 45,-0.00030707,-0.00021392,0.00001054,-0.02458202,-0.02579651,-0.00196
 147,0.00063324,0.00108937,0.00075770,0.00115833,-0.00049840,0.00196185
 ,-0.00040970,0.00013769,0.00222572,0.00039872,-0.00236088,-0.00050572,
 0.00003649,-0.00011304,0.07490212,-0.16958336,-0.18294547,-0.00226624,
 0.00202341,-0.00158374,0.00037089,0.00023191,-0.00029317,0.00015324,0.
 00034575,-0.00013729,-0.26175013,0.51489019,-0.00543201,0.00074174,0.0
 0689504,0.00084757,-0.00403568,-0.00063709,0.01338950,0.00598904,0.009
 08377,-0.00363442,-0.00129488,-0.00081284,0.00016003,-0.02922629,-0.05
 080555,-0.00009604,0.00313960,0.00001510,0.00154804,0.00003687,-0.0004
 6222,0.00365462,0.00024651,-0.00036175,0.00359247,0.00091784,-0.004830
 46,-0.00102957,0.00008951,-0.00000196,0.10782424,-0.17793714,-0.280858
 73,-0.00404969,-0.00203678,-0.00315143,0.00060782,0.00014729,-0.000423
 82,0.00010866,0.00020052,-0.00034033,-0.37306393,0.58654003,0.90615481
 ,0.00009251,0.00006520,-0.00023464,0.00005271,0.00006344,-0.00006215,0
 .00108220,-0.00015373,-0.00154366,-0.00005605,0.00001565,0.00013309,-0
 .01162944,-0.00231933,0.00063324,-0.00001883,-0.00015555,0.00005466,-0
 .00032590,-0.00032869,0.00006761,-0.00004769,0.00007186,0.00008321,0.0
 0013118,0.00003509,-0.00005796,0.00001607,-0.00002680,-0.00002164,-0.3
 2364847,-0.02275441,0.01976430,0.00132867,0.00037093,0.00060690,0.0000
 0162,-0.00000831,-0.00001078,0.00001206,-0.00001232,0.00001169,-0.0169
 7492,0.00515399,0.00945025,0.34775965,-0.00053471,0.00043790,0.0004599
 4,-0.00017172,-0.00007957,0.00033433,0.00070553,0.00084779,-0.00234656
 ,0.00014251,-0.00003924,0.00002565,-0.01804601,0.00141288,-0.00234896,
 -0.00007847,0.00031359,-0.00011416,-0.00050835,-0.00043236,-0.00016195
 ,0.00008220,-0.00024284,-0.00016624,-0.00016060,0.00000986,0.00000731,
 -0.00000321,0.00001143,-0.00000534,-0.02134919,-0.02766974,-0.00768639
 ,0.00039633,-0.00060533,0.00036156,0.00001277,-0.00001535,0.00000430,-
 0.00000062,0.00003596,-0.00001908,0.02045596,-0.00180314,-0.00398133,0
 .02306882,0.02634157,0.00080979,-0.00023866,-0.00109713,0.00022664,0.0
 0023556,-0.00019098,-0.00141625,-0.00261914,-0.00261342,-0.00008720,0.
 00009511,0.00010036,-0.02316575,-0.00374798,0.00497494,0.00007569,-0.0
 0038496,0.00016163,-0.00050727,-0.00064350,0.00002754,-0.00023481,0.00
 020343,0.00017516,0.00002913,0.00000593,0.00017479,0.00008865,-0.00003
 520,0.00000689,0.02660814,-0.01008575,-0.04059399,-0.00037526,0.001019
 44,0.00103330,-0.00001938,0.00000128,0.00000903,-0.00000785,-0.0000412
 7,0.00003656,0.02591828,0.00153754,-0.00353920,-0.02508713,0.01803064,
 0.04149366,-0.00143386,-0.00031571,0.00284090,-0.00051544,-0.00298601,
 -0.00004567,0.00179391,0.00213846,0.00378623,-0.00211660,-0.00091202,-
 0.00056634,-0.00736852,-0.00426220,-0.00571173,-0.00110103,0.00119197,
 -0.00039275,0.00062986,0.00005795,-0.00034489,0.00228235,-0.00055018,-
 0.00030507,0.00126438,0.00039835,-0.00248172,-0.00047589,0.00007381,0.
 00008726,0.02126279,0.02394312,0.03107951,0.00093513,0.00117523,0.0006
 3554,0.00023147,0.00009332,-0.00013615,-0.00000013,0.00025715,-0.00017
 524,-0.17868293,0.17828057,0.24612246,0.00222463,-0.00401125,-0.002855
 41,0.16106991,0.00235569,0.00068249,-0.00341389,0.00068782,0.00017935,
 0.00111517,-0.00433373,-0.00220736,-0.00219126,0.00070387,0.00039588,0
 .00018772,0.00411066,0.01021492,0.00549424,-0.00059148,-0.00155418,-0.
 00040457,-0.00044173,-0.00060014,0.00038696,-0.00175882,0.00034940,-0.
 00001799,-0.00165209,-0.00018381,0.00196270,0.00044096,0.00003954,0.00
 012260,0.02241144,-0.00792052,-0.02708411,-0.00047687,-0.00081039,-0.0
 0024959,-0.00027780,-0.00014251,0.00022679,-0.00012941,-0.00028621,0.0
 0012857,0.17660989,-0.32151884,-0.37953686,-0.00308585,0.00147660,-0.0
 0333246,-0.19457257,0.32188578,0.00224923,-0.00093931,-0.00295707,-0.0
 0035407,0.00238305,-0.00003402,-0.00459935,-0.00212517,-0.00581235,0.0
 0309508,0.00104163,0.00061301,0.00323799,0.00687186,0.01583640,0.00061
 234,-0.00168935,0.00003444,-0.00092755,0.00018842,0.00025401,-0.002877
 51,0.00001202,0.00006826,-0.00299629,-0.00057772,0.00384850,0.00076113
 ,-0.00005793,0.00004879,0.03105030,-0.02767098,-0.02803707,0.00036001,
 -0.00012665,0.00034015,-0.00049061,-0.00012931,0.00035081,-0.00010531,
 -0.00022711,0.00024495,0.24630853,-0.38116569,-0.57592333,-0.00378700,
 -0.00239375,-0.00015915,-0.27153693,0.40660598,0.59128367\\-0.00276777
 ,0.00085024,0.00000578,0.00277667,-0.00067889,-0.00000861,0.00001306,-
 0.00022739,0.00000616,-0.00000845,0.00006472,0.00000444,-0.00001375,0.
 00006081,-0.00003731,0.00000208,-0.00000053,0.00000029,0.00000259,-0.0
 0000554,0.00000285,-0.00000725,0.00003151,0.00000286,0.00000692,-0.000
 04465,-0.00000411,-0.00000056,-0.00001564,0.00000185,-0.00000014,-0.00
 006692,0.00003036,0.00000551,-0.00000423,0.00000544,-0.00000186,0.0000
 1420,-0.00000090,-0.00000152,-0.00000877,0.00000162,-0.00001641,-0.000
 00885,0.00000692,-0.00000010,0.00002343,-0.00000532,0.00001099,0.00001
 652,-0.00001233\\\@


 EDUCATION WITHOUT COMMON SENSE IS A LOAD OF BOOKS ON THE BACK OF AN ASS.
 Job cpu time:       0 days  2 hours  2 minutes 31.9 seconds.
 Elapsed time:       0 days  0 hours 11 minutes  0.5 seconds.
 File lengths (MBytes):  RWF=    182 Int=      0 D2E=      0 Chk=     32 Scr=      1
 Normal termination of Gaussian 16 at Fri Jun 10 13:21:29 2022.
