 Entering Gaussian System, Link 0=g16
 Input=ts_zmat_field_N75.gjf
 Output=ts_zmat_field_N75.out
 Initial command:
 /software/gaussian/g16-a03/l1.exe "/local_scratch/11172258/Gau-9873.inp" -scrdir="/local_scratch/11172258/"
 Entering Link 1 = /software/gaussian/g16-a03/l1.exe PID=      9874.
  
 Copyright (c) 1988,1990,1992,1993,1995,1998,2003,2009,2016,
            Gaussian, Inc.  All Rights Reserved.
  
 This is part of the Gaussian(R) 16 program.  It is based on
 the Gaussian(R) 09 system (copyright 2009, Gaussian, Inc.),
 the Gaussian(R) 03 system (copyright 2003, Gaussian, Inc.),
 the Gaussian(R) 98 system (copyright 1998, Gaussian, Inc.),
 the Gaussian(R) 94 system (copyright 1995, Gaussian, Inc.),
 the Gaussian 92(TM) system (copyright 1992, Gaussian, Inc.),
 the Gaussian 90(TM) system (copyright 1990, Gaussian, Inc.),
 the Gaussian 88(TM) system (copyright 1988, Gaussian, Inc.),
 the Gaussian 86(TM) system (copyright 1986, Carnegie Mellon
 University), and the Gaussian 82(TM) system (copyright 1983,
 Carnegie Mellon University). Gaussian is a federally registered
 trademark of Gaussian, Inc.
  
 This software contains proprietary and confidential information,
 including trade secrets, belonging to Gaussian, Inc.
  
 This software is provided under written license and may be
 used, copied, transmitted, or stored only in accord with that
 written license.
  
 The following legend is applicable only to US Government
 contracts under FAR:
  
                    RESTRICTED RIGHTS LEGEND
  
 Use, reproduction and disclosure by the US Government is
 subject to restrictions as set forth in subparagraphs (a)
 and (c) of the Commercial Computer Software - Restricted
 Rights clause in FAR 52.227-19.
  
 Gaussian, Inc.
 340 Quinnipiac St., Bldg. 40, Wallingford CT 06492
  
  
 ---------------------------------------------------------------
 Warning -- This program may not be used in any manner that
 competes with the business of Gaussian, Inc. or will provide
 assistance to any competitor of Gaussian, Inc.  The licensee
 of this program is prohibited from giving any competitor of
 Gaussian, Inc. access to this program.  By using this program,
 the user acknowledges that Gaussian, Inc. is engaged in the
 business of creating and licensing software in the field of
 computational chemistry and represents and warrants to the
 licensee that it is not a competitor of Gaussian, Inc. and that
 it will not use this program in any manner prohibited above.
 ---------------------------------------------------------------
  

 Cite this work as:
 Gaussian 16, Revision A.03,
 M. J. Frisch, G. W. Trucks, H. B. Schlegel, G. E. Scuseria, 
 M. A. Robb, J. R. Cheeseman, G. Scalmani, V. Barone, 
 G. A. Petersson, H. Nakatsuji, X. Li, M. Caricato, A. V. Marenich, 
 J. Bloino, B. G. Janesko, R. Gomperts, B. Mennucci, H. P. Hratchian, 
 J. V. Ortiz, A. F. Izmaylov, J. L. Sonnenberg, D. Williams-Young, 
 F. Ding, F. Lipparini, F. Egidi, J. Goings, B. Peng, A. Petrone, 
 T. Henderson, D. Ranasinghe, V. G. Zakrzewski, J. Gao, N. Rega, 
 G. Zheng, W. Liang, M. Hada, M. Ehara, K. Toyota, R. Fukuda, 
 J. Hasegawa, M. Ishida, T. Nakajima, Y. Honda, O. Kitao, H. Nakai, 
 T. Vreven, K. Throssell, J. A. Montgomery, Jr., J. E. Peralta, 
 F. Ogliaro, M. J. Bearpark, J. J. Heyd, E. N. Brothers, K. N. Kudin, 
 V. N. Staroverov, T. A. Keith, R. Kobayashi, J. Normand, 
 K. Raghavachari, A. P. Rendell, J. C. Burant, S. S. Iyengar, 
 J. Tomasi, M. Cossi, J. M. Millam, M. Klene, C. Adamo, R. Cammi, 
 J. W. Ochterski, R. L. Martin, K. Morokuma, O. Farkas, 
 J. B. Foresman, and D. J. Fox, Gaussian, Inc., Wallingford CT, 2016.
 
 ******************************************
 Gaussian 16:  ES64L-G16RevA.03 25-Dec-2016
                10-Jun-2022 
 ******************************************
 %nprocshared=12
 Will use up to   12 processors via shared memory.
 %chk=checkpoint.chk
 %mem=12GB
 ----------------------------------------------------------------------
 # Opt=(TS, CalcFC, noeigentest, Z-matrix, MaxStep=10) geom=allcheckpoi
 nt guess=read Field=read NoSymm B3LYP/Def2TZVP freq=noraman pop=none
 ----------------------------------------------------------------------
 1/5=1,8=10,10=4,11=1,18=40,26=3,29=7,38=1/1,3;
 2/12=2,15=1,29=3,40=1/2;
 3/5=44,7=101,11=2,14=-6,25=1,30=1,71=2,74=-5,116=-2,140=1/1,2,3;
 4/5=1/1;
 5/5=2,38=6/2;
 8/6=4,10=90,11=11/1;
 11/6=1,8=1,9=11,15=111,16=1,31=1/1,2,10;
 10/6=1,13=1,31=1/2;
 7/10=1,18=20,25=1,30=1/1,2,3,16;
 1/5=1,8=10,10=4,11=1,18=40,26=3/3(2);
 2/15=1,29=3/2;
 99//99;
 2/15=1,29=3/2;
 3/5=44,7=101,11=2,14=-2,25=1,30=1,71=1,74=-5/1,2,3;
 4/5=5,16=3,69=1/1;
 5/5=2,38=5/2;
 7/30=1/1,2,3,16;
 1/5=1,8=10,11=1,18=40,26=3/3(-5);
 2/15=1,29=3/2;
 99/9=1/99;
 Structure from the checkpoint file:  "checkpoint.chk"
 -----------------
 ts_zmat_initalOpt
 -----------------
 Charge =  0 Multiplicity = 1
 Z-Matrix found in chk file.
 C
 C,1,R2
 C,1,R3,2,A3
 N,1,R4,2,A4,3,D4,0
 C,3,R5,1,A5,2,D5,0
 H,2,R6,1,A6,3,D6,0
 H,3,R7,1,A7,5,D7,0
 C,2,R8,1,A8,6,D8,0
 C,4,R9,1,A9,2,D9,0
 H,4,R10,1,A10,9,D10,0
 C,5,R11,3,A11,1,D11,0
 H,5,R12,3,A12,11,D12,0
 H,8,R13,2,A13,1,D13,0
 H,9,R14,4,A14,1,D14,0
 C,11,R15,5,A15,3,D15,0
 H,11,R16,5,A16,15,D16,0
 O,15,R17,11,A17,5,D17,0
      Variables:
 R2=1.41380865
 R3=1.41907149
 R4=1.35866729
 R5=1.36412794
 R6=1.08231456
 R7=1.0814237
 R8=1.44262968
 R9=1.38740244
 R10=1.00694909
 R11=1.42354623
 R12=1.0837237
 R13=1.07699187
 R14=1.07684677
 R15=1.36785303
 R16=1.08630301
 R17=1.18433266
 A3=125.28689901
 A4=107.3139784
 A5=118.07539847
 A6=120.47422651
 A7=121.0619063
 A8=106.50772665
 A9=110.18818218
 A10=124.43989844
 A11=127.4234985
 A12=117.32447932
 A13=126.63012076
 A14=120.4555243
 A15=128.38974821
 A16=117.801175
 A17=145.67216161
 D4=-172.2969342
 D5=-27.9223576
 D6=-41.56652426
 D7=-172.02136146
 D8=-146.03860949
 D9=0.32322446
 D10=172.70123746
 D11=-1.16111866
 D12=-174.59682186
 D13=178.1381602
 D14=179.62585864
 D15=2.73093348
 D16=-166.79282932
 D17=177.57670798
 Recover connectivity data from disk.

 GradGradGradGradGradGradGradGradGradGradGradGradGradGradGradGradGradGrad
 Berny optimization.
 Initialization pass.
                       ----------------------------
                       !    Initial Parameters    !
                       ! (Angstroms and Degrees)  !
 ----------------------                            ----------------------
 !      Name          Value   Derivative information (Atomic Units)     !
 ------------------------------------------------------------------------
 !       R2          1.4138   calculate D2E/DX2 analytically            !
 !       R3          1.4191   calculate D2E/DX2 analytically            !
 !       R4          1.3587   calculate D2E/DX2 analytically            !
 !       R5          1.3641   calculate D2E/DX2 analytically            !
 !       R6          1.0823   calculate D2E/DX2 analytically            !
 !       R7          1.0814   calculate D2E/DX2 analytically            !
 !       R8          1.4426   calculate D2E/DX2 analytically            !
 !       R9          1.3874   calculate D2E/DX2 analytically            !
 !       R10         1.0069   calculate D2E/DX2 analytically            !
 !       R11         1.4235   calculate D2E/DX2 analytically            !
 !       R12         1.0837   calculate D2E/DX2 analytically            !
 !       R13         1.077    calculate D2E/DX2 analytically            !
 !       R14         1.0768   calculate D2E/DX2 analytically            !
 !       R15         1.3679   calculate D2E/DX2 analytically            !
 !       R16         1.0863   calculate D2E/DX2 analytically            !
 !       R17         1.1843   calculate D2E/DX2 analytically            !
 !       A3        125.2869   calculate D2E/DX2 analytically            !
 !       A4        107.314    calculate D2E/DX2 analytically            !
 !       A5        118.0754   calculate D2E/DX2 analytically            !
 !       A6        120.4742   calculate D2E/DX2 analytically            !
 !       A7        121.0619   calculate D2E/DX2 analytically            !
 !       A8        106.5077   calculate D2E/DX2 analytically            !
 !       A9        110.1882   calculate D2E/DX2 analytically            !
 !       A10       124.4399   calculate D2E/DX2 analytically            !
 !       A11       127.4235   calculate D2E/DX2 analytically            !
 !       A12       117.3245   calculate D2E/DX2 analytically            !
 !       A13       126.6301   calculate D2E/DX2 analytically            !
 !       A14       120.4555   calculate D2E/DX2 analytically            !
 !       A15       128.3897   calculate D2E/DX2 analytically            !
 !       A16       117.8012   calculate D2E/DX2 analytically            !
 !       A17       145.6722   calculate D2E/DX2 analytically            !
 !       D4       -172.2969   calculate D2E/DX2 analytically            !
 !       D5        -27.9224   calculate D2E/DX2 analytically            !
 !       D6        -41.5665   calculate D2E/DX2 analytically            !
 !       D7       -172.0214   calculate D2E/DX2 analytically            !
 !       D8       -146.0386   calculate D2E/DX2 analytically            !
 !       D9          0.3232   calculate D2E/DX2 analytically            !
 !       D10       172.7012   calculate D2E/DX2 analytically            !
 !       D11        -1.1611   calculate D2E/DX2 analytically            !
 !       D12      -174.5968   calculate D2E/DX2 analytically            !
 !       D13       178.1382   calculate D2E/DX2 analytically            !
 !       D14       179.6259   calculate D2E/DX2 analytically            !
 !       D15         2.7309   calculate D2E/DX2 analytically            !
 !       D16      -166.7928   calculate D2E/DX2 analytically            !
 !       D17       177.5767   calculate D2E/DX2 analytically            !
 ------------------------------------------------------------------------
 Trust Radius=1.00D-01 FncErr=1.00D-07 GrdErr=1.00D-06 EigMax=2.50D+02 EigMin=1.00D-04
 Number of steps in this run=     55 maximum allowed number of steps=    100.
 Search for a saddle point of order  1.
 GradGradGradGradGradGradGradGradGradGradGradGradGradGradGradGradGradGrad

 ---------------------------------------------------------------------------------------------------
                            Z-MATRIX (ANGSTROMS AND DEGREES)
   CD    Cent   Atom    N1       Length/X        N2       Alpha/Y        N3        Beta/Z          J
 ---------------------------------------------------------------------------------------------------
      1      1  C 
      2      2  C        1   1.413809(     1)
      3      3  C        1   1.419071(     2)      2  125.287(    17)
      4      4  N        1   1.358667(     3)      2  107.314(    18)      3 -172.297(    32)      0
      5      5  C        3   1.364128(     4)      1  118.075(    19)      2  -27.922(    33)      0
      6      6  H        2   1.082315(     5)      1  120.474(    20)      3  -41.567(    34)      0
      7      7  H        3   1.081424(     6)      1  121.062(    21)      5 -172.021(    35)      0
      8      8  C        2   1.442630(     7)      1  106.508(    22)      6 -146.039(    36)      0
      9      9  C        4   1.387402(     8)      1  110.188(    23)      2    0.323(    37)      0
     10     10  H        4   1.006949(     9)      1  124.440(    24)      9  172.701(    38)      0
     11     11  C        5   1.423546(    10)      3  127.423(    25)      1   -1.161(    39)      0
     12     12  H        5   1.083724(    11)      3  117.324(    26)     11 -174.597(    40)      0
     13     13  H        8   1.076992(    12)      2  126.630(    27)      1  178.138(    41)      0
     14     14  H        9   1.076847(    13)      4  120.456(    28)      1  179.626(    42)      0
     15     15  C       11   1.367853(    14)      5  128.390(    29)      3    2.731(    43)      0
     16     16  H       11   1.086303(    15)      5  117.801(    30)     15 -166.793(    44)      0
     17     17  O       15   1.184333(    16)     11  145.672(    31)      5  177.577(    45)      0
 ---------------------------------------------------------------------------------------------------
                         Z-Matrix orientation:                         
 ---------------------------------------------------------------------
 Center     Atomic      Atomic             Coordinates (Angstroms)
 Number     Number       Type             X           Y           Z
 ---------------------------------------------------------------------
      1          6           0        0.000000    0.000000    0.000000
      2          6           0        0.000000    0.000000    1.413809
      3          6           0        1.158345    0.000000   -0.819756
      4          7           0       -1.285399    0.173863   -0.404350
      5          6           0        2.296740    0.563620   -0.322530
      6          1           0        0.697908   -0.618903    1.962705
      7          1           0        1.110766   -0.315978   -1.852893
      8          6           0       -1.371000    0.183055    1.823724
      9          6           0       -2.121424    0.294356    0.696299
     10          1           0       -1.567536    0.313798   -1.360782
     11          6           0        2.469940    1.190395    0.943819
     12          1           0        3.153494    0.620478   -0.983738
     13          1           0       -1.742099    0.204275    2.834539
     14          1           0       -3.179509    0.444682    0.564171
     15          6           0        1.560980    1.323155    1.957322
     16          1           0        3.347691    1.814799    1.084272
     17          8           0        1.374592    1.717059    3.058568
 ---------------------------------------------------------------------
                    Distance matrix (angstroms):
                    1          2          3          4          5
     1  C    0.000000
     2  C    1.413809   0.000000
     3  C    1.419071   2.516064   0.000000
     4  N    1.358667   2.233423   2.484889   0.000000
     5  C    2.386778   2.933863   1.364128   3.604209   0.000000
     6  H    2.173092   1.082315   2.887410   3.188250   3.029343
     7  H    2.183313   3.464821   1.081424   2.842503   2.126556
     8  C    2.288912   1.442630   3.663207   2.229737   4.266562
     9  C    2.252092   2.258740   3.625184   1.387402   4.542102
    10  H    2.099373   3.202186   2.796714   1.006949   4.009116
    11  C    2.899731   2.781822   2.499504   4.117458   1.423546
    12  H    3.361139   4.009707   2.095830   4.498769   1.083724
    13  H    3.333354   2.257236   4.669923   3.271070   5.138914
    14  H    3.259649   3.320980   4.574929   2.144535   5.548846
    15  C    2.831697   2.117263   3.102421   3.873014   2.513157
    16  H    3.959315   3.822188   3.422288   5.135580   2.156163
    17  O    3.767312   2.746458   4.246935   4.631286   3.689526
                    6          7          8          9         10
     6  H    0.000000
     7  H    3.849806   0.000000
     8  C    2.223249   4.463822   0.000000
     9  C    3.222804   4.161483   1.358901   0.000000
    10  H    4.128891   2.795012   3.193243   2.130435   0.000000
    11  C    2.729796   3.455157   4.067159   4.684525   4.730837
    12  H    4.030818   2.409381   5.342680   5.545597   4.745982
    13  H    2.718704   5.511943   1.076992   2.173493   4.200380
    14  H    4.256933   4.982696   2.219376   1.076847   2.514166
    15  C    2.125209   4.172192   3.148679   4.026004   4.670785
    16  H    3.703498   4.262744   5.047318   5.689771   5.691288
    17  O    2.667496   5.322152   3.378799   4.452700   5.491441
                   11         12         13         14         15
    11  C    0.000000
    12  H    2.123094   0.000000
    13  H    4.721073   6.222483   0.000000
    14  H    5.711085   6.521799   2.697872   0.000000
    15  C    1.367853   3.417556   3.596072   5.018448   0.000000
    16  H    1.086303   2.395993   5.618112   6.689699   2.048479
    17  O    2.439124   4.550519   3.471667   5.346102   1.184333
                   16         17
    16  H    0.000000
    17  O    2.792941   0.000000
 Symmetry turned off by external request.
 Stoichiometry    C8H7NO
 Framework group  C1[X(C8H7NO)]
 Deg. of freedom    45
 Full point group                 C1      NOp   1
 Rotational constants (GHZ):           2.1561911           1.3589376           0.8750834
 Standard basis: def2TZVP (5D, 7F)
 The following finite field(s) will be applied:
 An electric field of              0.0001  0.0027  0.0070
   352 basis functions,   566 primitive gaussians,   402 cartesian basis functions
    35 alpha electrons       35 beta electrons
       nuclear repulsion energy       479.4094399434 Hartrees.
 NAtoms=   17 NActive=   17 NUniq=   17 SFac= 1.00D+00 NAtFMM=   60 NAOKFM=F Big=F
 Integral buffers will be    131072 words long.
 Raffenetti 2 integral format.
 Two-electron integral symmetry is turned off.
 One-electron integrals computed using PRISM.
   1 Symmetry operations used in ECPInt.
 ECPInt:  NShTT=    9591 NPrTT=   29644 LenC2=    9329 LenP2D=   22705.
 LDataN:  DoStor=T MaxTD1= 6 Len=  172
 NBasis=   352 RedAO= T EigKep=  3.59D-05  NBF=   352
 NBsUse=   352 1.00D-06 EigRej= -1.00D+00 NBFU=   352
 The nuclear repulsion energy is now       480.3793012247 hartrees.
 Initial guess from the checkpoint file:  "checkpoint.chk"
 B after Tr=     0.000000    0.000000    0.000000
         Rot=    1.000000   -0.000000    0.000000    0.000000 Ang=   0.00 deg.
 Requested convergence on RMS density matrix=1.00D-08 within 128 cycles.
 Requested convergence on MAX density matrix=1.00D-06.
 Requested convergence on             energy=1.00D-06.
 No special actions if energy rises.
 SCF Done:  E(RB3LYP) =  -439.149002180     A.U. after   11 cycles
            NFock= 11  Conv=0.36D-08     -V/T= 2.0050
 DoSCS=F DFT=T ScalE2(SS,OS)=  1.000000  1.000000
 Range of M.O.s used for correlation:     1   352
 NBasis=   352 NAE=    35 NBE=    35 NFC=     0 NFV=     0
 NROrb=    352 NOA=    35 NOB=    35 NVA=   317 NVB=   317

 **** Warning!!: The largest alpha MO coefficient is  0.28925447D+02

   1 Symmetry operations used in ECPInt.
 ECPInt:  NShTT=    9591 NPrTT=   29644 LenC2=    9329 LenP2D=   22705.
 LDataN:  DoStor=T MaxTD1= 7 Len=  274
 Symmetrizing basis deriv contribution to polar:
 IMax=3 JMax=2 DiffMx= 0.00D+00
 G2DrvN: will do    18 centers at a time, making    1 passes.
 Calling FoFCou, ICntrl=  3107 FMM=F I1Cent=   0 AccDes= 0.00D+00.
 End of G2Drv F.D. properties file   721 does not exist.
 End of G2Drv F.D. properties file   722 does not exist.
 End of G2Drv F.D. properties file   788 does not exist.
          IDoAtm=11111111111111111
          Differentiating once with respect to nuclear coordinates.
 CalDSu exits because no D1Ps are significant.
          There are    54 degrees of freedom in the 1st order CPHF.  IDoFFX=6 NUNeed=     0.
     48 vectors produced by pass  0 Test12= 2.05D-14 1.85D-09 XBig12= 1.66D-01 1.15D-01.
 AX will form    48 AO Fock derivatives at one time.
     48 vectors produced by pass  1 Test12= 2.05D-14 1.85D-09 XBig12= 4.62D-02 5.25D-02.
     48 vectors produced by pass  2 Test12= 2.05D-14 1.85D-09 XBig12= 3.73D-04 3.10D-03.
     48 vectors produced by pass  3 Test12= 2.05D-14 1.85D-09 XBig12= 2.00D-06 1.73D-04.
     48 vectors produced by pass  4 Test12= 2.05D-14 1.85D-09 XBig12= 6.78D-09 1.13D-05.
     48 vectors produced by pass  5 Test12= 2.05D-14 1.85D-09 XBig12= 1.38D-11 4.51D-07.
     22 vectors produced by pass  6 Test12= 2.05D-14 1.85D-09 XBig12= 2.62D-14 1.89D-08.
 InvSVY:  IOpt=1 It=  1 EMax= 5.55D-16
 Solved reduced A of dimension   310 with    54 vectors.
 End of Minotr F.D. properties file   721 does not exist.
 End of Minotr F.D. properties file   722 does not exist.
 End of Minotr F.D. properties file   788 does not exist.
   1 Symmetry operations used in ECPInt.
 ECPInt:  NShTT=    9591 NPrTT=   29644 LenC2=    9329 LenP2D=   22705.
 LDataN:  DoStor=T MaxTD1= 8 Len=  415
 Calling FoFJK, ICntrl=    100147 FMM=F ISym2X=0 I1Cent= 0 IOpClX= 0 NMat=1 NMatS=1 NMatT=0.
 -------------------------------------------------------------------
 Center     Atomic                   Forces (Hartrees/Bohr)
 Number     Number              X              Y              Z
 -------------------------------------------------------------------
      1        6           0.001138103   -0.001204444   -0.000886629
      2        6          -0.000266900    0.001599037    0.001092318
      3        6           0.000317657    0.001008859    0.000277211
      4        7           0.000231167    0.000187093    0.000920396
      5        6          -0.000302641   -0.000839951   -0.001250756
      6        1          -0.000092839   -0.000372054   -0.000222483
      7        1           0.000035553   -0.000025380    0.000041622
      8        6          -0.000082496    0.000186552    0.000093579
      9        6           0.000438314   -0.000018789   -0.000578504
     10        1          -0.000175491   -0.000369630   -0.000620942
     11        6          -0.000838617    0.000500752    0.002101682
     12        1          -0.000169493   -0.000071099   -0.000112725
     13        1          -0.000115026   -0.000096719    0.000075176
     14        1          -0.000007323   -0.000140518   -0.000182074
     15        6          -0.000086737   -0.002330090   -0.005858793
     16        1           0.000198195    0.000088916   -0.000145261
     17        8          -0.000221427    0.001897466    0.005256182
 -------------------------------------------------------------------
 Cartesian Forces:  Max     0.005858793 RMS     0.001326819
 -----------------------------------------------------------------------------------------------
                       Internal Coordinate Forces (Hartree/Bohr or radian)
  Cent   Atom   N1       Length/X         N2         Alpha/Y        N3         Beta/Z          J
 -----------------------------------------------------------------------------------------------
      1  C 
      2  C        1   0.001039(     1)
      3  C        1  -0.001050(     2)      2  -0.002663(    17)
      4  N        1  -0.000367(     3)      2   0.002311(    18)      3  -0.001351(    32)     0
      5  C        3  -0.001501(     4)      1  -0.004231(    19)      2   0.001086(    33)     0
      6  H        2   0.000040(     5)      1  -0.000576(    20)      3  -0.000691(    34)     0
      7  H        3  -0.000034(     6)      1   0.000054(    21)      5  -0.000074(    35)     0
      8  C        2   0.000247(     7)      1   0.000140(    22)      6  -0.000092(    36)     0
      9  C        4  -0.000877(     8)      1   0.000654(    23)      2   0.000430(    37)     0
     10  H        4   0.000588(     9)      1  -0.000066(    24)      9   0.000713(    38)     0
     11  C        5   0.001158(    10)      3  -0.003331(    25)      1   0.000856(    39)     0
     12  H        5  -0.000069(    11)      3  -0.000416(    26)     11   0.000043(    40)     0
     13  H        8   0.000108(    12)      2   0.000136(    27)      1  -0.000179(    41)     0
     14  H        9   0.000010(    13)      4  -0.000371(    28)      1   0.000245(    42)     0
     15  C       11  -0.000284(    14)      5  -0.000523(    29)      3   0.000285(    43)     0
     16  H       11   0.000192(    15)      5  -0.000361(    30)     15   0.000029(    44)     0
     17  O       15   0.005553(    16)     11  -0.001430(    31)      5  -0.000214(    45)     0
 -----------------------------------------------------------------------------------------------
 Internal  Forces:  Max     0.005553374 RMS     0.001399974

 GradGradGradGradGradGradGradGradGradGradGradGradGradGradGradGradGradGrad
 Berny optimization.
 Search for a saddle point.
 Step number   1 out of a maximum of   55
 All quantities printed in internal units (Hartrees-Bohrs-Radians)
 Swapping is turned off.
 Second derivative matrix not updated -- analytic derivatives used.
 ITU=  0
     Eigenvalues ---   -0.20433   0.01551   0.01917   0.02306   0.03438
     Eigenvalues ---    0.04722   0.05123   0.05530   0.06749   0.08156
     Eigenvalues ---    0.10869   0.14360   0.15298   0.16103   0.17234
     Eigenvalues ---    0.18950   0.19167   0.20962   0.21769   0.23002
     Eigenvalues ---    0.27294   0.30697   0.31998   0.33729   0.35044
     Eigenvalues ---    0.35318   0.35773   0.36573   0.36932   0.37162
     Eigenvalues ---    0.37477   0.39873   0.40366   0.46517   0.47977
     Eigenvalues ---    0.49357   0.52807   0.56047   0.62048   0.77742
     Eigenvalues ---    0.91218   1.68849   2.05504   2.24047  16.30933
 Eigenvectors required to have negative eigenvalues:
                          A17       A5        D6        D8        A3
   1                    0.63822   0.29815   0.29488  -0.24332   0.23033
                          A15       R15       A6        A11       R17
   1                    0.22150  -0.21768   0.16429   0.15818  -0.14045
 RFO step:  Lambda0=1.076504788D-04 Lambda=-1.47993929D-04.
 Linear search not attempted -- option 19 set.
 Variable       Old X    -DE/DX   Delta X   Delta X   Delta X     New X
                                 (Linear)    (Quad)   (Total)
    R2        2.67171   0.00104   0.00000  -0.00162  -0.00162   2.67009
    R3        2.68166  -0.00105   0.00000   0.00257   0.00257   2.68422
    R4        2.56751  -0.00037   0.00000  -0.00183  -0.00183   2.56568
    R5        2.57783  -0.00150   0.00000  -0.00428  -0.00428   2.57355
    R6        2.04528   0.00004   0.00000  -0.00092  -0.00092   2.04435
    R7        2.04359  -0.00003   0.00000   0.00010   0.00010   2.04370
    R8        2.72617   0.00025   0.00000  -0.00125  -0.00125   2.72493
    R9        2.62181  -0.00088   0.00000  -0.00342  -0.00342   2.61839
   R10        1.90286   0.00059   0.00000   0.00118   0.00118   1.90404
   R11        2.69011   0.00116   0.00000   0.00721   0.00721   2.69732
   R12        2.04794  -0.00007   0.00000  -0.00039  -0.00039   2.04755
   R13        2.03522   0.00011   0.00000   0.00035   0.00035   2.03557
   R14        2.03495   0.00001   0.00000  -0.00001  -0.00001   2.03494
   R15        2.58487  -0.00028   0.00000  -0.00739  -0.00739   2.57748
   R16        2.05282   0.00019   0.00000   0.00085   0.00085   2.05366
   R17        2.23806   0.00555   0.00000   0.00476   0.00476   2.24282
    A3        2.18667  -0.00266   0.00000  -0.00006  -0.00006   2.18661
    A4        1.87298   0.00231   0.00000   0.00184   0.00184   1.87482
    A5        2.06080  -0.00423   0.00000   0.00145   0.00145   2.06226
    A6        2.10267  -0.00058   0.00000   0.00268   0.00268   2.10535
    A7        2.11293   0.00005   0.00000  -0.00041  -0.00041   2.11252
    A8        1.85891   0.00014   0.00000  -0.00137  -0.00137   1.85754
    A9        1.92315   0.00065   0.00000  -0.00012  -0.00012   1.92303
   A10        2.17189  -0.00007   0.00000   0.00108   0.00108   2.17296
   A11        2.22396  -0.00333   0.00000  -0.00099  -0.00099   2.22297
   A12        2.04770  -0.00042   0.00000   0.00075   0.00075   2.04845
   A13        2.21011   0.00014   0.00000   0.00138   0.00138   2.21149
   A14        2.10235  -0.00037   0.00000  -0.00070  -0.00070   2.10165
   A15        2.24082  -0.00052   0.00000   0.00663   0.00663   2.24746
   A16        2.05602  -0.00036   0.00000  -0.00381  -0.00381   2.05221
   A17        2.54246  -0.00143   0.00000   0.00997   0.00997   2.55243
    D4       -3.00715  -0.00135   0.00000  -0.01152  -0.01152  -3.01867
    D5       -0.48734   0.00109   0.00000  -0.01119  -0.01119  -0.49853
    D6       -0.72547  -0.00069   0.00000   0.02317   0.02317  -0.70230
    D7       -3.00234  -0.00007   0.00000  -0.00691  -0.00691  -3.00925
    D8       -2.54885  -0.00009   0.00000  -0.01077  -0.01077  -2.55963
    D9        0.00564   0.00043   0.00000  -0.00222  -0.00222   0.00342
   D10        3.01421   0.00071   0.00000   0.02867   0.02867   3.04288
   D11       -0.02027   0.00086   0.00000  -0.00180  -0.00180  -0.02207
   D12       -3.04729   0.00004   0.00000  -0.00160  -0.00160  -3.04889
   D13        3.10910  -0.00018   0.00000  -0.00390  -0.00390   3.10520
   D14        3.13506   0.00025   0.00000   0.00540   0.00540   3.14047
   D15        0.04766   0.00029   0.00000   0.00754   0.00754   0.05521
   D16       -2.91108   0.00003   0.00000  -0.00646  -0.00646  -2.91754
   D17        3.09930  -0.00021   0.00000  -0.01396  -0.01396   3.08534
         Item               Value     Threshold  Converged?
 Maximum Force            0.005553     0.000450     NO 
 RMS     Force            0.001400     0.000300     NO 
 Maximum Displacement     0.028675     0.001800     NO 
 RMS     Displacement     0.007429     0.001200     NO 
 Predicted change in Energy=-2.028850D-05
 GradGradGradGradGradGradGradGradGradGradGradGradGradGradGradGradGradGrad

 ---------------------------------------------------------------------------------------------------
                            Z-MATRIX (ANGSTROMS AND DEGREES)
   CD    Cent   Atom    N1       Length/X        N2       Alpha/Y        N3        Beta/Z          J
 ---------------------------------------------------------------------------------------------------
      1      1  C 
      2      2  C        1   1.412952(     1)
      3      3  C        1   1.420430(     2)      2  125.283(    17)
      4      4  N        1   1.357701(     3)      2  107.419(    18)      3 -172.957(    32)      0
      5      5  C        3   1.361862(     4)      1  118.159(    19)      2  -28.564(    33)      0
      6      6  H        2   1.081825(     5)      1  120.628(    20)      3  -40.239(    34)      0
      7      7  H        3   1.081479(     6)      1  121.038(    21)      5 -172.417(    35)      0
      8      8  C        2   1.441969(     7)      1  106.429(    22)      6 -146.656(    36)      0
      9      9  C        4   1.385594(     8)      1  110.181(    23)      2    0.196(    37)      0
     10     10  H        4   1.007575(     9)      1  124.502(    24)      9  174.344(    38)      0
     11     11  C        5   1.427360(    10)      3  127.367(    25)      1   -1.265(    39)      0
     12     12  H        5   1.083515(    11)      3  117.367(    26)     11 -174.689(    40)      0
     13     13  H        8   1.077177(    12)      2  126.709(    27)      1  177.915(    41)      0
     14     14  H        9   1.076842(    13)      4  120.415(    28)      1  179.936(    42)      0
     15     15  C       11   1.363944(    14)      5  128.770(    29)      3    3.163(    43)      0
     16     16  H       11   1.086751(    15)      5  117.583(    30)     15 -167.163(    44)      0
     17     17  O       15   1.186850(    16)     11  146.244(    31)      5  176.777(    45)      0
 ---------------------------------------------------------------------------------------------------
                         Z-Matrix orientation:                         
 ---------------------------------------------------------------------
 Center     Atomic      Atomic             Coordinates (Angstroms)
 Number     Number       Type             X           Y           Z
 ---------------------------------------------------------------------
      1          6           0        0.000000    0.000000    0.000000
      2          6           0        0.000000    0.000000    1.412952
      3          6           0        1.159505    0.000000   -0.820470
      4          7           0       -1.285661    0.158839   -0.406447
      5          6           0        2.293254    0.574085   -0.330869
      6          1           0        0.710616   -0.601343    1.964095
      7          1           0        1.114939   -0.331787   -1.848832
      8          6           0       -1.373092    0.166035    1.820782
      9          6           0       -2.124164    0.266917    0.691324
     10          1           0       -1.570827    0.273676   -1.365979
     11          6           0        2.462815    1.217156    0.932090
     12          1           0        3.150150    0.627116   -0.991870
     13          1           0       -1.747684    0.179684    2.830636
     14          1           0       -3.184278    0.399603    0.556627
     15          6           0        1.563964    1.352846    1.948946
     16          1           0        3.337978    1.848225    1.061970
     17          8           0        1.374299    1.746945    3.052272
 ---------------------------------------------------------------------
                    Distance matrix (angstroms):
                    1          2          3          4          5
     1  C    0.000000
     2  C    1.412952   0.000000
     3  C    1.420430   2.516471   0.000000
     4  N    1.357701   2.233465   2.485051   0.000000
     5  C    2.387061   2.937601   1.361862   3.603716   0.000000
     6  H    2.173536   1.081825   2.883906   3.190998   3.025431
     7  H    2.184342   3.463006   1.081479   2.843249   2.124438
     8  C    2.286525   1.441969   3.663035   2.228956   4.270621
     9  C    2.249722   2.259218   3.624810   1.385594   4.544537
    10  H    2.099594   3.203881   2.797711   1.007575   4.011585
    11  C    2.900986   2.788935   2.500310   4.118590   1.427360
    12  H    3.361626   4.012467   2.094116   4.498713   1.083515
    13  H    3.331544   2.257546   4.670611   3.269956   5.145857
    14  H    3.257167   3.321536   4.574333   2.142481   5.551706
    15  C    2.841578   2.136226   3.108608   3.885086   2.517120
    16  H    3.960532   3.831609   3.421295   5.136956   2.157518
    17  O    3.775828   2.761862   4.253949   4.643297   3.696718
                    6          7          8          9         10
     6  H    0.000000
     7  H    3.843767   0.000000
     8  C    2.225139   4.461411   0.000000
     9  C    3.226422   4.159643   1.360133   0.000000
    10  H    4.130379   2.795187   3.194704   2.130428   0.000000
    11  C    2.728035   3.456807   4.075391   4.690555   4.737250
    12  H    4.024695   2.407480   5.346338   5.548088   4.748947
    13  H    2.721054   5.509413   1.077177   2.173938   4.201392
    14  H    4.260640   4.980404   2.221044   1.076842   2.513064
    15  C    2.132437   4.178843   3.170369   4.045138   4.688310
    16  H    3.703680   4.262290   5.059619   5.698501   5.698290
    17  O    2.671902   5.330029   3.400588   4.472561   5.510465
                   11         12         13         14         15
    11  C    0.000000
    12  H    2.126546   0.000000
    13  H    4.733828   6.229007   0.000000
    14  H    5.718306   6.524920   2.698756   0.000000
    15  C    1.363944   3.419221   3.622250   5.039149   0.000000
    16  H    1.086751   2.396799   5.637036   6.700276   2.044323
    17  O    2.441457   4.556616   3.500316   5.368817   1.186850
                   16         17
    16  H    0.000000
    17  O    2.797784   0.000000
 Symmetry turned off by external request.
 Stoichiometry    C8H7NO
 Framework group  C1[X(C8H7NO)]
 Deg. of freedom    45
 Full point group                 C1      NOp   1
 Rotational constants (GHZ):           2.1549219           1.3511656           0.8719347
 Standard basis: def2TZVP (5D, 7F)
 The following finite field(s) will be applied:
 An electric field of              0.0001  0.0027  0.0070
   352 basis functions,   566 primitive gaussians,   402 cartesian basis functions
    35 alpha electrons       35 beta electrons
       nuclear repulsion energy       478.9243143507 Hartrees.
 NAtoms=   17 NActive=   17 NUniq=   17 SFac= 1.00D+00 NAtFMM=   60 NAOKFM=F Big=F
 Integral buffers will be    131072 words long.
 Raffenetti 2 integral format.
 Two-electron integral symmetry is turned off.
 One-electron integrals computed using PRISM.
   1 Symmetry operations used in ECPInt.
 ECPInt:  NShTT=    9591 NPrTT=   29644 LenC2=    9325 LenP2D=   22696.
 LDataN:  DoStor=T MaxTD1= 6 Len=  172
 NBasis=   352 RedAO= T EigKep=  3.60D-05  NBF=   352
 NBsUse=   352 1.00D-06 EigRej= -1.00D+00 NBFU=   352
 The nuclear repulsion energy is now       479.8907951009 hartrees.
 Initial guess from the checkpoint file:  "checkpoint.chk"
 B after Tr=     0.006225   -0.011276   -0.001789
         Rot=    0.999983    0.002974   -0.000647   -0.004959 Ang=   0.67 deg.
 ExpMin= 9.52D-02 ExpMax= 2.70D+04 ExpMxC= 9.22D+02 IAcc=2 IRadAn=         4 AccDes= 0.00D+00
 Harris functional with IExCor=  402 and IRadAn=       4 diagonalized for initial guess.
 HarFok:  IExCor=  402 AccDes= 0.00D+00 IRadAn=         4 IDoV= 1 UseB2=F ITyADJ=14
 ICtDFT=  3500011 ScaDFX=  1.000000  1.000000  1.000000  1.000000
 FoFCou: FMM=F IPFlag=           0 FMFlag=      100000 FMFlg1=           0
         NFxFlg=           0 DoJE=T BraDBF=F KetDBF=T FulRan=T
         wScrn=  0.000000 ICntrl=       500 IOpCl=  0 I1Cent=   200000004 NGrid=           0
         NMat0=    1 NMatS0=      1 NMatT0=    0 NMatD0=    1 NMtDS0=    0 NMtDT0=    0
 Symmetry not used in FoFCou.
 Requested convergence on RMS density matrix=1.00D-08 within 128 cycles.
 Requested convergence on MAX density matrix=1.00D-06.
 Requested convergence on             energy=1.00D-06.
 No special actions if energy rises.
 Integral accuracy reduced to 1.0D-05 until final iterations.
 Initial convergence to 1.0D-05 achieved.  Increase integral accuracy.
 SCF Done:  E(RB3LYP) =  -439.149022236     A.U. after   12 cycles
            NFock= 12  Conv=0.46D-08     -V/T= 2.0050
   1 Symmetry operations used in ECPInt.
 ECPInt:  NShTT=    9591 NPrTT=   29644 LenC2=    9325 LenP2D=   22696.
 LDataN:  DoStor=T MaxTD1= 7 Len=  274
 Calling FoFJK, ICntrl=      2127 FMM=F ISym2X=0 I1Cent= 0 IOpClX= 0 NMat=1 NMatS=1 NMatT=0.
 -------------------------------------------------------------------
 Center     Atomic                   Forces (Hartrees/Bohr)
 Number     Number              X              Y              Z
 -------------------------------------------------------------------
      1        6           0.002243359   -0.002076778   -0.000038002
      2        6          -0.002178703    0.001039907    0.000028298
      3        6          -0.000048485    0.001044138    0.000010072
      4        7          -0.000047439    0.000000508   -0.000029787
      5        6           0.000041324    0.000003429    0.000011304
      6        1           0.000004822   -0.000009652   -0.000001491
      7        1          -0.000002126    0.000001650   -0.000001017
      8        6          -0.000019115    0.000004096    0.000005247
      9        6           0.000010447   -0.000002959    0.000022788
     10        1           0.000014139   -0.000006012   -0.000009315
     11        6           0.000024441    0.000004973   -0.000042318
     12        1           0.000002362   -0.000001604    0.000001124
     13        1           0.000001678    0.000001632    0.000001369
     14        1          -0.000000902   -0.000001458   -0.000000123
     15        6          -0.000047010   -0.000017461   -0.000012651
     16        1           0.000003780   -0.000001412   -0.000001116
     17        8          -0.000002575    0.000017004    0.000055620
 -------------------------------------------------------------------
 Cartesian Forces:  Max     0.002243359 RMS     0.000565057
 -----------------------------------------------------------------------------------------------
                       Internal Coordinate Forces (Hartree/Bohr or radian)
  Cent   Atom   N1       Length/X         N2         Alpha/Y        N3         Beta/Z          J
 -----------------------------------------------------------------------------------------------
      1  C 
      2  C        1   0.000033(     1)
      3  C        1  -0.000035(     2)      2  -0.000064(    17)
      4  N        1   0.000026(     3)      2  -0.000002(    18)      3  -0.000040(    32)     0
      5  C        3   0.000025(     4)      1  -0.000067(    19)      2   0.000009(    33)     0
      6  H        2   0.000008(     5)      1  -0.000013(    20)      3  -0.000018(    34)     0
      7  H        3   0.000001(     6)      1  -0.000003(    21)      5   0.000004(    35)     0
      8  C        2   0.000019(     7)      1   0.000007(    22)      6  -0.000011(    36)     0
      9  C        4   0.000012(     8)      1  -0.000057(    23)      2  -0.000000(    37)     0
     10  H        4   0.000004(     9)      1  -0.000032(    24)      9   0.000009(    38)     0
     11  C        5  -0.000002(    10)      3  -0.000063(    25)      1  -0.000010(    39)     0
     12  H        5   0.000001(    11)      3   0.000003(    26)     11  -0.000005(    40)     0
     13  H        8   0.000001(    12)      2  -0.000004(    27)      1   0.000003(    41)     0
     14  H        9   0.000001(    13)      4  -0.000000(    28)      1   0.000003(    42)     0
     15  C       11   0.000065(    14)      5  -0.000016(    29)      3   0.000002(    43)     0
     16  H       11   0.000002(    15)      5  -0.000005(    30)     15  -0.000005(    44)     0
     17  O       15   0.000058(    16)     11  -0.000013(    31)      5  -0.000006(    45)     0
 -----------------------------------------------------------------------------------------------
 Internal  Forces:  Max     0.000066872 RMS     0.000026503

 GradGradGradGradGradGradGradGradGradGradGradGradGradGradGradGradGradGrad
 Berny optimization.
 Search for a saddle point.
 Step number   2 out of a maximum of   55
 All quantities printed in internal units (Hartrees-Bohrs-Radians)
 Swapping is turned off.
 Update second derivatives using D2CorN and points    1    2
 ITU=  0  0
     Eigenvalues ---   -0.20342   0.01549   0.01918   0.02301   0.03427
     Eigenvalues ---    0.04720   0.05122   0.05517   0.06749   0.08156
     Eigenvalues ---    0.10867   0.14360   0.15296   0.16103   0.17232
     Eigenvalues ---    0.18951   0.19167   0.20962   0.21769   0.23000
     Eigenvalues ---    0.27291   0.30699   0.31999   0.33729   0.35044
     Eigenvalues ---    0.35320   0.35773   0.36574   0.36931   0.37163
     Eigenvalues ---    0.37477   0.39875   0.40367   0.46517   0.47976
     Eigenvalues ---    0.49359   0.52806   0.56046   0.62048   0.77715
     Eigenvalues ---    0.91218   1.68847   2.05505   2.24047  16.30933
 Eigenvectors required to have negative eigenvalues:
                          A17       A5        D6        D8        A3
   1                    0.63889   0.29828   0.29389  -0.24328   0.23033
                          A15       R15       A6        A11       R17
   1                    0.22154  -0.21732   0.16438   0.15814  -0.14046
 RFO step:  Lambda0=5.034592661D-08 Lambda=-7.09223659D-08.
 Linear search not attempted -- option 19 set.
 Variable       Old X    -DE/DX   Delta X   Delta X   Delta X     New X
                                 (Linear)    (Quad)   (Total)
    R2        2.67009   0.00003   0.00000  -0.00001  -0.00001   2.67008
    R3        2.68422  -0.00004   0.00000  -0.00004  -0.00004   2.68419
    R4        2.56568   0.00003   0.00000   0.00009   0.00009   2.56578
    R5        2.57355   0.00002   0.00000   0.00005   0.00005   2.57359
    R6        2.04435   0.00001   0.00000  -0.00000  -0.00000   2.04435
    R7        2.04370   0.00000   0.00000   0.00001   0.00001   2.04370
    R8        2.72493   0.00002   0.00000  -0.00002  -0.00002   2.72491
    R9        2.61839   0.00001   0.00000   0.00001   0.00001   2.61840
   R10        1.90404   0.00000   0.00000   0.00001   0.00001   1.90405
   R11        2.69732  -0.00000   0.00000   0.00004   0.00004   2.69736
   R12        2.04755   0.00000   0.00000  -0.00000  -0.00000   2.04755
   R13        2.03557   0.00000   0.00000   0.00000   0.00000   2.03557
   R14        2.03494   0.00000   0.00000   0.00000   0.00000   2.03494
   R15        2.57748   0.00006   0.00000   0.00003   0.00003   2.57752
   R16        2.05366   0.00000   0.00000   0.00001   0.00001   2.05367
   R17        2.24282   0.00006   0.00000   0.00002   0.00002   2.24284
    A3        2.18661  -0.00006   0.00000  -0.00001  -0.00001   2.18659
    A4        1.87482  -0.00000   0.00000   0.00002   0.00002   1.87484
    A5        2.06226  -0.00007   0.00000   0.00006   0.00006   2.06232
    A6        2.10535  -0.00001   0.00000   0.00006   0.00006   2.10541
    A7        2.11252  -0.00000   0.00000  -0.00002  -0.00002   2.11250
    A8        1.85754   0.00001   0.00000   0.00001   0.00001   1.85755
    A9        1.92303  -0.00006   0.00000  -0.00006  -0.00006   1.92297
   A10        2.17296  -0.00003   0.00000  -0.00010  -0.00010   2.17286
   A11        2.22297  -0.00006   0.00000  -0.00003  -0.00003   2.22294
   A12        2.04845   0.00000   0.00000   0.00004   0.00004   2.04848
   A13        2.21149  -0.00000   0.00000   0.00001   0.00001   2.21150
   A14        2.10165  -0.00000   0.00000  -0.00001  -0.00001   2.10164
   A15        2.24746  -0.00002   0.00000   0.00010   0.00010   2.24755
   A16        2.05221  -0.00000   0.00000  -0.00001  -0.00001   2.05220
   A17        2.55243  -0.00001   0.00000   0.00023   0.00023   2.55266
    D4       -3.01867  -0.00004   0.00000  -0.00041  -0.00041  -3.01908
    D5       -0.49853   0.00001   0.00000  -0.00027  -0.00027  -0.49880
    D6       -0.70230  -0.00002   0.00000   0.00069   0.00069  -0.70161
    D7       -3.00925   0.00000   0.00000  -0.00010  -0.00010  -3.00935
    D8       -2.55963  -0.00001   0.00000  -0.00036  -0.00036  -2.55999
    D9        0.00342  -0.00000   0.00000   0.00006   0.00006   0.00348
   D10        3.04288   0.00001   0.00000   0.00023   0.00023   3.04311
   D11       -0.02207  -0.00001   0.00000  -0.00020  -0.00020  -0.02227
   D12       -3.04889  -0.00000   0.00000   0.00004   0.00004  -3.04885
   D13        3.10520   0.00000   0.00000   0.00008   0.00008   3.10528
   D14        3.14047   0.00000   0.00000  -0.00000  -0.00000   3.14046
   D15        0.05521   0.00000   0.00000   0.00034   0.00034   0.05554
   D16       -2.91754  -0.00000   0.00000  -0.00027  -0.00027  -2.91782
   D17        3.08534  -0.00001   0.00000  -0.00042  -0.00042   3.08493
         Item               Value     Threshold  Converged?
 Maximum Force            0.000067     0.000450     YES
 RMS     Force            0.000027     0.000300     YES
 Maximum Displacement     0.000693     0.001800     YES
 RMS     Displacement     0.000178     0.001200     YES
 Predicted change in Energy=-1.028821D-08
 Optimization completed.
    -- Stationary point found.
                       ----------------------------
                       !   Optimized Parameters   !
                       ! (Angstroms and Degrees)  !
 ----------------------                            ----------------------
 !      Name          Value   Derivative information (Atomic Units)     !
 ------------------------------------------------------------------------
 !       R2          1.413    -DE/DX =    0.0                           !
 !       R3          1.4204   -DE/DX =    0.0                           !
 !       R4          1.3577   -DE/DX =    0.0                           !
 !       R5          1.3619   -DE/DX =    0.0                           !
 !       R6          1.0818   -DE/DX =    0.0                           !
 !       R7          1.0815   -DE/DX =    0.0                           !
 !       R8          1.442    -DE/DX =    0.0                           !
 !       R9          1.3856   -DE/DX =    0.0                           !
 !       R10         1.0076   -DE/DX =    0.0                           !
 !       R11         1.4274   -DE/DX =    0.0                           !
 !       R12         1.0835   -DE/DX =    0.0                           !
 !       R13         1.0772   -DE/DX =    0.0                           !
 !       R14         1.0768   -DE/DX =    0.0                           !
 !       R15         1.3639   -DE/DX =    0.0001                        !
 !       R16         1.0868   -DE/DX =    0.0                           !
 !       R17         1.1869   -DE/DX =    0.0001                        !
 !       A3        125.2834   -DE/DX =   -0.0001                        !
 !       A4        107.4194   -DE/DX =    0.0                           !
 !       A5        118.1586   -DE/DX =   -0.0001                        !
 !       A6        120.6276   -DE/DX =    0.0                           !
 !       A7        121.0384   -DE/DX =    0.0                           !
 !       A8        106.4291   -DE/DX =    0.0                           !
 !       A9        110.1815   -DE/DX =   -0.0001                        !
 !       A10       124.5015   -DE/DX =    0.0                           !
 !       A11       127.3668   -DE/DX =   -0.0001                        !
 !       A12       117.3673   -DE/DX =    0.0                           !
 !       A13       126.7091   -DE/DX =    0.0                           !
 !       A14       120.4154   -DE/DX =    0.0                           !
 !       A15       128.7698   -DE/DX =    0.0                           !
 !       A16       117.583    -DE/DX =    0.0                           !
 !       A17       146.2435   -DE/DX =    0.0                           !
 !       D4       -172.957    -DE/DX =    0.0                           !
 !       D5        -28.5636   -DE/DX =    0.0                           !
 !       D6        -40.2388   -DE/DX =    0.0                           !
 !       D7       -172.4172   -DE/DX =    0.0                           !
 !       D8       -146.6559   -DE/DX =    0.0                           !
 !       D9          0.1961   -DE/DX =    0.0                           !
 !       D10       174.3442   -DE/DX =    0.0                           !
 !       D11        -1.2645   -DE/DX =    0.0                           !
 !       D12      -174.6885   -DE/DX =    0.0                           !
 !       D13       177.915    -DE/DX =    0.0                           !
 !       D14       179.9355   -DE/DX =    0.0                           !
 !       D15         3.1631   -DE/DX =    0.0                           !
 !       D16      -167.163    -DE/DX =    0.0                           !
 !       D17       176.7771   -DE/DX =    0.0                           !
 ------------------------------------------------------------------------
 GradGradGradGradGradGradGradGradGradGradGradGradGradGradGradGradGradGrad

 ---------------------------------------------------------------------------------------------------
                            Z-MATRIX (ANGSTROMS AND DEGREES)
   CD    Cent   Atom    N1       Length/X        N2       Alpha/Y        N3        Beta/Z          J
 ---------------------------------------------------------------------------------------------------
      1      1  C 
      2      2  C        1   1.412952(     1)
      3      3  C        1   1.420430(     2)      2  125.283(    17)
      4      4  N        1   1.357701(     3)      2  107.419(    18)      3 -172.957(    32)      0
      5      5  C        3   1.361862(     4)      1  118.159(    19)      2  -28.564(    33)      0
      6      6  H        2   1.081825(     5)      1  120.628(    20)      3  -40.239(    34)      0
      7      7  H        3   1.081479(     6)      1  121.038(    21)      5 -172.417(    35)      0
      8      8  C        2   1.441969(     7)      1  106.429(    22)      6 -146.656(    36)      0
      9      9  C        4   1.385594(     8)      1  110.181(    23)      2    0.196(    37)      0
     10     10  H        4   1.007575(     9)      1  124.502(    24)      9  174.344(    38)      0
     11     11  C        5   1.427360(    10)      3  127.367(    25)      1   -1.265(    39)      0
     12     12  H        5   1.083515(    11)      3  117.367(    26)     11 -174.689(    40)      0
     13     13  H        8   1.077177(    12)      2  126.709(    27)      1  177.915(    41)      0
     14     14  H        9   1.076842(    13)      4  120.415(    28)      1  179.936(    42)      0
     15     15  C       11   1.363944(    14)      5  128.770(    29)      3    3.163(    43)      0
     16     16  H       11   1.086751(    15)      5  117.583(    30)     15 -167.163(    44)      0
     17     17  O       15   1.186850(    16)     11  146.244(    31)      5  176.777(    45)      0
 ---------------------------------------------------------------------------------------------------
                         Z-Matrix orientation:                         
 ---------------------------------------------------------------------
 Center     Atomic      Atomic             Coordinates (Angstroms)
 Number     Number       Type             X           Y           Z
 ---------------------------------------------------------------------
      1          6           0        0.000000    0.000000    0.000000
      2          6           0        0.000000    0.000000    1.412952
      3          6           0        1.159505    0.000000   -0.820470
      4          7           0       -1.285661    0.158839   -0.406447
      5          6           0        2.293254    0.574085   -0.330869
      6          1           0        0.710616   -0.601343    1.964095
      7          1           0        1.114939   -0.331787   -1.848832
      8          6           0       -1.373092    0.166035    1.820782
      9          6           0       -2.124164    0.266917    0.691324
     10          1           0       -1.570827    0.273676   -1.365979
     11          6           0        2.462815    1.217156    0.932090
     12          1           0        3.150150    0.627116   -0.991870
     13          1           0       -1.747684    0.179684    2.830636
     14          1           0       -3.184278    0.399603    0.556627
     15          6           0        1.563964    1.352846    1.948946
     16          1           0        3.337978    1.848225    1.061970
     17          8           0        1.374299    1.746945    3.052272
 ---------------------------------------------------------------------
                    Distance matrix (angstroms):
                    1          2          3          4          5
     1  C    0.000000
     2  C    1.412952   0.000000
     3  C    1.420430   2.516471   0.000000
     4  N    1.357701   2.233465   2.485051   0.000000
     5  C    2.387061   2.937601   1.361862   3.603716   0.000000
     6  H    2.173536   1.081825   2.883906   3.190998   3.025431
     7  H    2.184342   3.463006   1.081479   2.843249   2.124438
     8  C    2.286525   1.441969   3.663035   2.228956   4.270621
     9  C    2.249722   2.259218   3.624810   1.385594   4.544537
    10  H    2.099594   3.203881   2.797711   1.007575   4.011585
    11  C    2.900986   2.788935   2.500310   4.118590   1.427360
    12  H    3.361626   4.012467   2.094116   4.498713   1.083515
    13  H    3.331544   2.257546   4.670611   3.269956   5.145857
    14  H    3.257167   3.321536   4.574333   2.142481   5.551706
    15  C    2.841578   2.136226   3.108608   3.885086   2.517120
    16  H    3.960532   3.831609   3.421295   5.136956   2.157518
    17  O    3.775828   2.761862   4.253949   4.643297   3.696718
                    6          7          8          9         10
     6  H    0.000000
     7  H    3.843767   0.000000
     8  C    2.225139   4.461411   0.000000
     9  C    3.226422   4.159643   1.360133   0.000000
    10  H    4.130379   2.795187   3.194704   2.130428   0.000000
    11  C    2.728035   3.456807   4.075391   4.690555   4.737250
    12  H    4.024695   2.407480   5.346338   5.548088   4.748947
    13  H    2.721054   5.509413   1.077177   2.173938   4.201392
    14  H    4.260640   4.980404   2.221044   1.076842   2.513064
    15  C    2.132437   4.178843   3.170369   4.045138   4.688310
    16  H    3.703680   4.262290   5.059619   5.698501   5.698290
    17  O    2.671902   5.330029   3.400588   4.472561   5.510465
                   11         12         13         14         15
    11  C    0.000000
    12  H    2.126546   0.000000
    13  H    4.733828   6.229007   0.000000
    14  H    5.718306   6.524920   2.698756   0.000000
    15  C    1.363944   3.419221   3.622250   5.039149   0.000000
    16  H    1.086751   2.396799   5.637036   6.700276   2.044323
    17  O    2.441457   4.556616   3.500316   5.368817   1.186850
                   16         17
    16  H    0.000000
    17  O    2.797784   0.000000
 Symmetry turned off by external request.
 Stoichiometry    C8H7NO
 Framework group  C1[X(C8H7NO)]
 Deg. of freedom    45
 Full point group                 C1      NOp   1
 Rotational constants (GHZ):           2.1549219           1.3511656           0.8719347
 1\1\GINC-BHC0195\FTS\RB3LYP\def2TZVP\C8H7N1O1\DHANAWAY\10-Jun-2022\1\\
 # Opt=(TS, CalcFC, noeigentest, Z-matrix, MaxStep=10) geom=allcheckpoi
 nt guess=read Field=read NoSymm B3LYP/Def2TZVP freq=noraman pop=none\\
 ts_zmat_initalOpt\\0,1\C\C,1,R2\C,1,R3,2,A3\N,1,R4,2,A4,3,D4,0\C,3,R5,
 1,A5,2,D5,0\H,2,R6,1,A6,3,D6,0\H,3,R7,1,A7,5,D7,0\C,2,R8,1,A8,6,D8,0\C
 ,4,R9,1,A9,2,D9,0\H,4,R10,1,A10,9,D10,0\C,5,R11,3,A11,1,D11,0\H,5,R12,
 3,A12,11,D12,0\H,8,R13,2,A13,1,D13,0\H,9,R14,4,A14,1,D14,0\C,11,R15,5,
 A15,3,D15,0\H,11,R16,5,A16,15,D16,0\O,15,R17,11,A17,5,D17,0\\R2=1.4129
 5248\R3=1.42043012\R4=1.35770111\R5=1.36186231\R6=1.08182543\R7=1.0814
 7898\R8=1.44196886\R9=1.38559404\R10=1.00757549\R11=1.42736007\R12=1.0
 8351546\R13=1.07717739\R14=1.07684211\R15=1.36394406\R16=1.08675104\R1
 7=1.18685011\A3=125.28336274\A4=107.41942019\A5=118.15862241\A6=120.62
 76092\A7=121.03838928\A8=106.42908234\A9=110.18148732\A10=124.50154768
 \A11=127.36677027\A12=117.36734148\A13=126.70914873\A14=120.41543415\A
 15=128.76976596\A16=117.58296765\A17=146.24352151\D4=-172.9570021\D5=-
 28.56358373\D6=-40.23882507\D7=-172.41723722\D8=-146.65593737\D9=0.196
 06542\D10=174.34418891\D11=-1.26452441\D12=-174.68851163\D13=177.91495
 297\D14=179.93553054\D15=3.16312158\D16=-167.16298586\D17=176.77712957
 \\Version=ES64L-G16RevA.03\HF=-439.1490222\RMSD=4.631e-09\RMSF=5.651e-
 04\Dipole=-0.8639374,-0.7063329,-2.2240669\PG=C01 [X(C8H7N1O1)]\\@


  DISAPPOINTMENT IS THE NURSE OF WISDOM.               
                              SIR BOYLE ROCHE                 
 Job cpu time:       0 days  2 hours 19 minutes  4.7 seconds.
 Elapsed time:       0 days  0 hours 11 minutes 57.2 seconds.
 File lengths (MBytes):  RWF=    180 Int=      0 D2E=      0 Chk=     32 Scr=      1
 Normal termination of Gaussian 16 at Fri Jun 10 12:47:06 2022.
 Link1:  Proceeding to internal job step number  2.
 --------------------------------------------------------------------
 #N Geom=AllCheck Guess=TCheck SCRF=Check GenChk RB3LYP/def2TZVP Freq
 --------------------------------------------------------------------
 1/5=1,8=10,10=4,11=1,29=7,30=1,38=1,40=1/1,3;
 2/12=2,15=1,40=1/2;
 3/5=44,7=101,11=2,14=-4,25=1,30=1,70=2,71=2,74=-5,116=1,140=1/1,2,3;
 4/5=101/1;
 5/5=2,38=6,98=1/2;
 8/6=4,10=90,11=11/1;
 11/6=1,8=1,9=11,15=111,16=1,31=1/1,2,10;
 10/6=1,31=1/2;
 7/8=1,10=1,25=1,30=1/1,2,3,16;
 1/5=1,8=10,10=4,11=1,30=1/3;
 99//99;
 Structure from the checkpoint file:  "checkpoint.chk"
 -----------------
 ts_zmat_initalOpt
 -----------------
 Charge =  0 Multiplicity = 1
 Z-Matrix found in chk file.
 C
 C,1,R2
 C,1,R3,2,A3
 N,1,R4,2,A4,3,D4,0
 C,3,R5,1,A5,2,D5,0
 H,2,R6,1,A6,3,D6,0
 H,3,R7,1,A7,5,D7,0
 C,2,R8,1,A8,6,D8,0
 C,4,R9,1,A9,2,D9,0
 H,4,R10,1,A10,9,D10,0
 C,5,R11,3,A11,1,D11,0
 H,5,R12,3,A12,11,D12,0
 H,8,R13,2,A13,1,D13,0
 H,9,R14,4,A14,1,D14,0
 C,11,R15,5,A15,3,D15,0
 H,11,R16,5,A16,15,D16,0
 O,15,R17,11,A17,5,D17,0
      Variables:
 R2=1.41295248
 R3=1.42043012
 R4=1.35770111
 R5=1.36186231
 R6=1.08182543
 R7=1.08147898
 R8=1.44196886
 R9=1.38559404
 R10=1.00757549
 R11=1.42736007
 R12=1.08351546
 R13=1.07717739
 R14=1.07684211
 R15=1.36394406
 R16=1.08675104
 R17=1.18685011
 A3=125.28336274
 A4=107.41942019
 A5=118.15862241
 A6=120.6276092
 A7=121.03838928
 A8=106.42908234
 A9=110.18148732
 A10=124.50154768
 A11=127.36677027
 A12=117.36734148
 A13=126.70914873
 A14=120.41543415
 A15=128.76976596
 A16=117.58296765
 A17=146.24352151
 D4=-172.9570021
 D5=-28.56358373
 D6=-40.23882507
 D7=-172.41723722
 D8=-146.65593737
 D9=0.19606542
 D10=174.34418891
 D11=-1.26452441
 D12=-174.68851163
 D13=177.91495297
 D14=179.93553054
 D15=3.16312158
 D16=-167.16298586
 D17=176.77712957
 Recover connectivity data from disk.

 GradGradGradGradGradGradGradGradGradGradGradGradGradGradGradGradGradGrad
 Berny optimization.
 Initialization pass.
                       ----------------------------
                       !    Initial Parameters    !
                       ! (Angstroms and Degrees)  !
 ----------------------                            ----------------------
 !      Name          Value   Derivative information (Atomic Units)     !
 ------------------------------------------------------------------------
 !       R2          1.413    calculate D2E/DX2 analytically            !
 !       R3          1.4204   calculate D2E/DX2 analytically            !
 !       R4          1.3577   calculate D2E/DX2 analytically            !
 !       R5          1.3619   calculate D2E/DX2 analytically            !
 !       R6          1.0818   calculate D2E/DX2 analytically            !
 !       R7          1.0815   calculate D2E/DX2 analytically            !
 !       R8          1.442    calculate D2E/DX2 analytically            !
 !       R9          1.3856   calculate D2E/DX2 analytically            !
 !       R10         1.0076   calculate D2E/DX2 analytically            !
 !       R11         1.4274   calculate D2E/DX2 analytically            !
 !       R12         1.0835   calculate D2E/DX2 analytically            !
 !       R13         1.0772   calculate D2E/DX2 analytically            !
 !       R14         1.0768   calculate D2E/DX2 analytically            !
 !       R15         1.3639   calculate D2E/DX2 analytically            !
 !       R16         1.0868   calculate D2E/DX2 analytically            !
 !       R17         1.1869   calculate D2E/DX2 analytically            !
 !       A3        125.2834   calculate D2E/DX2 analytically            !
 !       A4        107.4194   calculate D2E/DX2 analytically            !
 !       A5        118.1586   calculate D2E/DX2 analytically            !
 !       A6        120.6276   calculate D2E/DX2 analytically            !
 !       A7        121.0384   calculate D2E/DX2 analytically            !
 !       A8        106.4291   calculate D2E/DX2 analytically            !
 !       A9        110.1815   calculate D2E/DX2 analytically            !
 !       A10       124.5015   calculate D2E/DX2 analytically            !
 !       A11       127.3668   calculate D2E/DX2 analytically            !
 !       A12       117.3673   calculate D2E/DX2 analytically            !
 !       A13       126.7091   calculate D2E/DX2 analytically            !
 !       A14       120.4154   calculate D2E/DX2 analytically            !
 !       A15       128.7698   calculate D2E/DX2 analytically            !
 !       A16       117.583    calculate D2E/DX2 analytically            !
 !       A17       146.2435   calculate D2E/DX2 analytically            !
 !       D4       -172.957    calculate D2E/DX2 analytically            !
 !       D5        -28.5636   calculate D2E/DX2 analytically            !
 !       D6        -40.2388   calculate D2E/DX2 analytically            !
 !       D7       -172.4172   calculate D2E/DX2 analytically            !
 !       D8       -146.6559   calculate D2E/DX2 analytically            !
 !       D9          0.1961   calculate D2E/DX2 analytically            !
 !       D10       174.3442   calculate D2E/DX2 analytically            !
 !       D11        -1.2645   calculate D2E/DX2 analytically            !
 !       D12      -174.6885   calculate D2E/DX2 analytically            !
 !       D13       177.915    calculate D2E/DX2 analytically            !
 !       D14       179.9355   calculate D2E/DX2 analytically            !
 !       D15         3.1631   calculate D2E/DX2 analytically            !
 !       D16      -167.163    calculate D2E/DX2 analytically            !
 !       D17       176.7771   calculate D2E/DX2 analytically            !
 ------------------------------------------------------------------------
 Trust Radius=1.00D-01 FncErr=1.00D-07 GrdErr=1.00D-07 EigMax=2.50D+02 EigMin=1.00D-04
 Number of steps in this run=      2 maximum allowed number of steps=      2.
 Search for a saddle point of order  1.
 GradGradGradGradGradGradGradGradGradGradGradGradGradGradGradGradGradGrad

                          Input orientation:                          
 ---------------------------------------------------------------------
 Center     Atomic      Atomic             Coordinates (Angstroms)
 Number     Number       Type             X           Y           Z
 ---------------------------------------------------------------------
      1          6           0        0.000000    0.000000    0.000000
      2          6           0        0.000000    0.000000    1.412952
      3          6           0        1.159505    0.000000   -0.820470
      4          7           0       -1.285661    0.158839   -0.406447
      5          6           0        2.293254    0.574085   -0.330869
      6          1           0        0.710616   -0.601343    1.964095
      7          1           0        1.114939   -0.331787   -1.848832
      8          6           0       -1.373092    0.166035    1.820782
      9          6           0       -2.124164    0.266917    0.691324
     10          1           0       -1.570827    0.273676   -1.365979
     11          6           0        2.462815    1.217156    0.932090
     12          1           0        3.150150    0.627116   -0.991870
     13          1           0       -1.747684    0.179684    2.830636
     14          1           0       -3.184278    0.399603    0.556627
     15          6           0        1.563964    1.352846    1.948946
     16          1           0        3.337978    1.848225    1.061970
     17          8           0        1.374299    1.746945    3.052272
 ---------------------------------------------------------------------
                    Distance matrix (angstroms):
                    1          2          3          4          5
     1  C    0.000000
     2  C    1.412952   0.000000
     3  C    1.420430   2.516471   0.000000
     4  N    1.357701   2.233465   2.485051   0.000000
     5  C    2.387061   2.937601   1.361862   3.603716   0.000000
     6  H    2.173536   1.081825   2.883906   3.190998   3.025431
     7  H    2.184342   3.463006   1.081479   2.843249   2.124438
     8  C    2.286525   1.441969   3.663035   2.228956   4.270621
     9  C    2.249722   2.259218   3.624810   1.385594   4.544537
    10  H    2.099594   3.203881   2.797711   1.007575   4.011585
    11  C    2.900986   2.788935   2.500310   4.118590   1.427360
    12  H    3.361626   4.012467   2.094116   4.498713   1.083515
    13  H    3.331544   2.257546   4.670611   3.269956   5.145857
    14  H    3.257167   3.321536   4.574333   2.142481   5.551706
    15  C    2.841578   2.136226   3.108608   3.885086   2.517120
    16  H    3.960532   3.831609   3.421295   5.136956   2.157518
    17  O    3.775828   2.761862   4.253949   4.643297   3.696718
                    6          7          8          9         10
     6  H    0.000000
     7  H    3.843767   0.000000
     8  C    2.225139   4.461411   0.000000
     9  C    3.226422   4.159643   1.360133   0.000000
    10  H    4.130379   2.795187   3.194704   2.130428   0.000000
    11  C    2.728035   3.456807   4.075391   4.690555   4.737250
    12  H    4.024695   2.407480   5.346338   5.548088   4.748947
    13  H    2.721054   5.509413   1.077177   2.173938   4.201392
    14  H    4.260640   4.980404   2.221044   1.076842   2.513064
    15  C    2.132437   4.178843   3.170369   4.045138   4.688310
    16  H    3.703680   4.262290   5.059619   5.698501   5.698290
    17  O    2.671902   5.330029   3.400588   4.472561   5.510465
                   11         12         13         14         15
    11  C    0.000000
    12  H    2.126546   0.000000
    13  H    4.733828   6.229007   0.000000
    14  H    5.718306   6.524920   2.698756   0.000000
    15  C    1.363944   3.419221   3.622250   5.039149   0.000000
    16  H    1.086751   2.396799   5.637036   6.700276   2.044323
    17  O    2.441457   4.556616   3.500316   5.368817   1.186850
                   16         17
    16  H    0.000000
    17  O    2.797784   0.000000
 Symmetry turned off by external request.
 Stoichiometry    C8H7NO
 Framework group  C1[X(C8H7NO)]
 Deg. of freedom    45
 Full point group                 C1      NOp   1
 Rotational constants (GHZ):           2.1549219           1.3511656           0.8719347
 Standard basis: def2TZVP (5D, 7F)
 The following finite field(s) will be applied:
 An electric field of              0.0001  0.0027  0.0070
   352 basis functions,   566 primitive gaussians,   402 cartesian basis functions
    35 alpha electrons       35 beta electrons
       nuclear repulsion energy       478.9243143507 Hartrees.
 NAtoms=   17 NActive=   17 NUniq=   17 SFac= 1.00D+00 NAtFMM=   60 NAOKFM=F Big=F
 Integral buffers will be    131072 words long.
 Raffenetti 2 integral format.
 Two-electron integral symmetry is turned off.
 One-electron integrals computed using PRISM.
   1 Symmetry operations used in ECPInt.
 ECPInt:  NShTT=    9591 NPrTT=   29644 LenC2=    9325 LenP2D=   22696.
 LDataN:  DoStor=T MaxTD1= 6 Len=  172
 NBasis=   352 RedAO= T EigKep=  3.60D-05  NBF=   352
 NBsUse=   352 1.00D-06 EigRej= -1.00D+00 NBFU=   352
 The nuclear repulsion energy is now       479.8907951009 hartrees.
 Initial guess from the checkpoint file:  "checkpoint.chk"
 B after Tr=     0.000000    0.000000    0.000000
         Rot=    1.000000    0.000000    0.000000    0.000000 Ang=   0.00 deg.
 Requested convergence on RMS density matrix=1.00D-08 within 128 cycles.
 Requested convergence on MAX density matrix=1.00D-06.
 Requested convergence on             energy=1.00D-06.
 No special actions if energy rises.
 SCF Done:  E(RB3LYP) =  -439.149022236     A.U. after    1 cycles
            NFock=  1  Conv=0.24D-08     -V/T= 2.0050
 DoSCS=F DFT=T ScalE2(SS,OS)=  1.000000  1.000000
 Range of M.O.s used for correlation:     1   352
 NBasis=   352 NAE=    35 NBE=    35 NFC=     0 NFV=     0
 NROrb=    352 NOA=    35 NOB=    35 NVA=   317 NVB=   317

 **** Warning!!: The largest alpha MO coefficient is  0.29229691D+02

   1 Symmetry operations used in ECPInt.
 ECPInt:  NShTT=    9591 NPrTT=   29644 LenC2=    9325 LenP2D=   22696.
 LDataN:  DoStor=T MaxTD1= 7 Len=  274
 Symmetrizing basis deriv contribution to polar:
 IMax=3 JMax=2 DiffMx= 0.00D+00
 G2DrvN: will do    18 centers at a time, making    1 passes.
 Calling FoFCou, ICntrl=  3107 FMM=F I1Cent=   0 AccDes= 0.00D+00.
 End of G2Drv F.D. properties file   721 does not exist.
 End of G2Drv F.D. properties file   722 does not exist.
 End of G2Drv F.D. properties file   788 does not exist.
          IDoAtm=11111111111111111
          Differentiating once with respect to electric field.
                with respect to dipole field.
          Differentiating once with respect to nuclear coordinates.
 CalDSu exits because no D1Ps are significant.
          There are    54 degrees of freedom in the 1st order CPHF.  IDoFFX=6 NUNeed=     3.
     51 vectors produced by pass  0 Test12= 2.05D-14 1.85D-09 XBig12= 2.02D+02 6.35D+00.
 AX will form    51 AO Fock derivatives at one time.
     51 vectors produced by pass  1 Test12= 2.05D-14 1.85D-09 XBig12= 2.86D+01 1.02D+00.
     51 vectors produced by pass  2 Test12= 2.05D-14 1.85D-09 XBig12= 3.25D-01 8.12D-02.
     51 vectors produced by pass  3 Test12= 2.05D-14 1.85D-09 XBig12= 1.42D-03 4.21D-03.
     51 vectors produced by pass  4 Test12= 2.05D-14 1.85D-09 XBig12= 3.88D-06 2.22D-04.
     50 vectors produced by pass  5 Test12= 2.05D-14 1.85D-09 XBig12= 8.75D-09 9.25D-06.
     16 vectors produced by pass  6 Test12= 2.05D-14 1.85D-09 XBig12= 1.22D-11 3.35D-07.
      3 vectors produced by pass  7 Test12= 2.05D-14 1.85D-09 XBig12= 1.48D-14 1.33D-08.
      3 vectors produced by pass  8 Test12= 2.05D-14 1.85D-09 XBig12= 1.80D-15 5.32D-09.
      3 vectors produced by pass  9 Test12= 2.05D-14 1.85D-09 XBig12= 1.09D-15 4.81D-09.
      2 vectors produced by pass 10 Test12= 2.05D-14 1.85D-09 XBig12= 5.63D-16 2.79D-09.
 InvSVY:  IOpt=1 It=  1 EMax= 1.07D-14
 Solved reduced A of dimension   332 with    54 vectors.
 Isotropic polarizability for W=    0.000000      107.70 Bohr**3.
 End of Minotr F.D. properties file   721 does not exist.
 End of Minotr F.D. properties file   722 does not exist.
 End of Minotr F.D. properties file   788 does not exist.
   1 Symmetry operations used in ECPInt.
 ECPInt:  NShTT=    9591 NPrTT=   29644 LenC2=    9325 LenP2D=   22696.
 LDataN:  DoStor=T MaxTD1= 8 Len=  415
 Calling FoFJK, ICntrl=    100127 FMM=F ISym2X=0 I1Cent= 0 IOpClX= 0 NMat=1 NMatS=1 NMatT=0.
 Full mass-weighted force constant matrix:
 Low frequencies --- -391.4719   -6.9749   -0.0005   -0.0003    0.0003   10.8497
 Low frequencies ---   20.4852  110.6663  137.5433
 ******    1 imaginary frequencies (negative Signs) ****** 
 Diagonal vibrational polarizability:
       28.1611450      29.7807096      19.9500901
 Harmonic frequencies (cm**-1), IR intensities (KM/Mole), Raman scattering
 activities (A**4/AMU), depolarization ratios for plane and unpolarized
 incident light, reduced masses (AMU), force constants (mDyne/A),
 and normal coordinates:
                      1                      2                      3
                      A                      A                      A
 Frequencies --   -391.4550               110.6558               137.5273
 Red. masses --      6.8987                 5.9672                 4.6254
 Frc consts  --      0.6228                 0.0430                 0.0515
 IR Inten    --    181.4649                 1.4229                 1.8588
  Atom  AN      X      Y      Z        X      Y      Z        X      Y      Z
     1   6    -0.05  -0.05   0.07    -0.05   0.03  -0.00     0.03  -0.17   0.03
     2   6    -0.23  -0.33  -0.04    -0.10   0.24   0.00     0.00  -0.07   0.03
     3   6     0.02   0.00   0.03    -0.04   0.06   0.03     0.04  -0.18   0.04
     4   7    -0.04   0.08  -0.00    -0.06  -0.24  -0.08     0.06  -0.06  -0.00
     5   6    -0.01  -0.03  -0.07    -0.03   0.06   0.01    -0.06   0.11  -0.05
     6   1     0.15   0.39   0.21    -0.12   0.28   0.08    -0.05  -0.06   0.10
     7   1     0.05  -0.22   0.10    -0.04   0.06   0.02     0.09  -0.30   0.08
     8   6    -0.08  -0.14  -0.03    -0.14   0.13  -0.08     0.02   0.17  -0.01
     9   6    -0.07   0.04  -0.07    -0.11  -0.18  -0.13     0.06   0.18  -0.03
    10   1     0.02   0.19  -0.01    -0.04  -0.43  -0.11     0.11  -0.04  -0.02
    11   6     0.05   0.07  -0.03     0.05   0.02   0.01    -0.14   0.25  -0.11
    12   1     0.04  -0.16  -0.01    -0.05   0.06  -0.02    -0.09   0.21  -0.08
    13   1    -0.10  -0.22  -0.04    -0.19   0.22  -0.10     0.01   0.32  -0.01
    14   1    -0.05   0.14  -0.09    -0.13  -0.36  -0.19     0.08   0.33  -0.06
    15   6     0.44   0.30   0.09     0.14   0.03   0.09    -0.03  -0.01   0.01
    16   1     0.12   0.01  -0.12     0.09  -0.04  -0.01    -0.25   0.42  -0.18
    17   8    -0.04   0.02   0.04     0.30  -0.07   0.15     0.01  -0.21   0.08
                      4                      5                      6
                      A                      A                      A
 Frequencies --    270.3471               289.4448               329.1233
 Red. masses --      4.8009                 3.3743                 7.6048
 Frc consts  --      0.2067                 0.1666                 0.4854
 IR Inten    --     22.2084                 3.2393                 5.6822
  Atom  AN      X      Y      Z        X      Y      Z        X      Y      Z
     1   6     0.04   0.11   0.09     0.06  -0.12   0.12    -0.04  -0.15  -0.16
     2   6    -0.05   0.03   0.12    -0.06  -0.11   0.14     0.08  -0.16  -0.12
     3   6     0.02  -0.13   0.10    -0.04   0.10   0.01    -0.05  -0.09  -0.13
     4   7     0.10   0.23  -0.00     0.10  -0.06   0.02    -0.03   0.01  -0.09
     5   6     0.03  -0.05   0.01    -0.03   0.17  -0.10    -0.16  -0.01   0.08
     6   1    -0.16  -0.16   0.07    -0.16  -0.14   0.25     0.06  -0.29  -0.23
     7   1    -0.03  -0.25   0.15    -0.21   0.36  -0.07     0.06   0.08  -0.18
     8   6    -0.16  -0.21  -0.01    -0.11   0.02  -0.00     0.10  -0.11  -0.08
     9   6    -0.04  -0.08  -0.08     0.01   0.07  -0.08     0.05   0.12  -0.02
    10   1     0.20   0.25  -0.03     0.24   0.06  -0.01    -0.08   0.08  -0.07
    11   6    -0.09   0.11  -0.10     0.05  -0.14   0.03    -0.21  -0.07   0.11
    12   1     0.03  -0.11   0.01    -0.16   0.45  -0.24    -0.14   0.19   0.13
    13   1    -0.29  -0.45  -0.06    -0.22   0.06  -0.04     0.16  -0.08  -0.06
    14   1    -0.03  -0.16  -0.17     0.04   0.17  -0.19     0.07   0.33   0.06
    15   6    -0.13  -0.02  -0.08    -0.02  -0.10  -0.02    -0.09   0.02   0.21
    16   1    -0.16   0.20  -0.09     0.05  -0.15   0.11    -0.23  -0.00   0.01
    17   8     0.21   0.02  -0.02     0.04   0.09  -0.08     0.27   0.31   0.18
                      7                      8                      9
                      A                      A                      A
 Frequencies --    461.0009               512.8261               553.3620
 Red. masses --      4.7107                 4.2168                 2.9491
 Frc consts  --      0.5898                 0.6534                 0.5321
 IR Inten    --      8.2595                 3.4017                 0.5133
  Atom  AN      X      Y      Z        X      Y      Z        X      Y      Z
     1   6    -0.09  -0.06  -0.08     0.05   0.02   0.05    -0.01  -0.05  -0.04
     2   6    -0.06  -0.15  -0.06     0.00  -0.07   0.06    -0.03   0.03  -0.04
     3   6     0.08   0.11   0.14    -0.08   0.23  -0.09     0.09  -0.12   0.04
     4   7    -0.16  -0.11  -0.03     0.06  -0.15   0.02    -0.04   0.02   0.01
     5   6     0.16   0.02   0.19     0.05  -0.20   0.04    -0.00   0.15  -0.02
     6   1    -0.14  -0.37  -0.18     0.07   0.12   0.16     0.07   0.19  -0.01
     7   1     0.25   0.18   0.11    -0.18   0.29  -0.11     0.16  -0.16   0.05
     8   6    -0.06  -0.02   0.01     0.01  -0.01   0.01    -0.01  -0.06   0.02
     9   6    -0.09   0.09   0.05     0.06   0.07  -0.03    -0.02   0.04   0.04
    10   1    -0.21   0.17   0.02     0.18   0.27   0.04    -0.10  -0.03   0.02
    11   6     0.16   0.15   0.04    -0.13   0.01  -0.04     0.05  -0.09   0.06
    12   1     0.13  -0.09   0.13     0.20  -0.49   0.21    -0.02   0.23  -0.04
    13   1    -0.02   0.02   0.03    -0.03   0.04  -0.01     0.05  -0.06   0.04
    14   1    -0.08   0.26   0.11     0.09   0.22  -0.08    -0.02   0.12   0.07
    15   6    -0.06  -0.09  -0.11    -0.16   0.22  -0.11    -0.14   0.22  -0.13
    16   1    -0.04   0.43   0.03     0.02  -0.20   0.04     0.36  -0.60   0.40
    17   8     0.13   0.02  -0.13     0.06  -0.09   0.05     0.06  -0.08   0.01
                     10                     11                     12
                      A                      A                      A
 Frequencies --    585.6397               611.0976               626.2290
 Red. masses --      1.4099                 2.9929                 2.8418
 Frc consts  --      0.2849                 0.6585                 0.6566
 IR Inten    --     43.1240                 6.8183                 5.6219
  Atom  AN      X      Y      Z        X      Y      Z        X      Y      Z
     1   6    -0.01   0.03   0.00     0.05   0.03  -0.04    -0.03  -0.14  -0.01
     2   6     0.03   0.08  -0.00    -0.10  -0.08  -0.03     0.03  -0.10  -0.01
     3   6    -0.03  -0.04   0.03     0.16   0.02  -0.13    -0.06  -0.00   0.03
[...]

 ----------------------------------------------------------------------
 1\1\GINC-BHC0195\Freq\RB3LYP\def2TZVP\C8H7N1O1\DHANAWAY\10-Jun-2022\1\
 \#N Geom=AllCheck Guess=TCheck SCRF=Check GenChk RB3LYP/def2TZVP Freq\
 \ts_zmat_initalOpt\\0,1\C\C,1,R2\C,1,R3,2,A3\N,1,R4,2,A4,3,D4,0\C,3,R5
 ,1,A5,2,D5,0\H,2,R6,1,A6,3,D6,0\H,3,R7,1,A7,5,D7,0\C,2,R8,1,A8,6,D8,0\
 C,4,R9,1,A9,2,D9,0\H,4,R10,1,A10,9,D10,0\C,5,R11,3,A11,1,D11,0\H,5,R12
 ,3,A12,11,D12,0\H,8,R13,2,A13,1,D13,0\H,9,R14,4,A14,1,D14,0\C,11,R15,5
 ,A15,3,D15,0\H,11,R16,5,A16,15,D16,0\O,15,R17,11,A17,5,D17,0\\R2=1.412
 95248\R3=1.42043012\R4=1.35770111\R5=1.36186231\R6=1.08182543\R7=1.081
 47898\R8=1.44196886\R9=1.38559404\R10=1.00757549\R11=1.42736007\R12=1.
 08351546\R13=1.07717739\R14=1.07684211\R15=1.36394406\R16=1.08675104\R
 17=1.18685011\A3=125.28336274\A4=107.41942019\A5=118.15862241\A6=120.6
 276092\A7=121.03838928\A8=106.42908234\A9=110.18148732\A10=124.5015476
 8\A11=127.36677027\A12=117.36734148\A13=126.70914873\A14=120.41543415\
 A15=128.76976596\A16=117.58296765\A17=146.24352151\D4=-172.9570021\D5=
 -28.56358373\D6=-40.23882507\D7=-172.41723722\D8=-146.65593737\D9=0.19
 606542\D10=174.34418891\D11=-1.26452441\D12=-174.68851163\D13=177.9149
 5297\D14=179.93553054\D15=3.16312158\D16=-167.16298586\D17=176.7771295
 7\\Version=ES64L-G16RevA.03\HF=-439.1490222\RMSD=2.447e-09\RMSF=5.650e
 -04\ZeroPoint=0.1300091\Thermal=0.1375978\Dipole=-0.8639401,-0.7063351
 ,-2.2240661\DipoleDeriv=0.7804273,0.0795118,0.1271336,-0.0702712,0.012
 9491,-0.0901,0.2518385,0.0560366,0.3491703,-0.3269618,-0.2519766,-0.39
 99461,-0.2789362,-0.2270025,-0.2911956,-0.2587381,-0.1410191,-0.399740
 3,-0.4706476,-0.0805841,-0.1129583,-0.1397803,-0.2692147,-0.0142636,0.
 0234836,0.0096017,-0.1158841,-0.6660326,-0.1506266,-0.0614385,0.021718
 3,-0.1527459,-0.0048708,-0.3021049,0.0197383,-0.4175163,0.2909995,0.14
 42281,0.0692346,0.1798598,0.11289,0.3051415,0.3612107,0.3102501,0.3951
 943,0.0646538,0.0468197,0.020519,0.1297463,0.1510778,0.098733,0.008102
 2,0.0092703,0.0908226,0.0398561,-0.0299842,-0.003018,0.0155584,0.15455
 69,-0.0499862,-0.0048779,-0.046995,0.0156291,0.0490574,0.0164846,0.023
 0656,-0.0793859,-0.2634622,0.0203906,-0.0366638,-0.0048619,-0.0358842,
 -0.095778,-0.0777764,-0.1469002,0.0235877,-0.1147042,0.0467859,-0.0666
 799,-0.0533938,0.2794024,0.2021655,0.0211345,0.0731265,0.0195139,0.295
 3053,0.0328138,0.0941456,0.0181282,0.2628035,-0.3490263,0.1821497,0.29
 50821,-0.1071624,-0.3237187,-0.0809762,-0.3361099,-0.3030113,-0.776969
 ,-0.0074161,-0.0152905,0.0758007,0.0005387,0.1160298,-0.0160932,0.0519
 43,-0.01053,0.0551698,0.0309055,-0.002506,0.0542774,0.019807,0.1529622
 ,-0.0162747,0.0849323,0.0085179,-0.0447565,-0.0100631,0.0230975,-0.005
 976,0.0304427,0.1819731,-0.0111734,-0.0118777,0.0038964,0.0772657,0.92
 52092,0.2522105,-0.0808597,0.5974044,0.7130167,0.7168634,0.4679545,1.0
 621245,2.0894397,-0.0733038,-0.1345543,-0.0331083,-0.0830264,0.0841438
 ,-0.0720788,0.0450044,-0.0405269,0.0779028,-0.3840452,-0.0223377,0.105
 9657,-0.2796149,-0.6240565,-0.5737158,-0.3715627,-0.8972262,-1.9020498
 \Polar=137.4469338,16.5288643,71.0656505,1.0409652,16.6236791,114.5923
 812\PG=C01 [X(C8H7N1O1)]\NImag=1\\0.72231203,-0.03461757,0.17785154,-0
 .08234785,-0.00432664,0.65230329,-0.09373708,0.01167198,0.03198572,0.5
 5280449,0.00112676,-0.07190526,0.03563347,-0.19609170,0.20506608,-0.00
 739374,0.00495399,-0.27988126,0.05717975,-0.10768369,0.60316091,-0.197
 72973,0.00237642,0.06739105,0.02086627,0.02142187,0.02713684,0.6294054
 5,0.00600682,-0.05847376,-0.01780669,0.00888448,0.01140495,0.00411354,
 0.14219392,0.21599223,0.09913895,-0.01106637,-0.18462190,0.02685357,-0
 .00538806,-0.01931537,0.00496845,0.18343887,0.65509972,-0.28011462,0.0
 2223817,-0.05652444,-0.03816701,-0.00237975,-0.05517715,-0.05293628,0.
 00251348,-0.00510057,0.63107079,0.03305172,-0.06482103,0.00440913,0.00
 784444,0.01378679,0.00961216,-0.00491207,0.00185502,0.00353827,-0.0751
 5778,0.09525522,-0.05371143,0.00947612,-0.15234658,-0.01745821,0.00963
 311,-0.04639673,0.01321947,-0.00478393,0.02181924,0.09422501,-0.055918
 97,0.89995970,-0.06430045,-0.01326788,0.01804694,-0.00538083,-0.010008
 98,-0.00979375,-0.30836843,-0.12002008,-0.10553640,0.01150674,0.000683
 99,0.00569636,0.68332313,-0.01764768,0.00044466,0.01643505,-0.00771566
 ,-0.01067256,-0.00785400,-0.11773783,-0.11418610,-0.06764442,0.0052355
 2,0.00370869,0.00112614,0.17885902,0.27171345,-0.00913203,0.00603557,0
 .04429630,-0.01862357,-0.01914711,-0.01449071,-0.05221341,-0.04363288,
 -0.15076567,0.00929004,0.00120544,0.00214689,-0.05239819,0.15950758,0.
 54672341,0.00121174,-0.00302784,-0.00588358,-0.15889337,0.11410623,-0.
 08665603,-0.00278409,-0.00261763,-0.00009100,0.00469247,0.00163170,0.0
 0022784,0.00038421,0.00035584,0.00269944,0.17889165,-0.00233326,-0.000
 59264,-0.01424786,0.13597187,-0.10891424,0.10228066,-0.00575055,-0.003
 72321,-0.00012964,0.00457444,0.00084871,-0.00352520,0.00170131,0.00260
 184,0.00680382,-0.11703363,0.12464116,-0.02003188,0.01640040,-0.009800
 26,-0.08723687,0.08742825,-0.12230587,-0.00152500,-0.00224842,-0.00018
 835,0.00101148,-0.00047923,-0.00683523,-0.00020306,0.00074892,0.001203
 87,0.10411367,-0.09248157,0.12881719,0.00620241,0.00765020,0.02363496,
 -0.00222804,0.00118405,0.00188039,-0.05845262,-0.00834148,-0.00564112,
 0.00207894,-0.00079358,-0.00156727,0.00226208,-0.00813452,-0.02637957,
 -0.00013912,-0.00033869,0.00014072,0.05539041,-0.00608262,0.00150652,0
 .00834613,-0.00306843,0.00018556,-0.00173190,-0.00046104,-0.05445547,-
 0.09170522,0.00145826,-0.00075963,0.00116599,-0.00495643,-0.00448214,-
 0.01513427,0.00041940,0.00047759,-0.00023255,0.01214932,0.05452717,-0.
 00043654,-0.00366525,-0.01457222,0.00266768,-0.00076021,0.00117977,-0.
 01065788,-0.09195673,-0.31060822,-0.00132480,0.00068630,0.00085596,0.0
 0145562,-0.00230603,-0.00643369,-0.00014969,-0.00012095,0.00004265,0.0
 0786607,0.09837610,0.32807340,-0.00896050,0.00114386,0.04331985,-0.214
 11008,0.04549952,0.04945787,-0.00414106,-0.00428810,-0.00158982,0.0078
 8843,-0.00131639,-0.01261660,0.00046660,0.00444607,0.00929218,-0.01518
 886,-0.00887550,0.00361393,-0.00060485,0.00056715,-0.00006549,0.545226
 84,0.00179469,0.00863892,-0.00502998,0.01804078,-0.06800615,0.00043558
 ,0.00153382,0.00329373,0.00047795,0.00161984,0.01432074,0.00206518,0.0
 0029747,-0.00108273,-0.00255251,0.01264309,-0.00082475,-0.00713631,-0.
 00005856,-0.00001795,0.00013534,-0.05490479,0.12630318,0.01781026,-0.0
 0074821,-0.03363809,0.05128545,-0.00029620,-0.11090580,0.00114802,-0.0
 0095461,-0.00593936,0.02277068,-0.00302028,-0.08881374,-0.00290155,-0.
 00135978,-0.00195547,-0.01733107,-0.00103768,0.00834265,0.00125467,0.0
 0021678,-0.00043454,-0.02709996,-0.01459914,0.85264807,-0.08154950,0.0
 1218734,0.01297967,-0.05554441,0.00711451,-0.00890214,0.00351698,0.000
 35949,-0.00543059,-0.17188341,0.01732138,0.08114909,-0.00429377,-0.001
 30572,-0.00149974,-0.00518224,0.00054430,0.00362521,-0.00012840,-0.000
 27621,0.00073611,-0.19754281,0.01686701,-0.14984302,0.83039231,0.01050
 332,0.01019187,-0.00354349,0.01190317,0.01225710,-0.00045735,-0.001714
 26,0.00241519,0.00067763,0.02100512,-0.05230320,-0.00901135,0.00125663
 ,0.00159082,0.00109515,0.00119365,0.00129144,0.00093318,0.00001217,-0.
 00023139,0.00012146,0.01453873,-0.06358070,0.02136379,-0.09088612,0.12
 747516,0.04322747,-0.00782998,0.00993469,-0.06305256,-0.00797999,0.001
 60853,-0.00404206,0.00617390,-0.00112632,0.06893065,-0.00226165,-0.215
 22039,0.00238310,-0.00296901,-0.00641161,0.00605657,0.00648393,0.00114
 850,0.00097365,-0.00030912,-0.00064828,-0.13363378,0.02050068,-0.31330
 292,0.10611933,-0.01542433,0.61168537,0.00210200,0.00180923,-0.0315032
 3,-0.00700005,0.00198835,-0.00148382,0.00203088,-0.00043973,0.00052592
 ,-0.10368110,0.02085988,-0.09991001,-0.00033381,-0.00076041,-0.0004494
 2,0.00025530,-0.00033785,-0.00128788,-0.00055014,0.00036171,0.00063919
 ,-0.00308148,0.00079267,0.00559719,0.01507045,-0.00498450,0.01743149,0
 .09397741,-0.00043003,-0.00457946,0.00267456,0.00003514,0.00507162,0.0
 0110685,-0.00059173,-0.00271210,0.00019274,0.02050615,-0.01414400,0.04
 842212,-0.00003691,-0.00000947,0.00068482,0.00097212,0.00108393,-0.000
 48025,0.00039684,0.00026553,-0.00037638,0.00247902,0.00135499,-0.00026
 722,-0.00263645,-0.00603843,-0.00512558,-0.02015117,0.01914640,-0.0023
 2892,0.00004144,-0.00201484,0.00017954,0.00123591,0.00189984,0.0012965
 1,0.00055963,0.00094283,-0.09990630,0.04431350,-0.41529175,-0.00053210
 ,-0.00015054,-0.00105798,-0.00024119,-0.00058539,-0.00009590,-0.000005
 89,-0.00049158,-0.00012230,0.00322771,-0.00020919,-0.00126368,-0.01060
 435,0.00245096,-0.01206831,0.10959534,-0.04694344,0.42814880,-0.013061
 90,-0.00178206,0.01954602,-0.03059417,-0.02056134,-0.01063794,0.019938
 68,-0.00443279,-0.02436892,-0.00035551,0.00221470,0.00370799,-0.104388
 93,-0.04385034,-0.04540312,0.00036784,0.00639952,0.00236197,-0.0010803
 2,-0.00484581,-0.00019027,0.00924476,-0.00486256,-0.00216769,-0.003547
 60,0.00161334,-0.00721232,-0.00048539,0.00037179,-0.00013474,0.4963374
 2,0.00925341,-0.00360404,-0.00089558,-0.01409160,-0.00104054,0.0014321
 0,-0.01843346,-0.00685333,-0.01748162,-0.00733092,-0.00000015,-0.00042
 145,-0.02003192,-0.10140098,-0.09703572,0.00080506,0.00251962,0.001093
 95,-0.00337651,0.00633149,-0.00160318,0.00203464,-0.00337273,-0.000298
 65,0.00071974,0.00016320,-0.00401630,0.00005483,-0.00020409,0.00037339
 ,0.17953790,0.27658170,0.02137690,0.00111130,-0.02422169,0.00754702,0.
 01629955,0.00961023,-0.04775849,-0.03394418,-0.01482005,-0.00604843,-0
 .00046410,-0.00193633,0.00678035,-0.07169508,-0.21379753,0.00071542,-0
 .00345489,-0.00000832,-0.00041758,-0.00038438,0.00254719,-0.00628005,-
 0.00108664,0.00153857,0.00121932,-0.00133351,0.00323445,0.00067838,-0.
 00063617,0.00049802,-0.10522610,0.18384553,0.58690359,-0.00202007,-0.0
 0406960,-0.00198158,0.00055932,0.00052128,0.00025561,-0.01897841,-0.00
 246688,0.01680373,-0.00002076,-0.00021871,0.00060295,-0.22713279,-0.01
 560569,0.13731647,-0.00010511,-0.00012640,-0.00000666,0.00046479,0.001
 96252,-0.00051389,-0.00033201,-0.00011127,-0.00004627,-0.00023934,0.00
 025387,0.00018960,-0.00001412,-0.00011082,0.00006209,0.00507830,-0.001
 48388,-0.00521205,0.24191694,-0.00562293,0.00630553,-0.00401163,-0.000
 90144,-0.00123284,-0.00112888,-0.01052619,0.00520225,0.00933078,-0.001
 30828,0.00028969,0.00213871,-0.01780269,-0.04761944,0.00029397,0.00027
 591,0.00032019,0.00017251,0.00189870,-0.00469789,0.00169871,0.00086211
 ,0.00002484,0.00025056,-0.00037413,-0.00013408,-0.00124131,0.00001856,
 0.00014796,-0.00000115,0.00795619,0.00501348,-0.00454767,0.02209165,0.
 03616022,-0.00116722,-0.00360253,0.00062987,0.00055547,0.00039174,0.00
 059921,-0.01009473,-0.00268718,0.00925850,0.00040343,0.00015218,-0.000
 09221,0.13813168,0.00363120,-0.15846839,-0.00024638,-0.00030175,-0.000
 07375,-0.00072989,0.00202008,0.00040992,-0.00053723,0.00011686,-0.0000
 5821,-0.00003281,0.00017263,0.00057734,-0.00000418,-0.00010679,0.00000
 868,0.02162934,0.00024755,-0.01641864,-0.14627054,0.00278941,0.1665526
 6,-0.00648783,0.00105356,0.00048532,0.00008009,-0.00147317,0.02508661,
 0.00072173,0.00020117,0.00140960,-0.00185469,0.00102351,-0.00436354,0.
 00013136,0.00018282,0.00023256,0.00042668,0.00005139,-0.00084022,-0.00
 040963,-0.00011027,0.00023346,-0.09189397,0.00472970,0.09762846,0.0113
 9349,-0.00084633,-0.01588005,0.00097366,0.00001718,-0.00057281,0.00010
 568,-0.00009381,-0.00044719,-0.00001543,-0.00000934,-0.00000107,0.0862
 2555,0.00177158,0.00244935,0.00049008,-0.00237247,-0.00208433,-0.00231
 732,0.00034205,0.00114171,0.00015153,-0.00022204,0.00581741,0.00115061
 ,0.00003471,-0.00037758,-0.00056527,-0.00124528,-0.00066714,-0.0000775
 9,-0.00013296,0.00013762,-0.00004555,0.00733404,-0.02623256,-0.0022636
 3,-0.00218414,-0.00019030,0.00055874,0.00030587,0.00196366,-0.00003707
 ,-0.00044087,-0.00002419,0.00033923,0.00000423,-0.00006697,0.00003119,
 -0.00453366,0.02071761,-0.00025434,-0.00017848,0.00020442,-0.00080846,
 0.00015341,0.00022794,0.00003442,0.00001800,-0.00005432,-0.00266819,0.
 00083397,-0.00295991,-0.00003767,-0.00008756,-0.00007018,0.00038770,-0
 .00003313,-0.00004327,0.00002305,0.00010020,0.00001798,0.09421206,-0.0
 0221058,-0.31650534,0.01309952,-0.00096459,-0.01316613,0.00084488,-0.0
 0024143,-0.00019836,0.00016289,0.00017225,0.00021614,0.00001278,0.0000
 1038,-0.00000210,-0.10419165,0.00287455,0.33231922,0.00069192,-0.00007
 713,0.00253630,0.00005696,0.00149915,-0.00177433,-0.00054803,0.0000945
 6,-0.00052042,-0.01254289,0.00155646,-0.00441654,0.00003154,0.00018986
 ,0.00042370,-0.00041398,-0.00017844,0.00013650,-0.00002207,0.00001181,
 0.00000599,-0.00511385,0.00089051,0.00277637,-0.34531490,0.03982088,-0
 .03641327,-0.00010233,-0.00003496,0.00026916,0.00024125,-0.00000820,-0
 .00013126,-0.00000913,-0.00009781,-0.00000038,0.00004416,-0.00046436,-
 0.00043231,0.36317803,0.00084987,0.00183184,-0.00005358,0.00151940,0.0
 0656236,-0.00049623,0.00005484,0.00159951,0.00019282,0.00091313,-0.002
 34720,0.00058036,0.00013784,0.00006827,0.00025930,-0.00058948,0.000843
 03,0.00077225,-0.00006933,-0.00000463,-0.00000374,0.00092997,0.0019683
 4,-0.00058172,0.03930937,-0.03047706,0.00427204,-0.00008726,-0.0010375
 8,-0.00009740,0.00073380,0.00052099,-0.00005825,0.00019714,-0.00018809
 ,0.00008274,-0.00047587,-0.00353451,-0.00012893,-0.04312936,0.02514693
 ,0.00125624,0.00004871,-0.00579592,-0.00276405,0.00084260,-0.00421358,
 0.00132665,0.00010789,0.00115159,0.03070896,-0.00428806,0.00697363,0.0
 0005027,-0.00035307,-0.00083567,-0.00116662,-0.00017562,0.00057453,-0.
 00002986,-0.00001815,0.00001435,-0.02172777,0.00240613,0.00821439,-0.0
 4583397,0.00497573,-0.06598632,-0.00058358,0.00006646,0.00071121,-0.00
 043102,-0.00014942,0.00038201,0.00005576,0.00013149,0.00001684,0.00095
 540,-0.00020339,0.00030948,0.03774715,-0.00402327,0.05832918,0.0244009
 8,0.00070853,-0.06183546,0.04502572,0.05738873,0.04393460,-0.04924047,
 -0.02474391,-0.00366777,0.00777275,-0.00622607,-0.00532275,0.02525063,
 0.03942660,0.06623872,-0.00463851,-0.01825637,-0.00486763,-0.00412590,
 0.00396494,-0.00050514,-0.03080340,0.00134787,-0.00117875,0.00518436,-
 0.00439827,0.02161904,0.00135853,-0.00148480,-0.00047940,-0.14681413,-
 0.01079201,0.10151219,0.00007063,0.00256936,-0.00225695,0.00046364,0.0
 0177593,-0.00038539,-0.00022667,-0.00042515,0.00061683,0.20103515,0.00
 313811,-0.00457200,-0.02709515,0.04401491,0.02565703,0.01458130,-0.011
 74189,-0.00335942,-0.00015338,0.01080459,-0.00348083,-0.00269601,0.018
 73140,-0.00009588,0.00613909,-0.00685104,-0.02493205,-0.00241979,-0.00
 172861,0.00166920,-0.00016819,-0.01507483,0.00848860,0.00449775,0.0050
 3411,-0.00289883,0.01364301,0.00057878,-0.00113615,-0.00085767,0.02011
 343,-0.05861535,-0.04280395,-0.00213205,0.00223883,-0.00453509,0.00075
 789,0.00161309,-0.00072689,-0.00001238,-0.00123221,0.00075444,-0.09957
 526,0.18469840,-0.01231606,-0.00221495,-0.00879521,0.02716986,0.007217
 89,-0.00275274,0.00979750,0.00904874,0.00796771,0.00674424,-0.00021294
 ,-0.00428161,0.02437954,-0.01597171,-0.04671394,-0.00395749,0.00030148
 ,-0.00036581,0.00006148,0.00044318,-0.00039258,-0.00385836,0.00779172,
 0.00114888,0.00630377,-0.00260677,0.00500306,-0.00043230,0.00106226,-0
 .00078672,0.13957428,-0.01337625,-0.23947868,-0.00087928,-0.00737352,-
 0.00322406,0.00215368,0.00072643,-0.00106235,-0.00010218,-0.00086293,-
 0.00002675,-0.31228985,0.24231265,0.98135452,-0.00040799,-0.00101802,0
 .00349638,-0.00327773,-0.00217524,-0.00185831,0.00299323,-0.00012470,0
 .00180535,-0.00156052,0.00039914,0.00052610,-0.00109228,-0.00264241,-0
 .00267729,0.00051575,0.00059685,0.00034978,0.00021002,-0.00016791,0.00
 004546,0.00147612,-0.00093862,0.00006081,-0.00027693,0.00037204,-0.001
 78531,-0.00010756,-0.00002255,0.00012414,-0.22199688,-0.13512017,-0.01
 983005,0.00031989,0.00156044,-0.00068890,-0.00007846,-0.00007505,0.000
 06273,0.00002392,0.00013840,-0.00004162,-0.01665860,-0.01133766,0.0055
 2370,0.23866082,-0.00111794,0.00144581,-0.00013748,-0.00003436,0.00201
 209,0.00153647,0.00239356,0.00060031,-0.00425917,0.00231478,0.00001875
 ,0.00005179,-0.01210736,-0.00640912,-0.00071604,-0.00030263,0.00049566
 ,-0.00006796,-0.00082460,0.00033050,-0.00024069,-0.00108288,-0.0002539
 2,-0.00104003,-0.00086277,-0.00021572,0.00177653,0.00014090,0.00007507
 ,-0.00016722,-0.14138520,-0.12402591,-0.02695293,0.00075248,-0.0009494
 2,0.00072109,-0.00002904,0.00002569,0.00001937,0.00001666,0.00004067,-
 0.00002831,0.00164345,0.00039282,-0.00459037,0.14995948,0.12677897,0.0
 0279955,-0.00094859,-0.00361898,0.00512044,0.00198511,0.00072397,-0.00
 244136,-0.00314725,-0.00184910,-0.00102076,-0.00024324,-0.00042131,-0.
 02226076,-0.01554904,-0.00072574,-0.00003549,-0.00140774,-0.00027906,-
 0.00110678,0.00031348,-0.00053759,-0.00089697,0.00114318,0.00097802,0.
 00109197,-0.00018293,0.00024901,0.00006076,-0.00013098,0.00005640,-0.0
 1174474,-0.02556483,-0.04930930,-0.00030142,0.00085211,0.00058300,-0.0
 0000018,0.00004604,-0.00004020,-0.00005548,-0.00016243,0.00009744,0.01
 162005,0.00979605,-0.00004021,0.01888212,0.03248932,0.05226611,-0.0085
 5141,-0.00297918,0.01665394,-0.01046006,-0.01916027,-0.02125446,0.0137
 0590,0.00722139,0.00044103,-0.00189333,0.00203768,0.00001155,-0.008065
 01,-0.01329547,-0.01671679,0.00059963,0.00339101,0.00064594,0.00113244
 ,-0.00092639,0.00019411,0.00747009,0.00031834,0.00023640,-0.00005428,0
 .00035656,-0.00491155,-0.00041224,0.00072115,0.00005121,-0.00898911,0.
 01835690,0.05152164,0.00045729,-0.00059011,0.00131037,0.00017395,0.000
 10240,-0.00006201,0.00002606,-0.00000731,-0.00013876,-0.05805471,0.045
 28049,0.11212745,0.00125719,0.00052548,0.00028904,0.07165759,0.0003557
 3,-0.00211784,0.00915965,-0.01561052,-0.01814767,-0.01838327,0.0015525
 4,0.00025848,-0.00017270,-0.00678473,0.00195502,0.00054680,-0.00347011
 ,0.00620827,-0.00324094,-0.00073547,0.00453089,-0.00192580,0.00050756,
 -0.00078210,0.00022900,0.00570739,-0.00102184,0.00013827,-0.00093171,0
 .00068493,-0.00625155,-0.00014986,0.00075211,0.00056584,0.00322031,0.0
 0801083,-0.01423385,0.00054214,-0.00081426,0.00087665,-0.00044574,-0.0
 0068856,0.00038947,-0.00007726,0.00023935,-0.00009414,0.05707643,-0.12
 443526,-0.22169490,0.00059597,-0.00036226,0.00071174,-0.04135268,0.125
 72990,0.00351064,-0.00348651,0.01193838,-0.02060076,-0.01956576,-0.018
 74832,0.00241401,-0.00229868,-0.00695094,-0.00631386,0.00213752,0.0028
 4037,-0.00326037,0.00449134,0.00735612,0.00155791,0.00163155,-0.000133
 58,0.00004298,-0.00097476,0.00060819,0.00518242,-0.00224829,-0.0000534
 3,-0.00417739,0.00173378,-0.00551068,0.00028126,0.00009843,0.00063408,
 0.02053437,-0.02632177,-0.04493966,-0.00008731,0.00063556,-0.00029866,
 -0.00188837,-0.00085859,0.00080698,-0.00004901,0.00030895,0.00008357,0
 .14724767,-0.21026817,-0.68755349,-0.00399509,0.00160564,0.00186756,-0
 .14039911,0.25337975,0.73805351\\-0.00224335,0.00207675,0.00003791,0.0
 0217867,-0.00103985,-0.00002830,0.00004855,-0.00104411,-0.00001001,0.0
 0004743,-0.00000051,0.00002981,-0.00004128,-0.00000342,-0.00001130,-0.
 00000477,0.00000960,0.00000153,0.00000211,-0.00000165,0.00000100,0.000
 01907,-0.00000411,-0.00000521,-0.00001047,0.00000297,-0.00002280,-0.00
 001415,0.00000601,0.00000929,-0.00002444,-0.00000500,0.00004223,-0.000
 00242,0.00000160,-0.00000108,-0.00000168,-0.00000163,-0.00000135,0.000
 00089,0.00000146,0.00000012,0.00004708,0.00001751,0.00001266,-0.000003
 82,0.00000140,0.00000112,0.00000256,-0.00001702,-0.00005562\\\@


 AS FAR AS THE LAWS OF MATHEMATICS REFER TO REALITY,
 THEY ARE NOT CERTAIN; AND AS FAR AS THEY ARE CERTAIN,
 THEY DO NOT REFER TO REALITY.

                                         -- ALBERT EINSTEIN
 Job cpu time:       0 days  1 hours 57 minutes 20.9 seconds.
 Elapsed time:       0 days  0 hours  9 minutes 47.5 seconds.
 File lengths (MBytes):  RWF=    182 Int=      0 D2E=      0 Chk=     32 Scr=      1
 Normal termination of Gaussian 16 at Fri Jun 10 12:56:53 2022.
