 Entering Gaussian System, Link 0=g16
 Input=ts_zmat_field_N100.gjf
 Output=ts_zmat_field_N100.out
 Initial command:
 /software/gaussian/g16-a03/l1.exe "/local_scratch/11172308/Gau-13321.inp" -scrdir="/local_scratch/11172308/"
 Entering Link 1 = /software/gaussian/g16-a03/l1.exe PID=     13322.
  
 Copyright (c) 1988,1990,1992,1993,1995,1998,2003,2009,2016,
            Gaussian, Inc.  All Rights Reserved.
  
 This is part of the Gaussian(R) 16 program.  It is based on
 the Gaussian(R) 09 system (copyright 2009, Gaussian, Inc.),
 the Gaussian(R) 03 system (copyright 2003, Gaussian, Inc.),
 the Gaussian(R) 98 system (copyright 1998, Gaussian, Inc.),
 the Gaussian(R) 94 system (copyright 1995, Gaussian, Inc.),
 the Gaussian 92(TM) system (copyright 1992, Gaussian, Inc.),
 the Gaussian 90(TM) system (copyright 1990, Gaussian, Inc.),
 the Gaussian 88(TM) system (copyright 1988, Gaussian, Inc.),
 the Gaussian 86(TM) system (copyright 1986, Carnegie Mellon
 University), and the Gaussian 82(TM) system (copyright 1983,
 Carnegie Mellon University). Gaussian is a federally registered
 trademark of Gaussian, Inc.
  
 This software contains proprietary and confidential information,
 including trade secrets, belonging to Gaussian, Inc.
  
 This software is provided under written license and may be
 used, copied, transmitted, or stored only in accord with that
 written license.
  
 The following legend is applicable only to US Government
 contracts under FAR:
  
                    RESTRICTED RIGHTS LEGEND
  
 Use, reproduction and disclosure by the US Government is
 subject to restrictions as set forth in subparagraphs (a)
 and (c) of the Commercial Computer Software - Restricted
 Rights clause in FAR 52.227-19.
  
 Gaussian, Inc.
 340 Quinnipiac St., Bldg. 40, Wallingford CT 06492
  
  
 ---------------------------------------------------------------
 Warning -- This program may not be used in any manner that
 competes with the business of Gaussian, Inc. or will provide
 assistance to any competitor of Gaussian, Inc.  The licensee
 of this program is prohibited from giving any competitor of
 Gaussian, Inc. access to this program.  By using this program,
 the user acknowledges that Gaussian, Inc. is engaged in the
 business of creating and licensing software in the field of
 computational chemistry and represents and warrants to the
 licensee that it is not a competitor of Gaussian, Inc. and that
 it will not use this program in any manner prohibited above.
 ---------------------------------------------------------------
  

 Cite this work as:
 Gaussian 16, Revision A.03,
 M. J. Frisch, G. W. Trucks, H. B. Schlegel, G. E. Scuseria, 
 M. A. Robb, J. R. Cheeseman, G. Scalmani, V. Barone, 
 G. A. Petersson, H. Nakatsuji, X. Li, M. Caricato, A. V. Marenich, 
 J. Bloino, B. G. Janesko, R. Gomperts, B. Mennucci, H. P. Hratchian, 
 J. V. Ortiz, A. F. Izmaylov, J. L. Sonnenberg, D. Williams-Young, 
 F. Ding, F. Lipparini, F. Egidi, J. Goings, B. Peng, A. Petrone, 
 T. Henderson, D. Ranasinghe, V. G. Zakrzewski, J. Gao, N. Rega, 
 G. Zheng, W. Liang, M. Hada, M. Ehara, K. Toyota, R. Fukuda, 
 J. Hasegawa, M. Ishida, T. Nakajima, Y. Honda, O. Kitao, H. Nakai, 
 T. Vreven, K. Throssell, J. A. Montgomery, Jr., J. E. Peralta, 
 F. Ogliaro, M. J. Bearpark, J. J. Heyd, E. N. Brothers, K. N. Kudin, 
 V. N. Staroverov, T. A. Keith, R. Kobayashi, J. Normand, 
 K. Raghavachari, A. P. Rendell, J. C. Burant, S. S. Iyengar, 
 J. Tomasi, M. Cossi, J. M. Millam, M. Klene, C. Adamo, R. Cammi, 
 J. W. Ochterski, R. L. Martin, K. Morokuma, O. Farkas, 
 J. B. Foresman, and D. J. Fox, Gaussian, Inc., Wallingford CT, 2016.
 
 ******************************************
 Gaussian 16:  ES64L-G16RevA.03 25-Dec-2016
                10-Jun-2022 
 ******************************************
 %nprocshared=12
 Will use up to   12 processors via shared memory.
 %chk=checkpoint.chk
 %mem=12GB
 ----------------------------------------------------------------------
 # Opt=(TS, CalcFC, noeigentest, Z-matrix, MaxStep=10) geom=allcheckpoi
 nt guess=read Field=read NoSymm B3LYP/Def2TZVP freq=noraman pop=none
 ----------------------------------------------------------------------
 1/5=1,8=10,10=4,11=1,18=40,26=3,29=7,38=1/1,3;
 2/12=2,15=1,29=3,40=1/2;
 3/5=44,7=101,11=2,14=-6,25=1,30=1,71=2,74=-5,116=-2,140=1/1,2,3;
 4/5=1/1;
 5/5=2,38=6/2;
 8/6=4,10=90,11=11/1;
 11/6=1,8=1,9=11,15=111,16=1,31=1/1,2,10;
 10/6=1,13=1,31=1/2;
 7/10=1,18=20,25=1,30=1/1,2,3,16;
 1/5=1,8=10,10=4,11=1,18=40,26=3/3(2);
 2/15=1,29=3/2;
 99//99;
 2/15=1,29=3/2;
 3/5=44,7=101,11=2,14=-2,25=1,30=1,71=1,74=-5/1,2,3;
 4/5=5,16=3,69=1/1;
 5/5=2,38=5/2;
 7/30=1/1,2,3,16;
 1/5=1,8=10,11=1,18=40,26=3/3(-5);
 2/15=1,29=3/2;
 99/9=1/99;
 Structure from the checkpoint file:  "checkpoint.chk"
 -----------------
 ts_zmat_initalOpt
 -----------------
 Charge =  0 Multiplicity = 1
 Z-Matrix found in chk file.
 C
 C,1,R2
 C,1,R3,2,A3
 N,1,R4,2,A4,3,D4,0
 C,3,R5,1,A5,2,D5,0
 H,2,R6,1,A6,3,D6,0
 H,3,R7,1,A7,5,D7,0
 C,2,R8,1,A8,6,D8,0
 C,4,R9,1,A9,2,D9,0
 H,4,R10,1,A10,9,D10,0
 C,5,R11,3,A11,1,D11,0
 H,5,R12,3,A12,11,D12,0
 H,8,R13,2,A13,1,D13,0
 H,9,R14,4,A14,1,D14,0
 C,11,R15,5,A15,3,D15,0
 H,11,R16,5,A16,15,D16,0
 O,15,R17,11,A17,5,D17,0
      Variables:
 R2=1.41295248
 R3=1.42043012
 R4=1.35770111
 R5=1.36186231
 R6=1.08182543
 R7=1.08147898
 R8=1.44196886
 R9=1.38559404
 R10=1.00757549
 R11=1.42736007
 R12=1.08351546
 R13=1.07717739
 R14=1.07684211
 R15=1.36394406
 R16=1.08675104
 R17=1.18685011
 A3=125.28336274
 A4=107.41942019
 A5=118.15862241
 A6=120.6276092
 A7=121.03838928
 A8=106.42908234
 A9=110.18148732
 A10=124.50154768
 A11=127.36677027
 A12=117.36734148
 A13=126.70914873
 A14=120.41543415
 A15=128.76976596
 A16=117.58296765
 A17=146.24352151
 D4=-172.9570021
 D5=-28.56358373
 D6=-40.23882507
 D7=-172.41723722
 D8=-146.65593737
 D9=0.19606542
 D10=174.34418891
 D11=-1.26452441
 D12=-174.68851163
 D13=177.91495297
 D14=179.93553054
 D15=3.16312158
 D16=-167.16298586
 D17=176.77712957
 Recover connectivity data from disk.

 GradGradGradGradGradGradGradGradGradGradGradGradGradGradGradGradGradGrad
 Berny optimization.
 Initialization pass.
                       ----------------------------
                       !    Initial Parameters    !
                       ! (Angstroms and Degrees)  !
 ----------------------                            ----------------------
 !      Name          Value   Derivative information (Atomic Units)     !
 ------------------------------------------------------------------------
 !       R2          1.413    calculate D2E/DX2 analytically            !
 !       R3          1.4204   calculate D2E/DX2 analytically            !
 !       R4          1.3577   calculate D2E/DX2 analytically            !
 !       R5          1.3619   calculate D2E/DX2 analytically            !
 !       R6          1.0818   calculate D2E/DX2 analytically            !
 !       R7          1.0815   calculate D2E/DX2 analytically            !
 !       R8          1.442    calculate D2E/DX2 analytically            !
 !       R9          1.3856   calculate D2E/DX2 analytically            !
 !       R10         1.0076   calculate D2E/DX2 analytically            !
 !       R11         1.4274   calculate D2E/DX2 analytically            !
 !       R12         1.0835   calculate D2E/DX2 analytically            !
 !       R13         1.0772   calculate D2E/DX2 analytically            !
 !       R14         1.0768   calculate D2E/DX2 analytically            !
 !       R15         1.3639   calculate D2E/DX2 analytically            !
 !       R16         1.0868   calculate D2E/DX2 analytically            !
 !       R17         1.1869   calculate D2E/DX2 analytically            !
 !       A3        125.2834   calculate D2E/DX2 analytically            !
 !       A4        107.4194   calculate D2E/DX2 analytically            !
 !       A5        118.1586   calculate D2E/DX2 analytically            !
 !       A6        120.6276   calculate D2E/DX2 analytically            !
 !       A7        121.0384   calculate D2E/DX2 analytically            !
 !       A8        106.4291   calculate D2E/DX2 analytically            !
 !       A9        110.1815   calculate D2E/DX2 analytically            !
 !       A10       124.5015   calculate D2E/DX2 analytically            !
 !       A11       127.3668   calculate D2E/DX2 analytically            !
 !       A12       117.3673   calculate D2E/DX2 analytically            !
 !       A13       126.7091   calculate D2E/DX2 analytically            !
 !       A14       120.4154   calculate D2E/DX2 analytically            !
 !       A15       128.7698   calculate D2E/DX2 analytically            !
 !       A16       117.583    calculate D2E/DX2 analytically            !
 !       A17       146.2435   calculate D2E/DX2 analytically            !
 !       D4       -172.957    calculate D2E/DX2 analytically            !
 !       D5        -28.5636   calculate D2E/DX2 analytically            !
 !       D6        -40.2388   calculate D2E/DX2 analytically            !
 !       D7       -172.4172   calculate D2E/DX2 analytically            !
 !       D8       -146.6559   calculate D2E/DX2 analytically            !
 !       D9          0.1961   calculate D2E/DX2 analytically            !
 !       D10       174.3442   calculate D2E/DX2 analytically            !
 !       D11        -1.2645   calculate D2E/DX2 analytically            !
 !       D12      -174.6885   calculate D2E/DX2 analytically            !
 !       D13       177.915    calculate D2E/DX2 analytically            !
 !       D14       179.9355   calculate D2E/DX2 analytically            !
 !       D15         3.1631   calculate D2E/DX2 analytically            !
 !       D16      -167.163    calculate D2E/DX2 analytically            !
 !       D17       176.7771   calculate D2E/DX2 analytically            !
 ------------------------------------------------------------------------
 Trust Radius=1.00D-01 FncErr=1.00D-07 GrdErr=1.00D-06 EigMax=2.50D+02 EigMin=1.00D-04
 Number of steps in this run=     55 maximum allowed number of steps=    100.
 Search for a saddle point of order  1.
 GradGradGradGradGradGradGradGradGradGradGradGradGradGradGradGradGradGrad

 ---------------------------------------------------------------------------------------------------
                            Z-MATRIX (ANGSTROMS AND DEGREES)
   CD    Cent   Atom    N1       Length/X        N2       Alpha/Y        N3        Beta/Z          J
 ---------------------------------------------------------------------------------------------------
      1      1  C 
      2      2  C        1   1.412952(     1)
      3      3  C        1   1.420430(     2)      2  125.283(    17)
      4      4  N        1   1.357701(     3)      2  107.419(    18)      3 -172.957(    32)      0
      5      5  C        3   1.361862(     4)      1  118.159(    19)      2  -28.564(    33)      0
      6      6  H        2   1.081825(     5)      1  120.628(    20)      3  -40.239(    34)      0
      7      7  H        3   1.081479(     6)      1  121.038(    21)      5 -172.417(    35)      0
      8      8  C        2   1.441969(     7)      1  106.429(    22)      6 -146.656(    36)      0
      9      9  C        4   1.385594(     8)      1  110.181(    23)      2    0.196(    37)      0
     10     10  H        4   1.007575(     9)      1  124.502(    24)      9  174.344(    38)      0
     11     11  C        5   1.427360(    10)      3  127.367(    25)      1   -1.265(    39)      0
     12     12  H        5   1.083515(    11)      3  117.367(    26)     11 -174.689(    40)      0
     13     13  H        8   1.077177(    12)      2  126.709(    27)      1  177.915(    41)      0
     14     14  H        9   1.076842(    13)      4  120.415(    28)      1  179.936(    42)      0
     15     15  C       11   1.363944(    14)      5  128.770(    29)      3    3.163(    43)      0
     16     16  H       11   1.086751(    15)      5  117.583(    30)     15 -167.163(    44)      0
     17     17  O       15   1.186850(    16)     11  146.244(    31)      5  176.777(    45)      0
 ---------------------------------------------------------------------------------------------------
                         Z-Matrix orientation:                         
 ---------------------------------------------------------------------
 Center     Atomic      Atomic             Coordinates (Angstroms)
 Number     Number       Type             X           Y           Z
 ---------------------------------------------------------------------
      1          6           0        0.000000    0.000000    0.000000
      2          6           0        0.000000    0.000000    1.412952
      3          6           0        1.159505    0.000000   -0.820470
      4          7           0       -1.285661    0.158839   -0.406447
      5          6           0        2.293254    0.574085   -0.330869
      6          1           0        0.710616   -0.601343    1.964095
      7          1           0        1.114939   -0.331787   -1.848832
      8          6           0       -1.373092    0.166035    1.820782
      9          6           0       -2.124164    0.266917    0.691324
     10          1           0       -1.570827    0.273676   -1.365979
     11          6           0        2.462815    1.217156    0.932090
     12          1           0        3.150150    0.627116   -0.991870
     13          1           0       -1.747684    0.179684    2.830636
     14          1           0       -3.184278    0.399603    0.556627
     15          6           0        1.563964    1.352846    1.948946
     16          1           0        3.337978    1.848225    1.061970
     17          8           0        1.374299    1.746945    3.052272
 ---------------------------------------------------------------------
                    Distance matrix (angstroms):
                    1          2          3          4          5
     1  C    0.000000
     2  C    1.412952   0.000000
     3  C    1.420430   2.516471   0.000000
     4  N    1.357701   2.233465   2.485051   0.000000
     5  C    2.387061   2.937601   1.361862   3.603716   0.000000
     6  H    2.173536   1.081825   2.883906   3.190998   3.025431
     7  H    2.184342   3.463006   1.081479   2.843249   2.124438
     8  C    2.286525   1.441969   3.663035   2.228956   4.270621
     9  C    2.249722   2.259218   3.624810   1.385594   4.544537
    10  H    2.099594   3.203881   2.797711   1.007575   4.011585
    11  C    2.900986   2.788935   2.500310   4.118590   1.427360
    12  H    3.361626   4.012467   2.094116   4.498713   1.083515
    13  H    3.331544   2.257546   4.670611   3.269956   5.145857
    14  H    3.257167   3.321536   4.574333   2.142481   5.551706
    15  C    2.841578   2.136226   3.108608   3.885086   2.517120
    16  H    3.960532   3.831609   3.421295   5.136956   2.157518
    17  O    3.775828   2.761862   4.253949   4.643297   3.696718
                    6          7          8          9         10
     6  H    0.000000
     7  H    3.843767   0.000000
     8  C    2.225139   4.461411   0.000000
     9  C    3.226422   4.159643   1.360133   0.000000
    10  H    4.130379   2.795187   3.194704   2.130428   0.000000
    11  C    2.728035   3.456807   4.075391   4.690555   4.737250
    12  H    4.024695   2.407480   5.346338   5.548088   4.748947
    13  H    2.721054   5.509413   1.077177   2.173938   4.201392
    14  H    4.260640   4.980404   2.221044   1.076842   2.513064
    15  C    2.132437   4.178843   3.170369   4.045138   4.688310
    16  H    3.703680   4.262290   5.059619   5.698501   5.698290
    17  O    2.671902   5.330029   3.400588   4.472561   5.510465
                   11         12         13         14         15
    11  C    0.000000
    12  H    2.126546   0.000000
    13  H    4.733828   6.229007   0.000000
    14  H    5.718306   6.524920   2.698756   0.000000
    15  C    1.363944   3.419221   3.622250   5.039149   0.000000
    16  H    1.086751   2.396799   5.637036   6.700276   2.044323
    17  O    2.441457   4.556616   3.500316   5.368817   1.186850
                   16         17
    16  H    0.000000
    17  O    2.797784   0.000000
 Symmetry turned off by external request.
 Stoichiometry    C8H7NO
 Framework group  C1[X(C8H7NO)]
 Deg. of freedom    45
 Full point group                 C1      NOp   1
 Rotational constants (GHZ):           2.1549219           1.3511656           0.8719347
 Standard basis: def2TZVP (5D, 7F)
 The following finite field(s) will be applied:
 An electric field of              0.0001  0.0037  0.0093
   352 basis functions,   566 primitive gaussians,   402 cartesian basis functions
    35 alpha electrons       35 beta electrons
       nuclear repulsion energy       478.9243143507 Hartrees.
 NAtoms=   17 NActive=   17 NUniq=   17 SFac= 1.00D+00 NAtFMM=   60 NAOKFM=F Big=F
 Integral buffers will be    131072 words long.
 Raffenetti 2 integral format.
 Two-electron integral symmetry is turned off.
 One-electron integrals computed using PRISM.
   1 Symmetry operations used in ECPInt.
 ECPInt:  NShTT=    9591 NPrTT=   29644 LenC2=    9325 LenP2D=   22696.
 LDataN:  DoStor=T MaxTD1= 6 Len=  172
 NBasis=   352 RedAO= T EigKep=  3.60D-05  NBF=   352
 NBsUse=   352 1.00D-06 EigRej= -1.00D+00 NBFU=   352
 The nuclear repulsion energy is now       480.2129553510 hartrees.
 Initial guess from the checkpoint file:  "checkpoint.chk"
 B after Tr=     0.000000    0.000000    0.000000
         Rot=    1.000000    0.000000    0.000000    0.000000 Ang=   0.00 deg.
 Requested convergence on RMS density matrix=1.00D-08 within 128 cycles.
 Requested convergence on MAX density matrix=1.00D-06.
 Requested convergence on             energy=1.00D-06.
 No special actions if energy rises.
 SCF Done:  E(RB3LYP) =  -439.155237449     A.U. after   11 cycles
            NFock= 11  Conv=0.40D-08     -V/T= 2.0050
 DoSCS=F DFT=T ScalE2(SS,OS)=  1.000000  1.000000
 Range of M.O.s used for correlation:     1   352
 NBasis=   352 NAE=    35 NBE=    35 NFC=     0 NFV=     0
 NROrb=    352 NOA=    35 NOB=    35 NVA=   317 NVB=   317

 **** Warning!!: The largest alpha MO coefficient is  0.29673948D+02

   1 Symmetry operations used in ECPInt.
 ECPInt:  NShTT=    9591 NPrTT=   29644 LenC2=    9325 LenP2D=   22696.
 LDataN:  DoStor=T MaxTD1= 7 Len=  274
 Symmetrizing basis deriv contribution to polar:
 IMax=3 JMax=2 DiffMx= 0.00D+00
 G2DrvN: will do    18 centers at a time, making    1 passes.
 Calling FoFCou, ICntrl=  3107 FMM=F I1Cent=   0 AccDes= 0.00D+00.
 End of G2Drv F.D. properties file   721 does not exist.
 End of G2Drv F.D. properties file   722 does not exist.
 End of G2Drv F.D. properties file   788 does not exist.
          IDoAtm=11111111111111111
          Differentiating once with respect to nuclear coordinates.
 CalDSu exits because no D1Ps are significant.
          There are    54 degrees of freedom in the 1st order CPHF.  IDoFFX=6 NUNeed=     0.
     48 vectors produced by pass  0 Test12= 2.05D-14 1.85D-09 XBig12= 1.66D-01 1.13D-01.
 AX will form    48 AO Fock derivatives at one time.
     48 vectors produced by pass  1 Test12= 2.05D-14 1.85D-09 XBig12= 4.59D-02 5.21D-02.
     48 vectors produced by pass  2 Test12= 2.05D-14 1.85D-09 XBig12= 3.61D-04 3.29D-03.
     48 vectors produced by pass  3 Test12= 2.05D-14 1.85D-09 XBig12= 2.02D-06 1.63D-04.
     48 vectors produced by pass  4 Test12= 2.05D-14 1.85D-09 XBig12= 7.03D-09 1.14D-05.
     48 vectors produced by pass  5 Test12= 2.05D-14 1.85D-09 XBig12= 1.37D-11 4.56D-07.
     22 vectors produced by pass  6 Test12= 2.05D-14 1.85D-09 XBig12= 2.45D-14 1.77D-08.
 InvSVY:  IOpt=1 It=  1 EMax= 4.44D-16
 Solved reduced A of dimension   310 with    54 vectors.
 End of Minotr F.D. properties file   721 does not exist.
 End of Minotr F.D. properties file   722 does not exist.
 End of Minotr F.D. properties file   788 does not exist.
   1 Symmetry operations used in ECPInt.
 ECPInt:  NShTT=    9591 NPrTT=   29644 LenC2=    9325 LenP2D=   22696.
 LDataN:  DoStor=T MaxTD1= 8 Len=  415
 Calling FoFJK, ICntrl=    100147 FMM=F ISym2X=0 I1Cent= 0 IOpClX= 0 NMat=1 NMatS=1 NMatT=0.
 -------------------------------------------------------------------
 Center     Atomic                   Forces (Hartrees/Bohr)
 Number     Number              X              Y              Z
 -------------------------------------------------------------------
      1        6           0.001864897   -0.001883496   -0.000919854
      2        6          -0.001001692    0.001932127    0.001103564
      3        6           0.000276135    0.001311368    0.000268844
      4        7           0.000240490    0.000146164    0.000933727
      5        6          -0.000234808   -0.000790915   -0.001176111
      6        1          -0.000087965   -0.000383887   -0.000219261
      7        1           0.000030474   -0.000033821   -0.000028437
      8        6          -0.000085993    0.000205464    0.000099963
      9        6           0.000422732   -0.000010156   -0.000587681
     10        1          -0.000184830   -0.000351133   -0.000661444
     11        6          -0.000814280    0.000486172    0.002023452
     12        1          -0.000151531   -0.000071590   -0.000127065
     13        1          -0.000129181   -0.000099632    0.000115760
     14        1          -0.000010897   -0.000142286   -0.000184945
     15        6          -0.000130154   -0.002361329   -0.005870632
     16        1           0.000214504    0.000092494   -0.000143089
     17        8          -0.000217901    0.001954455    0.005373210
 -------------------------------------------------------------------
 Cartesian Forces:  Max     0.005870632 RMS     0.001386895
 -----------------------------------------------------------------------------------------------
                       Internal Coordinate Forces (Hartree/Bohr or radian)
  Cent   Atom   N1       Length/X         N2         Alpha/Y        N3         Beta/Z          J
 -----------------------------------------------------------------------------------------------
      1  C 
      2  C        1   0.001100(     1)
      3  C        1  -0.001024(     2)      2  -0.002638(    17)
      4  N        1  -0.000335(     3)      2   0.002454(    18)      3  -0.001403(    32)     0
      5  C        3  -0.001373(     4)      1  -0.004150(    19)      2   0.001110(    33)     0
      6  H        2   0.000044(     5)      1  -0.000574(    20)      3  -0.000749(    34)     0
      7  H        3   0.000036(     6)      1   0.000054(    21)      5  -0.000052(    35)     0
      8  C        2   0.000278(     7)      1   0.000249(    22)      6  -0.000133(    36)     0
      9  C        4  -0.000873(     8)      1   0.000724(    23)      2   0.000376(    37)     0
     10  H        4   0.000642(     9)      1  -0.000073(    24)      9   0.000668(    38)     0
     11  C        5   0.001188(    10)      3  -0.003137(    25)      1   0.000873(    39)     0
     12  H        5  -0.000046(    11)      3  -0.000417(    26)     11   0.000045(    40)     0
     13  H        8   0.000152(    12)      2   0.000135(    27)      1  -0.000182(    41)     0
     14  H        9   0.000016(    13)      4  -0.000376(    28)      1   0.000249(    42)     0
     15  C       11  -0.000182(    14)      5  -0.000317(    29)      3   0.000281(    43)     0
     16  H       11   0.000209(    15)      5  -0.000362(    30)     15   0.000016(    44)     0
     17  O       15   0.005679(    16)     11  -0.001524(    31)      5  -0.000207(    45)     0
 -----------------------------------------------------------------------------------------------
 Internal  Forces:  Max     0.005678877 RMS     0.001402258

 GradGradGradGradGradGradGradGradGradGradGradGradGradGradGradGradGradGrad
 Berny optimization.
 Search for a saddle point.
 Step number   1 out of a maximum of   55
 All quantities printed in internal units (Hartrees-Bohrs-Radians)
 Swapping is turned off.
 Second derivative matrix not updated -- analytic derivatives used.
 ITU=  0
     Eigenvalues ---   -0.19784   0.01555   0.02010   0.02334   0.03445
     Eigenvalues ---    0.04701   0.04999   0.05576   0.06704   0.08029
     Eigenvalues ---    0.10622   0.14287   0.15300   0.16120   0.17227
     Eigenvalues ---    0.18975   0.19126   0.21130   0.21789   0.23002
     Eigenvalues ---    0.27279   0.30615   0.31989   0.33615   0.35137
     Eigenvalues ---    0.35405   0.35751   0.36622   0.36856   0.37139
     Eigenvalues ---    0.37522   0.40004   0.40431   0.46431   0.48283
     Eigenvalues ---    0.49610   0.53224   0.55702   0.61173   0.76665
     Eigenvalues ---    0.89345   1.65169   2.05260   2.22990  16.17542
 Eigenvectors required to have negative eigenvalues:
                          A17       A5        D6        D8        A3
   1                    0.64122   0.30281   0.29884  -0.24184   0.23288
                          A15       R15       A6        A11       R17
   1                    0.22458  -0.21235   0.15954   0.15598  -0.14021
 RFO step:  Lambda0=1.133261183D-04 Lambda=-1.46489647D-04.
 Linear search not attempted -- option 19 set.
 Variable       Old X    -DE/DX   Delta X   Delta X   Delta X     New X
                                 (Linear)    (Quad)   (Total)
    R2        2.67009   0.00110   0.00000  -0.00154  -0.00154   2.66855
    R3        2.68422  -0.00102   0.00000   0.00257   0.00257   2.68679
    R4        2.56568  -0.00033   0.00000  -0.00156  -0.00156   2.56413
    R5        2.57355  -0.00137   0.00000  -0.00397  -0.00397   2.56958
    R6        2.04435   0.00004   0.00000  -0.00092  -0.00092   2.04343
    R7        2.04370   0.00004   0.00000   0.00031   0.00031   2.04401
    R8        2.72493   0.00028   0.00000  -0.00123  -0.00123   2.72369
    R9        2.61839  -0.00087   0.00000  -0.00335  -0.00335   2.61505
   R10        1.90404   0.00064   0.00000   0.00134   0.00134   1.90538
   R11        2.69732   0.00119   0.00000   0.00711   0.00711   2.70443
   R12        2.04755  -0.00005   0.00000  -0.00034  -0.00034   2.04721
   R13        2.03557   0.00015   0.00000   0.00048   0.00048   2.03605
   R14        2.03494   0.00002   0.00000   0.00001   0.00001   2.03495
   R15        2.57748  -0.00018   0.00000  -0.00720  -0.00720   2.57028
   R16        2.05366   0.00021   0.00000   0.00093   0.00093   2.05459
   R17        2.24282   0.00568   0.00000   0.00482   0.00482   2.24764
    A3        2.18661  -0.00264   0.00000   0.00024   0.00024   2.18685
    A4        1.87482   0.00245   0.00000   0.00181   0.00181   1.87663
    A5        2.06226  -0.00415   0.00000   0.00176   0.00176   2.06401
    A6        2.10535  -0.00057   0.00000   0.00290   0.00290   2.10824
    A7        2.11252   0.00005   0.00000  -0.00059  -0.00059   2.11193
    A8        1.85754   0.00025   0.00000  -0.00131  -0.00131   1.85623
    A9        1.92303   0.00072   0.00000  -0.00019  -0.00019   1.92283
   A10        2.17296  -0.00007   0.00000   0.00063   0.00063   2.17359
   A11        2.22297  -0.00314   0.00000  -0.00089  -0.00089   2.22208
   A12        2.04845  -0.00042   0.00000   0.00075   0.00075   2.04920
   A13        2.21149   0.00014   0.00000   0.00137   0.00137   2.21286
   A14        2.10165  -0.00038   0.00000  -0.00075  -0.00075   2.10090
   A15        2.24746  -0.00032   0.00000   0.00723   0.00723   2.25469
   A16        2.05221  -0.00036   0.00000  -0.00397  -0.00397   2.04824
   A17        2.55243  -0.00152   0.00000   0.01050   0.01050   2.56293
    D4       -3.01867  -0.00140   0.00000  -0.01189  -0.01189  -3.03056
    D5       -0.49853   0.00111   0.00000  -0.01096  -0.01096  -0.50949
    D6       -0.70230  -0.00075   0.00000   0.02371   0.02371  -0.67859
    D7       -3.00925  -0.00005   0.00000  -0.00624  -0.00624  -3.01548
    D8       -2.55963  -0.00013   0.00000  -0.01146  -0.01146  -2.57109
    D9        0.00342   0.00038   0.00000  -0.00158  -0.00158   0.00184
   D10        3.04288   0.00067   0.00000   0.02512   0.02512   3.06800
   D11       -0.02207   0.00087   0.00000  -0.00159  -0.00159  -0.02366
   D12       -3.04889   0.00005   0.00000  -0.00176  -0.00176  -3.05065
   D13        3.10520  -0.00018   0.00000  -0.00426  -0.00426   3.10094
   D14        3.14047   0.00025   0.00000   0.00526   0.00526   3.14573
   D15        0.05521   0.00028   0.00000   0.00715   0.00715   0.06236
   D16       -2.91754   0.00002   0.00000  -0.00667  -0.00667  -2.92422
   D17        3.08534  -0.00021   0.00000  -0.01459  -0.01459   3.07076
         Item               Value     Threshold  Converged?
 Maximum Force            0.005679     0.000450     NO 
 RMS     Force            0.001402     0.000300     NO 
 Maximum Displacement     0.025117     0.001800     NO 
 RMS     Displacement     0.007236     0.001200     NO 
 Predicted change in Energy=-1.668019D-05
 GradGradGradGradGradGradGradGradGradGradGradGradGradGradGradGradGradGrad

 ---------------------------------------------------------------------------------------------------
                            Z-MATRIX (ANGSTROMS AND DEGREES)
   CD    Cent   Atom    N1       Length/X        N2       Alpha/Y        N3        Beta/Z          J
 ---------------------------------------------------------------------------------------------------
      1      1  C 
      2      2  C        1   1.412137(     1)
      3      3  C        1   1.421790(     2)      2  125.297(    17)
      4      4  N        1   1.356878(     3)      2  107.523(    18)      3 -173.638(    32)      0
      5      5  C        3   1.359761(     4)      1  118.259(    19)      2  -29.191(    33)      0
      6      6  H        2   1.081338(     5)      1  120.794(    20)      3  -38.880(    34)      0
      7      7  H        3   1.081641(     6)      1  121.005(    21)      5 -172.775(    35)      0
      8      8  C        2   1.441316(     7)      1  106.354(    22)      6 -147.312(    36)      0
      9      9  C        4   1.383823(     8)      1  110.170(    23)      2    0.106(    37)      0
     10     10  H        4   1.008284(     9)      1  124.538(    24)      9  175.783(    38)      0
     11     11  C        5   1.431122(    10)      3  127.316(    25)      1   -1.356(    39)      0
     12     12  H        5   1.083337(    11)      3  117.410(    26)     11 -174.789(    40)      0
     13     13  H        8   1.077433(    12)      2  126.788(    27)      1  177.671(    41)      0
     14     14  H        9   1.076850(    13)      4  120.373(    28)      1  180.237(    42)      0
     15     15  C       11   1.360133(    14)      5  129.184(    29)      3    3.573(    43)      0
     16     16  H       11   1.087244(    15)      5  117.356(    30)     15 -167.545(    44)      0
     17     17  O       15   1.189399(    16)     11  146.845(    31)      5  175.941(    45)      0
 ---------------------------------------------------------------------------------------------------
                         Z-Matrix orientation:                         
 ---------------------------------------------------------------------
 Center     Atomic      Atomic             Coordinates (Angstroms)
 Number     Number       Type             X           Y           Z
 ---------------------------------------------------------------------
      1          6           0        0.000000    0.000000    0.000000
      2          6           0        0.000000    0.000000    1.412137
      3          6           0        1.160416    0.000000   -0.821537
      4          7           0       -1.285945    0.143367   -0.408544
      5          6           0        2.290017    0.584150   -0.340165
      6          1           0        0.723101   -0.583059    1.965724
      7          1           0        1.118341   -0.346787   -1.845215
      8          6           0       -1.374931    0.149189    1.817968
      9          6           0       -2.126589    0.239497    0.686464
     10          1           0       -1.573207    0.235308   -1.370659
     11          6           0        2.456896    1.243119    0.919209
     12          1           0        3.146741    0.633266   -1.001400
     13          1           0       -1.752875    0.154925    2.826922
     14          1           0       -3.188467    0.354368    0.549258
     15          6           0        1.569298    1.382763    1.940303
     16          1           0        3.330041    1.879990    1.038001
     17          8           0        1.377410    1.776836    3.045995
 ---------------------------------------------------------------------
                    Distance matrix (angstroms):
                    1          2          3          4          5
     1  C    0.000000
     2  C    1.412137   0.000000
     3  C    1.421790   2.517114   0.000000
     4  N    1.356878   2.233627   2.485115   0.000000
     5  C    2.387702   2.942104   1.359761   3.603674   0.000000
     6  H    2.174144   1.081338   2.880976   3.193918   3.022371
     7  H    2.185353   3.461400   1.081641   2.843390   2.122414
     8  C    2.284229   1.441316   3.662954   2.228297   4.275345
     9  C    2.247437   2.259722   3.624338   1.383823   4.547435
    10  H    2.099775   3.205355   2.798142   1.008284   4.013491
    11  C    2.902865   2.797259   2.501280   4.120830   1.431122
    12  H    3.362411   4.015989   2.092574   4.498909   1.083337
    13  H    3.329874   2.257917   4.671458   3.269006   5.153606
    14  H    3.254779   3.322117   4.573558   2.140443   5.554967
    15  C    2.852982   2.157241   3.115602   3.899436   2.521458
    16  H    3.962446   3.842332   3.420456   5.139618   2.158748
    17  O    3.785827   2.779190   4.261694   4.657845   3.704245
                    6          7          8          9         10
     6  H    0.000000
     7  H    3.838658   0.000000
     8  C    2.227052   4.458846   0.000000
     9  C    3.230146   4.157247   1.361414   0.000000
    10  H    4.132095   2.794365   3.195946   2.130258   0.000000
    11  C    2.726933   3.458550   4.085016   4.697847   4.743512
    12  H    4.019614   2.405605   5.350578   5.550851   4.751067
    13  H    2.723370   5.506765   1.077433   2.174484   4.202193
    14  H    4.264448   4.977320   2.222754   1.076850   2.511835
    15  C    2.140363   4.186269   3.194552   4.066787   4.706853
    16  H    3.704513   4.261817   5.073538   5.708731   5.705126
    17  O    2.676605   5.338616   3.425298   4.495421   5.530758
                   11         12         13         14         15
    11  C    0.000000
    12  H    2.129916   0.000000
    13  H    4.748232   6.236273   0.000000
    14  H    5.726855   6.528184   2.699715   0.000000
    15  C    1.360133   3.421065   3.651098   5.062503   0.000000
    16  H    1.087244   2.397306   5.657925   6.712476   2.039999
    17  O    2.444046   4.562859   3.532318   5.394845   1.189399
                   16         17
    16  H    0.000000
    17  O    2.802756   0.000000
 Symmetry turned off by external request.
 Stoichiometry    C8H7NO
 Framework group  C1[X(C8H7NO)]
 Deg. of freedom    45
 Full point group                 C1      NOp   1
 Rotational constants (GHZ):           2.1538051           1.3422009           0.8682632
 Standard basis: def2TZVP (5D, 7F)
 The following finite field(s) will be applied:
 An electric field of              0.0001  0.0037  0.0093
   352 basis functions,   566 primitive gaussians,   402 cartesian basis functions
    35 alpha electrons       35 beta electrons
       nuclear repulsion energy       478.3651602897 Hartrees.
 NAtoms=   17 NActive=   17 NUniq=   17 SFac= 1.00D+00 NAtFMM=   60 NAOKFM=F Big=F
 Integral buffers will be    131072 words long.
 Raffenetti 2 integral format.
 Two-electron integral symmetry is turned off.
 One-electron integrals computed using PRISM.
   1 Symmetry operations used in ECPInt.
 ECPInt:  NShTT=    9591 NPrTT=   29644 LenC2=    9324 LenP2D=   22689.
 LDataN:  DoStor=T MaxTD1= 6 Len=  172
 NBasis=   352 RedAO= T EigKep=  3.62D-05  NBF=   352
 NBsUse=   352 1.00D-06 EigRej= -1.00D+00 NBFU=   352
 The nuclear repulsion energy is now       479.6489576480 hartrees.
 Initial guess from the checkpoint file:  "checkpoint.chk"
 B after Tr=     0.006855   -0.011053   -0.002015
         Rot=    0.999984    0.002940   -0.000831   -0.004802 Ang=   0.65 deg.
 ExpMin= 9.52D-02 ExpMax= 2.70D+04 ExpMxC= 9.22D+02 IAcc=2 IRadAn=         4 AccDes= 0.00D+00
 Harris functional with IExCor=  402 and IRadAn=       4 diagonalized for initial guess.
 HarFok:  IExCor=  402 AccDes= 0.00D+00 IRadAn=         4 IDoV= 1 UseB2=F ITyADJ=14
 ICtDFT=  3500011 ScaDFX=  1.000000  1.000000  1.000000  1.000000
 FoFCou: FMM=F IPFlag=           0 FMFlag=      100000 FMFlg1=           0
         NFxFlg=           0 DoJE=T BraDBF=F KetDBF=T FulRan=T
         wScrn=  0.000000 ICntrl=       500 IOpCl=  0 I1Cent=   200000004 NGrid=           0
         NMat0=    1 NMatS0=      1 NMatT0=    0 NMatD0=    1 NMtDS0=    0 NMtDT0=    0
 Symmetry not used in FoFCou.
 Requested convergence on RMS density matrix=1.00D-08 within 128 cycles.
 Requested convergence on MAX density matrix=1.00D-06.
 Requested convergence on             energy=1.00D-06.
 No special actions if energy rises.
 Integral accuracy reduced to 1.0D-05 until final iterations.
 Initial convergence to 1.0D-05 achieved.  Increase integral accuracy.
 SCF Done:  E(RB3LYP) =  -439.155253825     A.U. after   12 cycles
            NFock= 12  Conv=0.34D-08     -V/T= 2.0050
   1 Symmetry operations used in ECPInt.
 ECPInt:  NShTT=    9591 NPrTT=   29644 LenC2=    9324 LenP2D=   22689.
 LDataN:  DoStor=T MaxTD1= 7 Len=  274
 Calling FoFJK, ICntrl=      2127 FMM=F ISym2X=0 I1Cent= 0 IOpClX= 0 NMat=1 NMatS=1 NMatT=0.
 -------------------------------------------------------------------
 Center     Atomic                   Forces (Hartrees/Bohr)
 Number     Number              X              Y              Z
 -------------------------------------------------------------------
      1        6           0.002971288   -0.002707034   -0.000045198
      2        6          -0.002905441    0.001329632    0.000030016
      3        6          -0.000049787    0.001389259    0.000010653
      4        7          -0.000039201   -0.000003751   -0.000024546
      5        6           0.000041601    0.000005669    0.000014079
      6        1           0.000005430   -0.000011567   -0.000001993
      7        1          -0.000002039    0.000002111   -0.000001082
      8        6          -0.000020656    0.000002810    0.000005216
      9        6           0.000007547   -0.000001976    0.000018161
     10        1           0.000010699   -0.000004633   -0.000006955
     11        6           0.000025748    0.000001687   -0.000044872
     12        1           0.000002148   -0.000000941    0.000001016
     13        1           0.000001653    0.000001952    0.000001250
     14        1          -0.000000895   -0.000001414   -0.000000058
     15        6          -0.000051685   -0.000019856   -0.000015877
     16        1           0.000004055   -0.000001289   -0.000001682
     17        8          -0.000000465    0.000019339    0.000061871
 -------------------------------------------------------------------
 Cartesian Forces:  Max     0.002971288 RMS     0.000745144
 -----------------------------------------------------------------------------------------------
                       Internal Coordinate Forces (Hartree/Bohr or radian)
  Cent   Atom   N1       Length/X         N2         Alpha/Y        N3         Beta/Z          J
 -----------------------------------------------------------------------------------------------
      1  C 
      2  C        1   0.000034(     1)
      3  C        1  -0.000039(     2)      2  -0.000069(    17)
      4  N        1   0.000023(     3)      2  -0.000002(    18)      3  -0.000042(    32)     0
      5  C        3   0.000025(     4)      1  -0.000072(    19)      2   0.000020(    33)     0
      6  H        2   0.000009(     5)      1  -0.000016(    20)      3  -0.000018(    34)     0
      7  H        3   0.000000(     6)      1  -0.000003(    21)      5   0.000005(    35)     0
      8  C        2   0.000020(     7)      1   0.000006(    22)      6  -0.000008(    36)     0
      9  C        4   0.000010(     8)      1  -0.000043(    23)      2  -0.000001(    37)     0
     10  H        4   0.000003(     9)      1  -0.000024(    24)      9   0.000006(    38)     0
     11  C        5  -0.000003(    10)      3  -0.000061(    25)      1  -0.000001(    39)     0
     12  H        5   0.000001(    11)      3   0.000003(    26)     11  -0.000003(    40)     0
     13  H        8   0.000001(    12)      2  -0.000004(    27)      1   0.000004(    41)     0
     14  H        9   0.000001(    13)      4   0.000000(    28)      1   0.000003(    42)     0
     15  C       11   0.000069(    14)      5  -0.000011(    29)      3   0.000004(    43)     0
     16  H       11   0.000002(    15)      5  -0.000006(    30)     15  -0.000005(    44)     0
     17  O       15   0.000064(    16)     11  -0.000020(    31)      5  -0.000006(    45)     0
 -----------------------------------------------------------------------------------------------
 Internal  Forces:  Max     0.000071685 RMS     0.000027075

 GradGradGradGradGradGradGradGradGradGradGradGradGradGradGradGradGradGrad
 Berny optimization.
 Search for a saddle point.
 Step number   2 out of a maximum of   55
 All quantities printed in internal units (Hartrees-Bohrs-Radians)
 Swapping is turned off.
 Update second derivatives using D2CorN and points    1    2
 ITU=  0  0
     Eigenvalues ---   -0.19673   0.01552   0.02012   0.02329   0.03434
     Eigenvalues ---    0.04697   0.04998   0.05563   0.06704   0.08029
     Eigenvalues ---    0.10619   0.14287   0.15298   0.16120   0.17225
     Eigenvalues ---    0.18975   0.19126   0.21129   0.21790   0.23001
     Eigenvalues ---    0.27277   0.30617   0.31990   0.33615   0.35137
     Eigenvalues ---    0.35406   0.35751   0.36622   0.36855   0.37139
     Eigenvalues ---    0.37522   0.40006   0.40432   0.46431   0.48282
     Eigenvalues ---    0.49613   0.53223   0.55702   0.61171   0.76636
     Eigenvalues ---    0.89345   1.65168   2.05260   2.22990  16.17542
 Eigenvectors required to have negative eigenvalues:
                          A17       A5        D6        D8        A3
   1                    0.64203   0.30298   0.29766  -0.24173   0.23288
                          A15       R15       A6        A11       R17
   1                    0.22469  -0.21196   0.15961   0.15597  -0.14022
 RFO step:  Lambda0=6.342977395D-08 Lambda=-7.06442548D-08.
 Linear search not attempted -- option 19 set.
 Variable       Old X    -DE/DX   Delta X   Delta X   Delta X     New X
                                 (Linear)    (Quad)   (Total)
    R2        2.66855   0.00003   0.00000  -0.00001  -0.00001   2.66854
    R3        2.68679  -0.00004   0.00000  -0.00004  -0.00004   2.68675
    R4        2.56413   0.00002   0.00000   0.00009   0.00009   2.56422
    R5        2.56958   0.00002   0.00000   0.00004   0.00004   2.56962
    R6        2.04343   0.00001   0.00000   0.00000   0.00000   2.04343
    R7        2.04401   0.00000   0.00000   0.00001   0.00001   2.04401
    R8        2.72369   0.00002   0.00000  -0.00003  -0.00003   2.72367
    R9        2.61505   0.00001   0.00000  -0.00001  -0.00001   2.61504
   R10        1.90538   0.00000   0.00000   0.00000   0.00000   1.90539
   R11        2.70443  -0.00000   0.00000   0.00004   0.00004   2.70447
   R12        2.04721   0.00000   0.00000  -0.00000  -0.00000   2.04721
   R13        2.03605   0.00000   0.00000   0.00000   0.00000   2.03606
   R14        2.03495   0.00000   0.00000   0.00000   0.00000   2.03495
   R15        2.57028   0.00007   0.00000   0.00002   0.00002   2.57030
   R16        2.05459   0.00000   0.00000   0.00001   0.00001   2.05460
   R17        2.24764   0.00006   0.00000   0.00001   0.00001   2.24765
    A3        2.18685  -0.00007   0.00000  -0.00000  -0.00000   2.18685
    A4        1.87663  -0.00000   0.00000   0.00001   0.00001   1.87664
    A5        2.06401  -0.00007   0.00000   0.00009   0.00009   2.06410
    A6        2.10824  -0.00002   0.00000   0.00005   0.00005   2.10830
    A7        2.11193  -0.00000   0.00000  -0.00002  -0.00002   2.11190
    A8        1.85623   0.00001   0.00000   0.00001   0.00001   1.85624
    A9        1.92283  -0.00004   0.00000  -0.00005  -0.00005   1.92279
   A10        2.17359  -0.00002   0.00000  -0.00008  -0.00008   2.17352
   A11        2.22208  -0.00006   0.00000  -0.00001  -0.00001   2.22207
   A12        2.04920   0.00000   0.00000   0.00003   0.00003   2.04923
   A13        2.21286  -0.00000   0.00000   0.00000   0.00000   2.21287
   A14        2.10090   0.00000   0.00000  -0.00000  -0.00000   2.10090
   A15        2.25469  -0.00001   0.00000   0.00013   0.00013   2.25482
   A16        2.04824  -0.00001   0.00000  -0.00003  -0.00003   2.04821
   A17        2.56293  -0.00002   0.00000   0.00028   0.00028   2.56321
    D4       -3.03056  -0.00004   0.00000  -0.00042  -0.00042  -3.03099
    D5       -0.50949   0.00002   0.00000  -0.00022  -0.00022  -0.50971
    D6       -0.67859  -0.00002   0.00000   0.00071   0.00071  -0.67788
    D7       -3.01548   0.00000   0.00000  -0.00010  -0.00010  -3.01559
    D8       -2.57109  -0.00001   0.00000  -0.00037  -0.00037  -2.57146
    D9        0.00184  -0.00000   0.00000   0.00008   0.00008   0.00192
   D10        3.06800   0.00001   0.00000   0.00016   0.00016   3.06816
   D11       -0.02366  -0.00000   0.00000  -0.00018  -0.00018  -0.02385
   D12       -3.05065  -0.00000   0.00000   0.00003   0.00003  -3.05062
   D13        3.10094   0.00000   0.00000   0.00007   0.00007   3.10101
   D14        3.14573   0.00000   0.00000  -0.00001  -0.00001   3.14572
   D15        0.06236   0.00000   0.00000   0.00029   0.00029   0.06265
   D16       -2.92422  -0.00000   0.00000  -0.00025  -0.00025  -2.92447
   D17        3.07076  -0.00001   0.00000  -0.00047  -0.00047   3.07028
         Item               Value     Threshold  Converged?
 Maximum Force            0.000072     0.000450     YES
 RMS     Force            0.000027     0.000300     YES
 Maximum Displacement     0.000711     0.001800     YES
 RMS     Displacement     0.000180     0.001200     YES
 Predicted change in Energy=-3.607230D-09
 Optimization completed.
    -- Stationary point found.
                       ----------------------------
                       !   Optimized Parameters   !
                       ! (Angstroms and Degrees)  !
 ----------------------                            ----------------------
 !      Name          Value   Derivative information (Atomic Units)     !
 ------------------------------------------------------------------------
 !       R2          1.4121   -DE/DX =    0.0                           !
 !       R3          1.4218   -DE/DX =    0.0                           !
 !       R4          1.3569   -DE/DX =    0.0                           !
 !       R5          1.3598   -DE/DX =    0.0                           !
 !       R6          1.0813   -DE/DX =    0.0                           !
 !       R7          1.0816   -DE/DX =    0.0                           !
 !       R8          1.4413   -DE/DX =    0.0                           !
 !       R9          1.3838   -DE/DX =    0.0                           !
 !       R10         1.0083   -DE/DX =    0.0                           !
 !       R11         1.4311   -DE/DX =    0.0                           !
 !       R12         1.0833   -DE/DX =    0.0                           !
 !       R13         1.0774   -DE/DX =    0.0                           !
 !       R14         1.0768   -DE/DX =    0.0                           !
 !       R15         1.3601   -DE/DX =    0.0001                        !
 !       R16         1.0872   -DE/DX =    0.0                           !
 !       R17         1.1894   -DE/DX =    0.0001                        !
 !       A3        125.2973   -DE/DX =   -0.0001                        !
 !       A4        107.5232   -DE/DX =    0.0                           !
 !       A5        118.2593   -DE/DX =   -0.0001                        !
 !       A6        120.7935   -DE/DX =    0.0                           !
 !       A7        121.0046   -DE/DX =    0.0                           !
 !       A8        106.3539   -DE/DX =    0.0                           !
 !       A9        110.1703   -DE/DX =    0.0                           !
 !       A10       124.5376   -DE/DX =    0.0                           !
 !       A11       127.3158   -DE/DX =   -0.0001                        !
 !       A12       117.4104   -DE/DX =    0.0                           !
 !       A13       126.7876   -DE/DX =    0.0                           !
 !       A14       120.3727   -DE/DX =    0.0                           !
 !       A15       129.1842   -DE/DX =    0.0                           !
 !       A16       117.3557   -DE/DX =    0.0                           !
 !       A17       146.8451   -DE/DX =    0.0                           !
 !       D4       -173.6385   -DE/DX =    0.0                           !
 !       D5        -29.1914   -DE/DX =    0.0                           !
 !       D6        -38.8803   -DE/DX =    0.0                           !
 !       D7       -172.7745   -DE/DX =    0.0                           !
 !       D8       -147.3124   -DE/DX =    0.0                           !
 !       D9          0.1056   -DE/DX =    0.0                           !
 !       D10       175.7833   -DE/DX =    0.0                           !
 !       D11        -1.3559   -DE/DX =    0.0                           !
 !       D12      -174.7894   -DE/DX =    0.0                           !
 !       D13       177.6708   -DE/DX =    0.0                           !
 !       D14       180.2371   -DE/DX =    0.0                           !
 !       D15         3.5727   -DE/DX =    0.0                           !
 !       D16      -167.5453   -DE/DX =    0.0                           !
 !       D17       175.9414   -DE/DX =    0.0                           !
 ------------------------------------------------------------------------
 GradGradGradGradGradGradGradGradGradGradGradGradGradGradGradGradGradGrad

 ---------------------------------------------------------------------------------------------------
                            Z-MATRIX (ANGSTROMS AND DEGREES)
   CD    Cent   Atom    N1       Length/X        N2       Alpha/Y        N3        Beta/Z          J
 ---------------------------------------------------------------------------------------------------
      1      1  C 
      2      2  C        1   1.412137(     1)
      3      3  C        1   1.421790(     2)      2  125.297(    17)
      4      4  N        1   1.356878(     3)      2  107.523(    18)      3 -173.638(    32)      0
      5      5  C        3   1.359761(     4)      1  118.259(    19)      2  -29.191(    33)      0
      6      6  H        2   1.081338(     5)      1  120.794(    20)      3  -38.880(    34)      0
      7      7  H        3   1.081641(     6)      1  121.005(    21)      5 -172.775(    35)      0
      8      8  C        2   1.441316(     7)      1  106.354(    22)      6 -147.312(    36)      0
      9      9  C        4   1.383823(     8)      1  110.170(    23)      2    0.106(    37)      0
     10     10  H        4   1.008284(     9)      1  124.538(    24)      9  175.783(    38)      0
     11     11  C        5   1.431122(    10)      3  127.316(    25)      1   -1.356(    39)      0
     12     12  H        5   1.083337(    11)      3  117.410(    26)     11 -174.789(    40)      0
     13     13  H        8   1.077433(    12)      2  126.788(    27)      1  177.671(    41)      0
     14     14  H        9   1.076850(    13)      4  120.373(    28)      1  180.237(    42)      0
     15     15  C       11   1.360133(    14)      5  129.184(    29)      3    3.573(    43)      0
     16     16  H       11   1.087244(    15)      5  117.356(    30)     15 -167.545(    44)      0
     17     17  O       15   1.189399(    16)     11  146.845(    31)      5  175.941(    45)      0
 ---------------------------------------------------------------------------------------------------
                         Z-Matrix orientation:                         
 ---------------------------------------------------------------------
 Center     Atomic      Atomic             Coordinates (Angstroms)
 Number     Number       Type             X           Y           Z
 ---------------------------------------------------------------------
      1          6           0        0.000000    0.000000    0.000000
      2          6           0        0.000000    0.000000    1.412137
      3          6           0        1.160416    0.000000   -0.821537
      4          7           0       -1.285945    0.143367   -0.408544
      5          6           0        2.290017    0.584150   -0.340165
      6          1           0        0.723101   -0.583059    1.965724
      7          1           0        1.118341   -0.346787   -1.845215
      8          6           0       -1.374931    0.149189    1.817968
      9          6           0       -2.126589    0.239497    0.686464
     10          1           0       -1.573207    0.235308   -1.370659
     11          6           0        2.456896    1.243119    0.919209
     12          1           0        3.146741    0.633266   -1.001400
     13          1           0       -1.752875    0.154925    2.826922
     14          1           0       -3.188467    0.354368    0.549258
     15          6           0        1.569298    1.382763    1.940303
     16          1           0        3.330041    1.879990    1.038001
     17          8           0        1.377410    1.776836    3.045995
 ---------------------------------------------------------------------
                    Distance matrix (angstroms):
                    1          2          3          4          5
     1  C    0.000000
     2  C    1.412137   0.000000
     3  C    1.421790   2.517114   0.000000
     4  N    1.356878   2.233627   2.485115   0.000000
     5  C    2.387702   2.942104   1.359761   3.603674   0.000000
     6  H    2.174144   1.081338   2.880976   3.193918   3.022371
     7  H    2.185353   3.461400   1.081641   2.843390   2.122414
     8  C    2.284229   1.441316   3.662954   2.228297   4.275345
     9  C    2.247437   2.259722   3.624338   1.383823   4.547435
    10  H    2.099775   3.205355   2.798142   1.008284   4.013491
    11  C    2.902865   2.797259   2.501280   4.120830   1.431122
    12  H    3.362411   4.015989   2.092574   4.498909   1.083337
    13  H    3.329874   2.257917   4.671458   3.269006   5.153606
    14  H    3.254779   3.322117   4.573558   2.140443   5.554967
    15  C    2.852982   2.157241   3.115602   3.899436   2.521458
    16  H    3.962446   3.842332   3.420456   5.139618   2.158748
    17  O    3.785827   2.779190   4.261694   4.657845   3.704245
                    6          7          8          9         10
     6  H    0.000000
     7  H    3.838658   0.000000
     8  C    2.227052   4.458846   0.000000
     9  C    3.230146   4.157247   1.361414   0.000000
    10  H    4.132095   2.794365   3.195946   2.130258   0.000000
    11  C    2.726933   3.458550   4.085016   4.697847   4.743512
    12  H    4.019614   2.405605   5.350578   5.550851   4.751067
    13  H    2.723370   5.506765   1.077433   2.174484   4.202193
    14  H    4.264448   4.977320   2.222754   1.076850   2.511835
    15  C    2.140363   4.186269   3.194552   4.066787   4.706853
    16  H    3.704513   4.261817   5.073538   5.708731   5.705126
    17  O    2.676605   5.338616   3.425298   4.495421   5.530758
                   11         12         13         14         15
    11  C    0.000000
    12  H    2.129916   0.000000
    13  H    4.748232   6.236273   0.000000
    14  H    5.726855   6.528184   2.699715   0.000000
    15  C    1.360133   3.421065   3.651098   5.062503   0.000000
    16  H    1.087244   2.397306   5.657925   6.712476   2.039999
    17  O    2.444046   4.562859   3.532318   5.394845   1.189399
                   16         17
    16  H    0.000000
    17  O    2.802756   0.000000
 Symmetry turned off by external request.
 Stoichiometry    C8H7NO
 Framework group  C1[X(C8H7NO)]
 Deg. of freedom    45
 Full point group                 C1      NOp   1
 Rotational constants (GHZ):           2.1538051           1.3422009           0.8682632
 1\1\GINC-BHC0069\FTS\RB3LYP\def2TZVP\C8H7N1O1\DHANAWAY\10-Jun-2022\1\\
 # Opt=(TS, CalcFC, noeigentest, Z-matrix, MaxStep=10) geom=allcheckpoi
 nt guess=read Field=read NoSymm B3LYP/Def2TZVP freq=noraman pop=none\\
 ts_zmat_initalOpt\\0,1\C\C,1,R2\C,1,R3,2,A3\N,1,R4,2,A4,3,D4,0\C,3,R5,
 1,A5,2,D5,0\H,2,R6,1,A6,3,D6,0\H,3,R7,1,A7,5,D7,0\C,2,R8,1,A8,6,D8,0\C
 ,4,R9,1,A9,2,D9,0\H,4,R10,1,A10,9,D10,0\C,5,R11,3,A11,1,D11,0\H,5,R12,
 3,A12,11,D12,0\H,8,R13,2,A13,1,D13,0\H,9,R14,4,A14,1,D14,0\C,11,R15,5,
 A15,3,D15,0\H,11,R16,5,A16,15,D16,0\O,15,R17,11,A17,5,D17,0\\R2=1.4121
 372\R3=1.42179026\R4=1.35687769\R5=1.35976074\R6=1.08133795\R7=1.08164
 112\R8=1.44131634\R9=1.38382258\R10=1.00828438\R11=1.43112228\R12=1.08
 333716\R13=1.07743344\R14=1.07684962\R15=1.36013333\R16=1.08724365\R17
 =1.18939885\A3=125.2972702\A4=107.52315116\A5=118.2592864\A6=120.79353
 162\A7=121.00458966\A8=106.35391146\A9=110.17031606\A10=124.53761472\A
 11=127.31579158\A12=117.41040771\A13=126.78755804\A14=120.37266281\A15
 =129.18416978\A16=117.35568612\A17=146.84512044\D4=-173.63848558\D5=-2
 9.19136766\D6=-38.88032069\D7=-172.77451978\D8=-147.31242384\D9=0.1055
 5437\D10=175.78330111\D11=-1.35588513\D12=-174.78943251\D13=177.670838
 61\D14=180.23714586\D15=3.57273634\D16=-167.54528941\D17=175.94138346\
 \Version=ES64L-G16RevA.03\HF=-439.1552538\RMSD=3.403e-09\RMSF=7.451e-0
 4\Dipole=-0.8654266,-0.8377517,-2.5091643\PG=C01 [X(C8H7N1O1)]\\@


 THE THINKER DIES, BUT HIS THOUGHTS ARE BEYOND THE 
 REACH OF DESTRUCTION.  MEN ARE MORTAL; BUT IDEAS 
 ARE IMMORTAL.
                              -- WALTER LIPPMANN
 Job cpu time:       0 days  2 hours 31 minutes 55.4 seconds.
 Elapsed time:       0 days  0 hours 13 minutes 16.1 seconds.
 File lengths (MBytes):  RWF=    180 Int=      0 D2E=      0 Chk=     32 Scr=      1
 Normal termination of Gaussian 16 at Fri Jun 10 13:38:25 2022.
 Link1:  Proceeding to internal job step number  2.
 --------------------------------------------------------------------
 #N Geom=AllCheck Guess=TCheck SCRF=Check GenChk RB3LYP/def2TZVP Freq
 --------------------------------------------------------------------
 1/5=1,8=10,10=4,11=1,29=7,30=1,38=1,40=1/1,3;
 2/12=2,15=1,40=1/2;
 3/5=44,7=101,11=2,14=-4,25=1,30=1,70=2,71=2,74=-5,116=1,140=1/1,2,3;
 4/5=101/1;
 5/5=2,38=6,98=1/2;
 8/6=4,10=90,11=11/1;
 11/6=1,8=1,9=11,15=111,16=1,31=1/1,2,10;
 10/6=1,31=1/2;
 7/8=1,10=1,25=1,30=1/1,2,3,16;
 1/5=1,8=10,10=4,11=1,30=1/3;
 99//99;
 Structure from the checkpoint file:  "checkpoint.chk"
 -----------------
 ts_zmat_initalOpt
 -----------------
 Charge =  0 Multiplicity = 1
 Z-Matrix found in chk file.
 C
 C,1,R2
 C,1,R3,2,A3
 N,1,R4,2,A4,3,D4,0
 C,3,R5,1,A5,2,D5,0
 H,2,R6,1,A6,3,D6,0
 H,3,R7,1,A7,5,D7,0
 C,2,R8,1,A8,6,D8,0
 C,4,R9,1,A9,2,D9,0
 H,4,R10,1,A10,9,D10,0
 C,5,R11,3,A11,1,D11,0
 H,5,R12,3,A12,11,D12,0
 H,8,R13,2,A13,1,D13,0
 H,9,R14,4,A14,1,D14,0
 C,11,R15,5,A15,3,D15,0
 H,11,R16,5,A16,15,D16,0
 O,15,R17,11,A17,5,D17,0
      Variables:
 R2=1.4121372
 R3=1.42179026
 R4=1.35687769
 R5=1.35976074
 R6=1.08133795
 R7=1.08164112
 R8=1.44131634
 R9=1.38382258
 R10=1.00828438
 R11=1.43112228
 R12=1.08333716
 R13=1.07743344
 R14=1.07684962
 R15=1.36013333
 R16=1.08724365
 R17=1.18939885
 A3=125.2972702
 A4=107.52315116
 A5=118.2592864
 A6=120.79353162
 A7=121.00458966
 A8=106.35391146
 A9=110.17031606
 A10=124.53761472
 A11=127.31579158
 A12=117.41040771
 A13=126.78755804
 A14=120.37266281
 A15=129.18416978
 A16=117.35568612
 A17=146.84512044
 D4=-173.63848558
 D5=-29.19136766
 D6=-38.88032069
 D7=-172.77451978
 D8=-147.31242384
 D9=0.10555437
 D10=175.78330111
 D11=-1.35588513
 D12=-174.78943251
 D13=177.67083861
 D14=180.23714586
 D15=3.57273634
 D16=-167.54528941
 D17=175.94138346
 Recover connectivity data from disk.

 GradGradGradGradGradGradGradGradGradGradGradGradGradGradGradGradGradGrad
 Berny optimization.
 Initialization pass.
                       ----------------------------
                       !    Initial Parameters    !
                       ! (Angstroms and Degrees)  !
 ----------------------                            ----------------------
 !      Name          Value   Derivative information (Atomic Units)     !
 ------------------------------------------------------------------------
 !       R2          1.4121   calculate D2E/DX2 analytically            !
 !       R3          1.4218   calculate D2E/DX2 analytically            !
 !       R4          1.3569   calculate D2E/DX2 analytically            !
 !       R5          1.3598   calculate D2E/DX2 analytically            !
 !       R6          1.0813   calculate D2E/DX2 analytically            !
 !       R7          1.0816   calculate D2E/DX2 analytically            !
 !       R8          1.4413   calculate D2E/DX2 analytically            !
 !       R9          1.3838   calculate D2E/DX2 analytically            !
 !       R10         1.0083   calculate D2E/DX2 analytically            !
 !       R11         1.4311   calculate D2E/DX2 analytically            !
 !       R12         1.0833   calculate D2E/DX2 analytically            !
 !       R13         1.0774   calculate D2E/DX2 analytically            !
 !       R14         1.0768   calculate D2E/DX2 analytically            !
 !       R15         1.3601   calculate D2E/DX2 analytically            !
 !       R16         1.0872   calculate D2E/DX2 analytically            !
 !       R17         1.1894   calculate D2E/DX2 analytically            !
 !       A3        125.2973   calculate D2E/DX2 analytically            !
 !       A4        107.5232   calculate D2E/DX2 analytically            !
 !       A5        118.2593   calculate D2E/DX2 analytically            !
 !       A6        120.7935   calculate D2E/DX2 analytically            !
 !       A7        121.0046   calculate D2E/DX2 analytically            !
 !       A8        106.3539   calculate D2E/DX2 analytically            !
 !       A9        110.1703   calculate D2E/DX2 analytically            !
 !       A10       124.5376   calculate D2E/DX2 analytically            !
 !       A11       127.3158   calculate D2E/DX2 analytically            !
 !       A12       117.4104   calculate D2E/DX2 analytically            !
 !       A13       126.7876   calculate D2E/DX2 analytically            !
 !       A14       120.3727   calculate D2E/DX2 analytically            !
 !       A15       129.1842   calculate D2E/DX2 analytically            !
 !       A16       117.3557   calculate D2E/DX2 analytically            !
 !       A17       146.8451   calculate D2E/DX2 analytically            !
 !       D4       -173.6385   calculate D2E/DX2 analytically            !
 !       D5        -29.1914   calculate D2E/DX2 analytically            !
 !       D6        -38.8803   calculate D2E/DX2 analytically            !
 !       D7       -172.7745   calculate D2E/DX2 analytically            !
 !       D8       -147.3124   calculate D2E/DX2 analytically            !
 !       D9          0.1056   calculate D2E/DX2 analytically            !
 !       D10       175.7833   calculate D2E/DX2 analytically            !
 !       D11        -1.3559   calculate D2E/DX2 analytically            !
 !       D12      -174.7894   calculate D2E/DX2 analytically            !
 !       D13       177.6708   calculate D2E/DX2 analytically            !
 !       D14       180.2371   calculate D2E/DX2 analytically            !
 !       D15         3.5727   calculate D2E/DX2 analytically            !
 !       D16      -167.5453   calculate D2E/DX2 analytically            !
 !       D17       175.9414   calculate D2E/DX2 analytically            !
 ------------------------------------------------------------------------
 Trust Radius=1.00D-01 FncErr=1.00D-07 GrdErr=1.00D-07 EigMax=2.50D+02 EigMin=1.00D-04
 Number of steps in this run=      2 maximum allowed number of steps=      2.
 Search for a saddle point of order  1.
 GradGradGradGradGradGradGradGradGradGradGradGradGradGradGradGradGradGrad

                          Input orientation:                          
 ---------------------------------------------------------------------
 Center     Atomic      Atomic             Coordinates (Angstroms)
 Number     Number       Type             X           Y           Z
 ---------------------------------------------------------------------
      1          6           0        0.000000    0.000000    0.000000
      2          6           0        0.000000    0.000000    1.412137
      3          6           0        1.160416    0.000000   -0.821537
      4          7           0       -1.285945    0.143367   -0.408544
      5          6           0        2.290017    0.584150   -0.340165
      6          1           0        0.723101   -0.583059    1.965724
      7          1           0        1.118341   -0.346787   -1.845215
      8          6           0       -1.374931    0.149189    1.817968
      9          6           0       -2.126589    0.239497    0.686464
     10          1           0       -1.573207    0.235308   -1.370659
     11          6           0        2.456896    1.243119    0.919209
     12          1           0        3.146741    0.633266   -1.001400
     13          1           0       -1.752875    0.154925    2.826922
     14          1           0       -3.188467    0.354368    0.549258
     15          6           0        1.569298    1.382763    1.940303
     16          1           0        3.330041    1.879990    1.038001
     17          8           0        1.377410    1.776836    3.045995
 ---------------------------------------------------------------------
                    Distance matrix (angstroms):
                    1          2          3          4          5
     1  C    0.000000
     2  C    1.412137   0.000000
     3  C    1.421790   2.517114   0.000000
     4  N    1.356878   2.233627   2.485115   0.000000
     5  C    2.387702   2.942104   1.359761   3.603674   0.000000
     6  H    2.174144   1.081338   2.880976   3.193918   3.022371
     7  H    2.185353   3.461400   1.081641   2.843390   2.122414
     8  C    2.284229   1.441316   3.662954   2.228297   4.275345
     9  C    2.247437   2.259722   3.624338   1.383823   4.547435
    10  H    2.099775   3.205355   2.798142   1.008284   4.013491
    11  C    2.902865   2.797259   2.501280   4.120830   1.431122
    12  H    3.362411   4.015989   2.092574   4.498909   1.083337
    13  H    3.329874   2.257917   4.671458   3.269006   5.153606
    14  H    3.254779   3.322117   4.573558   2.140443   5.554967
    15  C    2.852982   2.157241   3.115602   3.899436   2.521458
    16  H    3.962446   3.842332   3.420456   5.139618   2.158748
    17  O    3.785827   2.779190   4.261694   4.657845   3.704245
                    6          7          8          9         10
     6  H    0.000000
     7  H    3.838658   0.000000
     8  C    2.227052   4.458846   0.000000
     9  C    3.230146   4.157247   1.361414   0.000000
    10  H    4.132095   2.794365   3.195946   2.130258   0.000000
    11  C    2.726933   3.458550   4.085016   4.697847   4.743512
    12  H    4.019614   2.405605   5.350578   5.550851   4.751067
    13  H    2.723370   5.506765   1.077433   2.174484   4.202193
    14  H    4.264448   4.977320   2.222754   1.076850   2.511835
    15  C    2.140363   4.186269   3.194552   4.066787   4.706853
    16  H    3.704513   4.261817   5.073538   5.708731   5.705126
    17  O    2.676605   5.338616   3.425298   4.495421   5.530758
                   11         12         13         14         15
    11  C    0.000000
    12  H    2.129916   0.000000
    13  H    4.748232   6.236273   0.000000
    14  H    5.726855   6.528184   2.699715   0.000000
    15  C    1.360133   3.421065   3.651098   5.062503   0.000000
    16  H    1.087244   2.397306   5.657925   6.712476   2.039999
    17  O    2.444046   4.562859   3.532318   5.394845   1.189399
                   16         17
    16  H    0.000000
    17  O    2.802756   0.000000
 Symmetry turned off by external request.
 Stoichiometry    C8H7NO
 Framework group  C1[X(C8H7NO)]
 Deg. of freedom    45
 Full point group                 C1      NOp   1
 Rotational constants (GHZ):           2.1538051           1.3422009           0.8682632
 Standard basis: def2TZVP (5D, 7F)
 The following finite field(s) will be applied:
 An electric field of              0.0001  0.0037  0.0093
   352 basis functions,   566 primitive gaussians,   402 cartesian basis functions
    35 alpha electrons       35 beta electrons
       nuclear repulsion energy       478.3651602897 Hartrees.
 NAtoms=   17 NActive=   17 NUniq=   17 SFac= 1.00D+00 NAtFMM=   60 NAOKFM=F Big=F
 Integral buffers will be    131072 words long.
 Raffenetti 2 integral format.
 Two-electron integral symmetry is turned off.
 One-electron integrals computed using PRISM.
   1 Symmetry operations used in ECPInt.
 ECPInt:  NShTT=    9591 NPrTT=   29644 LenC2=    9324 LenP2D=   22689.
 LDataN:  DoStor=T MaxTD1= 6 Len=  172
 NBasis=   352 RedAO= T EigKep=  3.62D-05  NBF=   352
 NBsUse=   352 1.00D-06 EigRej= -1.00D+00 NBFU=   352
 The nuclear repulsion energy is now       479.6489576480 hartrees.
 Initial guess from the checkpoint file:  "checkpoint.chk"
 B after Tr=     0.000000    0.000000    0.000000
         Rot=    1.000000    0.000000    0.000000    0.000000 Ang=   0.00 deg.
 Requested convergence on RMS density matrix=1.00D-08 within 128 cycles.
 Requested convergence on MAX density matrix=1.00D-06.
 Requested convergence on             energy=1.00D-06.
 No special actions if energy rises.
 SCF Done:  E(RB3LYP) =  -439.155253825     A.U. after    1 cycles
            NFock=  1  Conv=0.21D-08     -V/T= 2.0050
 DoSCS=F DFT=T ScalE2(SS,OS)=  1.000000  1.000000
 Range of M.O.s used for correlation:     1   352
 NBasis=   352 NAE=    35 NBE=    35 NFC=     0 NFV=     0
 NROrb=    352 NOA=    35 NOB=    35 NVA=   317 NVB=   317

 **** Warning!!: The largest alpha MO coefficient is  0.29770576D+02

   1 Symmetry operations used in ECPInt.
 ECPInt:  NShTT=    9591 NPrTT=   29644 LenC2=    9324 LenP2D=   22689.
 LDataN:  DoStor=T MaxTD1= 7 Len=  274
 Symmetrizing basis deriv contribution to polar:
 IMax=3 JMax=2 DiffMx= 0.00D+00
 G2DrvN: will do    18 centers at a time, making    1 passes.
 Calling FoFCou, ICntrl=  3107 FMM=F I1Cent=   0 AccDes= 0.00D+00.
 End of G2Drv F.D. properties file   721 does not exist.
 End of G2Drv F.D. properties file   722 does not exist.
 End of G2Drv F.D. properties file   788 does not exist.
          IDoAtm=11111111111111111
          Differentiating once with respect to electric field.
                with respect to dipole field.
          Differentiating once with respect to nuclear coordinates.
 CalDSu exits because no D1Ps are significant.
          There are    54 degrees of freedom in the 1st order CPHF.  IDoFFX=6 NUNeed=     3.
     51 vectors produced by pass  0 Test12= 2.05D-14 1.85D-09 XBig12= 2.01D+02 6.25D+00.
 AX will form    51 AO Fock derivatives at one time.
     51 vectors produced by pass  1 Test12= 2.05D-14 1.85D-09 XBig12= 2.84D+01 1.02D+00.
     51 vectors produced by pass  2 Test12= 2.05D-14 1.85D-09 XBig12= 3.27D-01 8.24D-02.
     51 vectors produced by pass  3 Test12= 2.05D-14 1.85D-09 XBig12= 1.46D-03 4.29D-03.
     51 vectors produced by pass  4 Test12= 2.05D-14 1.85D-09 XBig12= 4.07D-06 2.22D-04.
     50 vectors produced by pass  5 Test12= 2.05D-14 1.85D-09 XBig12= 8.98D-09 9.15D-06.
     17 vectors produced by pass  6 Test12= 2.05D-14 1.85D-09 XBig12= 1.26D-11 3.09D-07.
      3 vectors produced by pass  7 Test12= 2.05D-14 1.85D-09 XBig12= 1.55D-14 1.47D-08.
      3 vectors produced by pass  8 Test12= 2.05D-14 1.85D-09 XBig12= 2.20D-15 6.46D-09.
      3 vectors produced by pass  9 Test12= 2.05D-14 1.85D-09 XBig12= 1.24D-15 3.49D-09.
      1 vectors produced by pass 10 Test12= 2.05D-14 1.85D-09 XBig12= 3.88D-16 2.47D-09.
 InvSVY:  IOpt=1 It=  1 EMax= 2.13D-14
 Solved reduced A of dimension   332 with    54 vectors.
 Isotropic polarizability for W=    0.000000      107.72 Bohr**3.
 End of Minotr F.D. properties file   721 does not exist.
 End of Minotr F.D. properties file   722 does not exist.
 End of Minotr F.D. properties file   788 does not exist.
   1 Symmetry operations used in ECPInt.
 ECPInt:  NShTT=    9591 NPrTT=   29644 LenC2=    9324 LenP2D=   22689.
 LDataN:  DoStor=T MaxTD1= 8 Len=  415
 Calling FoFJK, ICntrl=    100127 FMM=F ISym2X=0 I1Cent= 0 IOpClX= 0 NMat=1 NMatS=1 NMatT=0.
 Full mass-weighted force constant matrix:
 Low frequencies --- -374.7870   -8.2191   -0.0008    0.0006    0.0008   12.3027
 Low frequencies ---   24.2345  109.4950  138.1148
 ******    1 imaginary frequencies (negative Signs) ****** 
 Diagonal vibrational polarizability:
       31.2573385      31.7882476      21.3006696
 Harmonic frequencies (cm**-1), IR intensities (KM/Mole), Raman scattering
 activities (A**4/AMU), depolarization ratios for plane and unpolarized
 incident light, reduced masses (AMU), force constants (mDyne/A),
 and normal coordinates:
                      1                      2                      3
                      A                      A                      A
 Frequencies --   -374.7502               109.4759               138.0856
 Red. masses --      6.9650                 5.9363                 4.6150
 Frc consts  --      0.5763                 0.0419                 0.0518
 IR Inten    --    189.1540                 1.6967                 2.0102
  Atom  AN      X      Y      Z        X      Y      Z        X      Y      Z
     1   6    -0.05  -0.05   0.07    -0.05   0.04  -0.00     0.03  -0.17   0.04
     2   6    -0.22  -0.33  -0.04    -0.10   0.24   0.00     0.00  -0.06   0.03
     3   6     0.02   0.00   0.03    -0.04   0.06   0.02     0.05  -0.17   0.04
     4   7    -0.04   0.08  -0.00    -0.06  -0.24  -0.08     0.06  -0.06  -0.01
     5   6    -0.01  -0.03  -0.06    -0.03   0.06   0.01    -0.06   0.11  -0.05
     6   1     0.13   0.39   0.21    -0.12   0.29   0.08    -0.05  -0.06   0.10
     7   1     0.05  -0.21   0.10    -0.04   0.08   0.02     0.09  -0.30   0.08
     8   6    -0.09  -0.14  -0.03    -0.14   0.12  -0.08     0.01   0.17  -0.01
     9   6    -0.07   0.04  -0.08    -0.11  -0.18  -0.13     0.05   0.17  -0.03
    10   1     0.02   0.19  -0.01    -0.04  -0.43  -0.10     0.10  -0.05  -0.02
    11   6     0.06   0.07  -0.04     0.05   0.01   0.01    -0.14   0.25  -0.12
    12   1     0.04  -0.16  -0.00    -0.05   0.06  -0.02    -0.09   0.21  -0.08
    13   1    -0.11  -0.23  -0.04    -0.19   0.21  -0.10    -0.00   0.33  -0.02
    14   1    -0.05   0.14  -0.10    -0.13  -0.37  -0.19     0.07   0.32  -0.07
    15   6     0.44   0.31   0.09     0.14   0.03   0.09    -0.03  -0.01   0.01
    16   1     0.13   0.01  -0.13     0.10  -0.05  -0.01    -0.26   0.42  -0.19
    17   8    -0.03   0.03   0.04     0.30  -0.06   0.15     0.02  -0.21   0.09
                      4                      5                      6
                      A                      A                      A
 Frequencies --    270.3059               289.7906               324.8480
 Red. masses --      4.7559                 3.3816                 7.6015
 Frc consts  --      0.2047                 0.1673                 0.4726
 IR Inten    --     24.0805                 3.1633                 7.3597
  Atom  AN      X      Y      Z        X      Y      Z        X      Y      Z
     1   6     0.04   0.12   0.09     0.06  -0.11   0.13    -0.04  -0.15  -0.16
     2   6    -0.05   0.04   0.12    -0.06  -0.11   0.15     0.07  -0.16  -0.12
     3   6     0.02  -0.12   0.10    -0.03   0.10   0.01    -0.05  -0.09  -0.12
     4   7     0.10   0.22  -0.00     0.11  -0.06   0.02    -0.03   0.01  -0.09
     5   6     0.03  -0.05   0.01    -0.03   0.17  -0.10    -0.16  -0.00   0.07
     6   1    -0.16  -0.16   0.06    -0.16  -0.14   0.25     0.05  -0.30  -0.22
     7   1    -0.03  -0.26   0.15    -0.21   0.35  -0.07     0.06   0.08  -0.19
     8   6    -0.15  -0.21  -0.01    -0.11   0.02  -0.00     0.10  -0.11  -0.07
     9   6    -0.03  -0.08  -0.07     0.01   0.07  -0.08     0.05   0.12  -0.02
    10   1     0.19   0.25  -0.03     0.24   0.05  -0.01    -0.07   0.08  -0.07
    11   6    -0.09   0.11  -0.10     0.05  -0.14   0.02    -0.21  -0.07   0.11
    12   1     0.04  -0.12   0.01    -0.16   0.45  -0.25    -0.14   0.20   0.12
    13   1    -0.28  -0.45  -0.06    -0.22   0.06  -0.04     0.15  -0.07  -0.06
    14   1    -0.03  -0.17  -0.17     0.04   0.16  -0.19     0.07   0.33   0.05
    15   6    -0.13  -0.03  -0.08    -0.02  -0.10  -0.03    -0.09   0.01   0.21
    16   1    -0.16   0.20  -0.09     0.06  -0.16   0.12    -0.23  -0.01   0.02
    17   8     0.21   0.02  -0.03     0.03   0.08  -0.08     0.28   0.32   0.18
                      7                      8                      9
                      A                      A                      A
 Frequencies --    461.0732               513.6635               547.4801
 Red. masses --      4.6815                 4.4163                 2.9429
 Frc consts  --      0.5864                 0.6865                 0.5197
 IR Inten    --      9.8441                 3.1012                 0.4527
  Atom  AN      X      Y      Z        X      Y      Z        X      Y      Z
     1   6    -0.09  -0.06  -0.08     0.05   0.02   0.05    -0.02  -0.05  -0.04
     2   6    -0.06  -0.15  -0.05    -0.00  -0.08   0.06    -0.03   0.03  -0.04
     3   6     0.08   0.12   0.13    -0.08   0.23  -0.10     0.09  -0.13   0.05
     4   7    -0.16  -0.11  -0.02     0.07  -0.15   0.02    -0.05   0.02   0.00
     5   6     0.16   0.02   0.19     0.06  -0.20   0.05    -0.00   0.15  -0.02
     6   1    -0.14  -0.37  -0.17     0.08   0.13   0.17     0.07   0.18  -0.02
     7   1     0.24   0.20   0.10    -0.19   0.32  -0.12     0.17  -0.17   0.06
     8   6    -0.06  -0.02   0.01     0.01  -0.01   0.01    -0.00  -0.06   0.02
     9   6    -0.09   0.09   0.05     0.06   0.07  -0.03    -0.02   0.03   0.04
    10   1    -0.21   0.13   0.01     0.16   0.19   0.03    -0.10  -0.01   0.02
    11   6     0.17   0.15   0.04    -0.12   0.00  -0.04     0.06  -0.09   0.06
    12   1     0.12  -0.09   0.13     0.20  -0.48   0.22    -0.03   0.24  -0.05
    13   1    -0.02   0.03   0.03    -0.03   0.06  -0.01     0.05  -0.06   0.04
    14   1    -0.08   0.25   0.11     0.09   0.22  -0.08    -0.02   0.11   0.07
    15   6    -0.06  -0.10  -0.11    -0.17   0.24  -0.12    -0.14   0.21  -0.13
    16   1    -0.05   0.44   0.02     0.02  -0.21   0.04     0.37  -0.59   0.39
    17   8     0.12   0.02  -0.13     0.07  -0.09   0.05     0.06  -0.08   0.01
                     10                     11                     12
                      A                      A                      A
 Frequencies --    597.5575               611.6433               627.5459
 Red. masses --      1.7131                 2.5967                 2.3201
 Frc consts  --      0.3604                 0.5724                 0.5383
 IR Inten    --     34.1846                 6.7485                 8.5327
  Atom  AN      X      Y      Z        X      Y      Z        X      Y      Z
     1   6    -0.02   0.03   0.01     0.05   0.05  -0.03    -0.02  -0.12  -0.01
     2   6     0.05   0.10   0.01    -0.08  -0.04  -0.02     0.02  -0.08  -0.01
[...]
   zz         0.125332D+03      0.185722D+02      0.206644D+02

 ----------------------------------------------------------------------
 1\1\GINC-BHC0069\Freq\RB3LYP\def2TZVP\C8H7N1O1\DHANAWAY\10-Jun-2022\1\
 \#N Geom=AllCheck Guess=TCheck SCRF=Check GenChk RB3LYP/def2TZVP Freq\
 \ts_zmat_initalOpt\\0,1\C\C,1,R2\C,1,R3,2,A3\N,1,R4,2,A4,3,D4,0\C,3,R5
 ,1,A5,2,D5,0\H,2,R6,1,A6,3,D6,0\H,3,R7,1,A7,5,D7,0\C,2,R8,1,A8,6,D8,0\
 C,4,R9,1,A9,2,D9,0\H,4,R10,1,A10,9,D10,0\C,5,R11,3,A11,1,D11,0\H,5,R12
 ,3,A12,11,D12,0\H,8,R13,2,A13,1,D13,0\H,9,R14,4,A14,1,D14,0\C,11,R15,5
 ,A15,3,D15,0\H,11,R16,5,A16,15,D16,0\O,15,R17,11,A17,5,D17,0\\R2=1.412
 1372\R3=1.42179026\R4=1.35687769\R5=1.35976074\R6=1.08133795\R7=1.0816
 4112\R8=1.44131634\R9=1.38382258\R10=1.00828438\R11=1.43112228\R12=1.0
 8333716\R13=1.07743344\R14=1.07684962\R15=1.36013333\R16=1.08724365\R1
 7=1.18939885\A3=125.2972702\A4=107.52315116\A5=118.2592864\A6=120.7935
 3162\A7=121.00458966\A8=106.35391146\A9=110.17031606\A10=124.53761472\
 A11=127.31579158\A12=117.41040771\A13=126.78755804\A14=120.37266281\A1
 5=129.18416978\A16=117.35568612\A17=146.84512044\D4=-173.63848558\D5=-
 29.19136766\D6=-38.88032069\D7=-172.77451978\D8=-147.31242384\D9=0.105
 55437\D10=175.78330111\D11=-1.35588513\D12=-174.78943251\D13=177.67083
 861\D14=180.23714586\D15=3.57273634\D16=-167.54528941\D17=175.94138346
 \\Version=ES64L-G16RevA.03\HF=-439.1552538\RMSD=2.083e-09\RMSF=7.451e-
 04\ZeroPoint=0.1299977\Thermal=0.1375889\Dipole=-0.8654286,-0.8377534,
 -2.5091633\DipoleDeriv=0.755342,0.0814119,0.1291467,-0.0663479,0.01675
 58,-0.0858156,0.276693,0.0703177,0.3548245,-0.3289969,-0.257349,-0.396
 9274,-0.2859964,-0.2357186,-0.2915109,-0.2660003,-0.1501333,-0.3998081
 ,-0.4237352,-0.0676658,-0.0990523,-0.1332763,-0.2473161,-0.0028871,0.0
 178512,0.0089434,-0.1117187,-0.6509684,-0.1503541,-0.0611392,0.0328921
 ,-0.1496839,0.0062987,-0.2889791,0.0248807,-0.4235627,0.2599266,0.1259
 231,0.0473007,0.1639497,0.1036746,0.2867053,0.3260564,0.2947927,0.3684
 315,0.0615012,0.0477071,0.0178697,0.133235,0.1548317,0.1013596,0.00801
 45,0.01238,0.0877969,0.0440485,-0.0290132,-0.0014614,0.0134524,0.15471
 87,-0.0452614,-0.0057866,-0.0390021,0.0422418,0.0546824,0.0229143,0.02
 13415,-0.0789563,-0.272564,0.0149317,-0.0400905,-0.0079407,-0.0375218,
 -0.1012257,-0.0766827,-0.1419351,0.0279855,-0.1120032,0.0436117,-0.070
 5169,-0.0566102,0.2825975,0.2059508,0.0199521,0.0760987,0.0126868,0.29
 79319,0.025992,0.1006357,0.0184329,0.2820074,-0.3591682,0.1727512,0.28
 66823,-0.104723,-0.3170786,-0.0770301,-0.3050932,-0.2875702,-0.7481795
 ,0.0010643,-0.0164471,0.0683229,-0.0002343,0.1176114,-0.0165259,0.0422
 034,-0.0123895,0.0621275,0.0239945,-0.004177,0.0610861,0.0191926,0.152
 4511,-0.0143205,0.0949889,0.0112404,-0.0635669,-0.0073422,0.0206756,-0
 .0034721,0.026924,0.182781,-0.0107704,-0.0088825,0.0036487,0.0786586,0
 .9440197,0.280283,-0.0720066,0.61407,0.721672,0.7234589,0.4500223,1.07
 60652,2.085987,-0.0799554,-0.141906,-0.0370436,-0.086767,0.0791637,-0.
 0714086,0.0434195,-0.0408869,0.0773501,-0.3991379,-0.0280234,0.1051891
 ,-0.2880867,-0.6472273,-0.5868273,-0.3745358,-0.9261689,-1.937665\Pola
 r=137.3678718,17.3701514,71.5885444,0.7309974,16.7524725,114.1993175\P
 G=C01 [X(C8H7N1O1)]\NImag=1\\0.72408431,-0.03057635,0.17724317,-0.0815
 0677,-0.00300061,0.65392109,-0.09320434,0.01191785,0.03021279,0.561631
 06,0.00164357,-0.07147129,0.03524211,-0.19044334,0.19792160,-0.0069263
 3,0.00445972,-0.28176495,0.06189355,-0.10583676,0.60521494,-0.19669907
 ,0.00181093,0.06774245,0.01894797,0.02063502,0.02625890,0.63157611,0.0
 0625512,-0.05948863,-0.01828726,0.00849391,0.01147057,0.00408241,0.146
 59890,0.22557997,0.09815452,-0.01137573,-0.18404415,0.02711749,-0.0050
 4312,-0.01924420,0.00462869,0.18878445,0.65145506,-0.28173858,0.020831
 56,-0.05729258,-0.03853742,-0.00360118,-0.05576766,-0.05275586,0.00171
 782,-0.00521752,0.63562273,0.02952340,-0.06496480,0.00269032,0.0065489
 2,0.01392287,0.00916793,-0.00471982,0.00196728,0.00343222,-0.06558337,
 0.09383086,-0.05571613,0.00788580,-0.15321358,-0.01770561,0.00941767,-
 0.04663755,0.01378914,-0.00445665,0.02158799,0.09574375,-0.04469448,0.
 90418951,-0.06346459,-0.01351489,0.01688965,-0.00418623,-0.00923902,-0
 .00910412,-0.31234958,-0.12434194,-0.10495607,0.01150343,0.00055990,0.
 00542156,0.68651829,-0.01789349,0.00071799,0.01622794,-0.00705770,-0.0
 1054593,-0.00760656,-0.12177595,-0.11846491,-0.06916635,0.00547989,0.0
 0354662,0.00108713,0.18265499,0.27677910,-0.00818319,0.00649650,0.0427
 9100,-0.01691146,-0.01856903,-0.01361453,-0.05358941,-0.04557361,-0.14
 991866,0.00932399,0.00089874,0.00176350,-0.05377045,0.16117631,0.53940
 908,0.00131245,-0.00302825,-0.00545163,-0.16482061,0.11302643,-0.08977
 689,-0.00251462,-0.00248737,-0.00007181,0.00456016,0.00164677,0.000262
 26,0.00021228,0.00020718,0.00234477,0.18439587,-0.00239404,-0.00076489
 ,-0.01401883,0.13445050,-0.10340746,0.10036339,-0.00536478,-0.00373712
 ,-0.00018393,0.00470550,0.00100469,-0.00347673,0.00137425,0.00244508,0
 .00643377,-0.11583205,0.11868984,-0.02047129,0.01589746,-0.00950181,-0
 .09002075,0.08572563,-0.12361455,-0.00135886,-0.00218931,-0.00019129,0
 .00099192,-0.00048516,-0.00690323,-0.00028716,0.00067115,0.00104549,0.
 10693115,-0.09062583,0.12991359,0.00613120,0.00795244,0.02358101,-0.00
 226447,0.00115004,0.00187314,-0.05855567,-0.00806810,-0.00504243,0.002
 02650,-0.00075331,-0.00156976,0.00232024,-0.00860215,-0.02608165,-0.00
 012777,-0.00033063,0.00014312,0.05555067,-0.00601757,0.00184067,0.0082
 1546,-0.00290355,0.00017939,-0.00159778,-0.00044179,-0.05836206,-0.095
 20329,0.00152237,-0.00076260,0.00110660,-0.00495685,-0.00430679,-0.015
 20321,0.00039521,0.00046193,-0.00021985,0.01212590,0.05806191,0.000003
 98,-0.00384247,-0.01426270,0.00257190,-0.00075464,0.00117544,-0.010248
 63,-0.09543661,-0.30871082,-0.00139130,0.00068659,0.00080195,0.0014510
 5,-0.00244848,-0.00594070,-0.00015300,-0.00011952,0.00005001,0.0070953
 7,0.10204931,0.32532325,-0.00977331,0.00061084,0.04418312,-0.21605021,
 0.04369810,0.04865473,-0.00324888,-0.00408534,-0.00166713,0.00820723,-
 0.00067673,-0.01261533,-0.00015268,0.00414327,0.00856831,-0.01504596,-
 0.00902279,0.00389352,-0.00059035,0.00047103,-0.00004640,0.54615785,0.
 00150583,0.00888117,-0.00477798,0.01640693,-0.06672653,0.00148623,0.00
 124765,0.00319506,0.00050928,0.00179056,0.01418561,0.00180244,0.000477
 28,-0.00089451,-0.00221239,0.01210126,-0.00087974,-0.00701913,-0.00006
 721,-0.00003041,0.00012709,-0.04917315,0.12323006,0.01729938,-0.000709
 29,-0.03403876,0.05132101,0.00063158,-0.11051525,0.00126651,-0.0008684
 8,-0.00596058,0.02365033,-0.00263735,-0.08895447,-0.00289752,-0.001425
 50,-0.00204989,-0.01740257,-0.00126783,0.00841226,0.00123816,0.0001824
 4,-0.00039044,-0.02884049,-0.01576481,0.84825282,-0.08252322,0.0109364
 3,0.01276354,-0.05576645,0.00647789,-0.00868146,0.00353852,0.00039824,
 -0.00548387,-0.17380883,0.01546819,0.08249837,-0.00428965,-0.00141240,
 -0.00152851,-0.00519514,0.00045180,0.00360699,-0.00013702,-0.00029402,
 0.00070656,-0.19686857,0.01475039,-0.14887320,0.83387960,0.00977580,0.
 01058482,-0.00311419,0.01108663,0.01235515,-0.00081666,-0.00161717,0.0
 0245800,0.00060090,0.01820176,-0.05248582,-0.00823061,0.00117844,0.001
 54178,0.00106459,0.00114653,0.00135832,0.00094491,0.00000298,-0.000198
 52,0.00013952,0.01204028,-0.06273614,0.01901033,-0.07985039,0.12532401
 ,0.04467593,-0.00669912,0.01001656,-0.06313686,-0.00882293,0.00152780,
 -0.00499298,0.00573748,-0.00097551,0.06901121,-0.00296776,-0.21748360,
 0.00298911,-0.00258879,-0.00560894,0.00595905,0.00654584,0.00104819,0.
 00095680,-0.00018933,-0.00065698,-0.13232036,0.01884954,-0.31087176,0.
 10410192,-0.01308211,0.61184716,0.00197894,0.00130410,-0.03148414,-0.0
 0691599,0.00185047,-0.00149086,0.00192178,-0.00038852,0.00051111,-0.10
 456883,0.01729389,-0.10084333,-0.00026409,-0.00068546,-0.00038447,0.00
 026702,-0.00030999,-0.00127557,-0.00057693,0.00035037,0.00062375,-0.00
 313679,0.00070915,0.00558494,0.01521926,-0.00417232,0.01778508,0.09488
 957,-0.00000459,-0.00435322,0.00270469,0.00002612,0.00499421,0.0010208
 9,-0.00065154,-0.00277386,0.00022728,0.01654622,-0.01285835,0.03819029
 ,-0.00003411,0.00000020,0.00070494,0.00097179,0.00112991,-0.00046460,0
 .00038874,0.00029582,-0.00036334,0.00222607,0.00148432,-0.00021274,-0.
 00226862,-0.00605580,-0.00440234,-0.01672490,0.01760371,-0.00254672,0.
 00005572,-0.00181259,0.00028513,0.00113826,0.00204547,0.00121129,0.000
 64813,0.00093768,-0.10061929,0.03530570,-0.41559949,-0.00047814,-0.000
 14372,-0.00102936,-0.00023530,-0.00059146,-0.00004349,0.00003045,-0.00
 048770,-0.00008182,0.00321421,-0.00019560,-0.00108163,-0.01025277,0.00
 202227,-0.01209476,0.11009502,-0.03752703,0.42781942,-0.01286641,-0.00
 166840,0.01913048,-0.02921605,-0.02046609,-0.01032151,0.01932591,-0.00
 458613,-0.02393349,-0.00049009,0.00204053,0.00355526,-0.10260449,-0.04
 313312,-0.04351833,0.00014154,0.00621627,0.00230469,-0.00099085,-0.004
 92207,-0.00004072,0.00903210,-0.00463667,-0.00221479,-0.00355598,0.001
 59385,-0.00697407,-0.00046118,0.00037536,-0.00008151,0.49202307,0.0092
 6683,-0.00372385,-0.00048273,-0.01420699,-0.00139669,0.00122002,-0.018
 46189,-0.00763592,-0.01775879,-0.00738393,0.00003352,-0.00028717,-0.01
 932257,-0.10188927,-0.09547642,0.00076112,0.00257057,0.00112420,-0.003
 48413,0.00635818,-0.00165806,0.00235597,-0.00342147,-0.00024674,0.0006
 8087,0.00017611,-0.00428396,0.00004215,-0.00022470,0.00037626,0.177889
 42,0.27931687,0.02044093,0.00113033,-0.02277418,0.00639444,0.01563724,
 0.00861806,-0.04542207,-0.03334881,-0.01462073,-0.00601911,-0.00026653
 ,-0.00163511,0.00673754,-0.07132551,-0.20788682,0.00101243,-0.00306066
 ,0.00010827,-0.00042509,-0.00067813,0.00265175,-0.00559886,-0.00129742
 ,0.00158873,0.00125345,-0.00129277,0.00257461,0.00061140,-0.00061973,0
 .00045852,-0.11377034,0.18276239,0.58746541,-0.00194096,-0.00417528,-0
 .00186128,0.00055268,0.00055871,0.00026944,-0.01895972,-0.00247706,0.0
 1665782,0.00001966,-0.00020750,0.00058169,-0.22776751,-0.01482950,0.13
 797305,-0.00009939,-0.00013937,-0.00000518,0.00041465,0.00203605,-0.00
 051421,-0.00033745,-0.00011220,-0.00004366,-0.00023818,0.00025056,0.00
 020525,-0.00000951,-0.00011511,0.00006491,0.00521489,-0.00154101,-0.00
 542228,0.24240342,-0.00570322,0.00633030,-0.00416295,-0.00081178,-0.00
 125507,-0.00109097,-0.01080283,0.00536754,0.00944239,-0.00133708,0.000
 24172,0.00212285,-0.01704319,-0.04774306,-0.00037517,0.00024540,0.0003
 1338,0.00016382,0.00192155,-0.00474338,0.00181266,0.00082527,0.0000494
 7,0.00024275,-0.00036798,-0.00013787,-0.00121094,0.00001769,0.00016094
 ,0.00000322,0.00819702,0.00490009,-0.00475615,0.02142843,0.03647609,-0
 .00105541,-0.00375024,0.00065836,0.00060254,0.00045731,0.00062783,-0.0
 1008356,-0.00277206,0.00929299,0.00041137,0.00017418,-0.00012650,0.138
 92640,0.00312094,-0.15864593,-0.00024525,-0.00032669,-0.00008015,-0.00
 082396,0.00211094,0.00034143,-0.00057413,0.00011793,-0.00005275,-0.000
 03781,0.00017327,0.00061612,0.00000344,-0.00011442,0.00001701,0.021312
 70,-0.00000551,-0.01654750,-0.14668017,0.00362814,0.16658710,-0.006573
 48,0.00095729,0.00048674,0.00023506,-0.00153822,0.02512438,0.00073377,
 0.00020703,0.00142421,-0.00185997,0.00086877,-0.00436014,0.00011508,0.
 00018068,0.00022991,0.00043703,0.00005656,-0.00086069,-0.00041113,-0.0
 0011793,0.00022055,-0.09235913,0.00366325,0.09789190,0.01143943,-0.000
 64715,-0.01572957,0.00095571,0.00000913,-0.00054914,0.00010213,-0.0000
 9982,-0.00044012,-0.00001661,-0.00000747,-0.00000453,0.08662266,0.0016
 7264,0.00251918,0.00042587,-0.00236457,-0.00226042,-0.00202547,0.00031
 368,0.00118749,0.00019380,-0.00027293,0.00577933,0.00108090,0.00005638
 ,-0.00036622,-0.00054996,-0.00121914,-0.00072551,-0.00008909,-0.000141
 44,0.00011621,-0.00003991,0.00620553,-0.02521405,0.00011419,-0.0020312
 2,-0.00050379,0.00026052,0.00024669,0.00197974,-0.00004827,-0.00043729
 ,-0.00002266,0.00032040,0.00000575,-0.00007047,0.00003588,-0.00338452,
 0.02015491,-0.00020665,-0.00018269,0.00014337,-0.00088013,0.00016529,0
 .00004935,0.00003757,0.00003301,-0.00006939,-0.00267478,0.00077346,-0.
 00314727,-0.00004369,-0.00010028,-0.00009773,0.00039839,-0.00004943,-0
 .00004643,0.00003097,0.00010390,0.00001546,0.09433862,-0.00007845,-0.3
 1448842,0.01345104,-0.00076758,-0.01322998,0.00088967,-0.00020151,-0.0
 0018100,0.00016728,0.00019888,0.00025395,0.00001438,0.00000898,0.00000
 041,-0.10464698,0.00060031,0.33079737,0.00068087,-0.00007589,0.0025956
 8,0.00003643,0.00134472,-0.00173643,-0.00054494,0.00005614,-0.00053359
 ,-0.01278339,0.00142741,-0.00447330,0.00001781,0.00019041,0.00041728,-
 0.00037874,-0.00018970,0.00011848,-0.00002098,0.00001171,0.00000262,-0
 .00493303,0.00075654,0.00276682,-0.34650987,0.03454267,-0.03695001,-0.
 00008078,-0.00001726,0.00023885,0.00023348,-0.00000810,-0.00012411,-0.
 00001114,-0.00009669,-0.00000285,0.00005011,-0.00039165,-0.00045352,0.
 36442145,0.00081004,0.00191837,-0.00003318,0.00139947,0.00649630,-0.00
 052736,0.00006022,0.00161681,0.00015529,0.00086306,-0.00214267,0.00057
 168,0.00012607,0.00004076,0.00023941,-0.00056552,0.00087866,0.00077563
 ,-0.00007041,-0.00000335,-0.00000090,0.00087073,0.00184634,-0.00050792
 ,0.03386966,-0.02932986,0.00365002,-0.00008180,-0.00110036,-0.00005574
 ,0.00071773,0.00052813,-0.00004018,0.00019496,-0.00018841,0.00008162,-
 0.00042140,-0.00349729,-0.00015413,-0.03747848,0.02388509,0.00135493,0
 .00002821,-0.00576481,-0.00272280,0.00082147,-0.00422946,0.00128159,0.
 00011155,0.00115122,0.03073489,-0.00376287,0.00713204,0.00008228,-0.00
 033507,-0.00080234,-0.00116203,-0.00018287,0.00058026,-0.00002802,-0.0
 0001642,0.00001515,-0.02169954,0.00203698,0.00815948,-0.04662924,0.004
 30839,-0.06629904,-0.00055871,0.00005695,0.00072809,-0.00040912,-0.000
 15226,0.00035395,0.00005411,0.00013343,0.00001785,0.00096703,-0.000187
 64,0.00029620,0.03833100,-0.00346278,0.05852284,0.02322857,0.00062265,
 -0.05976795,0.04272736,0.05571868,0.04201725,-0.04635653,-0.02437919,-
 0.00384834,0.00816632,-0.00574335,-0.00509832,0.02291187,0.03853808,0.
 06395684,-0.00417625,-0.01757565,-0.00471760,-0.00408754,0.00377753,-0
 .00048792,-0.02972762,0.00113725,-0.00101097,0.00522653,-0.00428082,0.
 02101628,0.00127438,-0.00138254,-0.00059767,-0.14727988,-0.00974324,0.
 10766247,-0.00007062,0.00265031,-0.00244272,0.00044268,0.00171542,-0.0
 0043311,-0.00023246,-0.00043013,0.00057744,0.20289303,0.00249337,-0.00
 458949,-0.02653741,0.04243433,0.02557217,0.01391810,-0.01050982,-0.003
 05527,-0.00034766,0.01137351,-0.00321865,-0.00275461,0.01796527,-0.000
 42339,0.00500096,-0.00624084,-0.02425182,-0.00226824,-0.00171660,0.001
 56005,-0.00019429,-0.01517342,0.00828488,0.00429461,0.00494215,-0.0028
 0737,0.01386375,0.00054397,-0.00107799,-0.00094498,0.02075951,-0.05811
 203,-0.04408783,-0.00210809,0.00182010,-0.00452993,0.00075082,0.001580
 26,-0.00080484,-0.00000998,-0.00123761,0.00071695,-0.09846797,0.181925
 32,-0.01179828,-0.00201981,-0.00864600,0.02563233,0.00640581,-0.002396
 82,0.00911364,0.00877863,0.00801975,0.00646523,-0.00018242,-0.00431290
 ,0.02478563,-0.01539840,-0.04572791,-0.00393850,0.00045627,-0.00038399
 ,0.00009937,0.00043005,-0.00053546,-0.00364173,0.00745835,0.00099832,0
 .00628815,-0.00245807,0.00487910,-0.00043541,0.00106704,-0.00080662,0.
 14424768,-0.01574222,-0.24861508,-0.00088642,-0.00732790,-0.00299703,0
 .00213697,0.00072725,-0.00119048,-0.00009596,-0.00084014,-0.00005679,-
 0.31571049,0.24085418,0.97930548,-0.00037016,-0.00101737,0.00347974,-0
 .00313193,-0.00212328,-0.00188613,0.00285300,-0.00012082,0.00175612,-0
 .00156865,0.00036999,0.00054042,-0.00109484,-0.00279742,-0.00252411,0.
 00051111,0.00056556,0.00035297,0.00018872,-0.00013802,0.00003084,0.001
 45567,-0.00091076,0.00006433,-0.00030276,0.00036469,-0.00176507,-0.000
 09904,-0.00002974,0.00013631,-0.21968051,-0.13535762,-0.01752494,0.000
 32907,0.00151780,-0.00066059,-0.00008402,-0.00007358,0.00007364,0.0000
 2364,0.00013697,-0.00003632,-0.01682135,-0.01140532,0.00596466,0.23646
 158,-0.00107611,0.00138994,-0.00015789,-0.00003663,0.00195892,0.001513
 78,0.00246162,0.00047697,-0.00416115,0.00220052,0.00005696,0.00002598,
 -0.01251989,-0.00663787,-0.00096561,-0.00031028,0.00051176,-0.00006900
 ,-0.00081185,0.00028219,-0.00022080,-0.00106265,-0.00026826,-0.0010290
 7,-0.00081929,-0.00021463,0.00172648,0.00013538,0.00008151,-0.00016093
 ,-0.14142777,-0.12520864,-0.02503744,0.00069858,-0.00081290,0.00070182
 ,-0.00002920,0.00002106,0.00001979,0.00001445,0.00004418,-0.00002783,0
 .00174475,0.00036934,-0.00469398,0.15042501,0.12825328,0.00276710,-0.0
 0096208,-0.00355864,0.00491398,0.00195649,0.00069543,-0.00241691,-0.00
 321122,-0.00186159,-0.00096649,-0.00022779,-0.00039811,-0.02202750,-0.
 01567275,-0.00039017,-0.00000077,-0.00139444,-0.00026571,-0.00110930,0
 .00034274,-0.00053183,-0.00087659,0.00111925,0.00097982,0.00106345,-0.
 00016961,0.00023560,0.00006090,-0.00013231,0.00005104,-0.00911456,-0.0
 2370333,-0.04835797,-0.00029037,0.00081944,0.00058444,-0.00000018,0.00
 004517,-0.00004104,-0.00005327,-0.00016354,0.00009371,0.01165429,0.009
 85018,-0.00037477,0.01609106,0.03085959,0.05126329,-0.00826221,-0.0028
 8765,0.01629916,-0.01003685,-0.01869250,-0.02040002,0.01308781,0.00720
 730,0.00050429,-0.00199441,0.00193632,-0.00001052,-0.00742535,-0.01320
 728,-0.01632260,0.00052102,0.00333857,0.00065427,0.00113073,-0.0008983
 8,0.00017556,0.00737113,0.00035389,0.00019981,-0.00010766,0.00038367,-
 0.00483171,-0.00039351,0.00068498,0.00008437,-0.00892768,0.01861295,0.
 05063426,0.00051671,-0.00063322,0.00135452,0.00017069,0.00010025,-0.00
 006270,0.00003153,-0.00000118,-0.00013748,-0.05811850,0.04436911,0.111
 77313,0.00133045,0.00041334,0.00030517,0.07110609,0.00071877,-0.002069
 43,0.00906663,-0.01494009,-0.01780779,-0.01773091,0.00121758,0.0001980
 6,-0.00010560,-0.00705429,0.00186345,0.00060891,-0.00342012,0.00620040
 ,-0.00308982,-0.00081821,0.00440241,-0.00187259,0.00050419,-0.00074922
 ,0.00026385,0.00574699,-0.00098579,0.00019383,-0.00093170,0.00067159,-
 0.00638636,-0.00013086,0.00071392,0.00060587,0.00348784,0.00775176,-0.
 01403920,0.00053209,-0.00070848,0.00089684,-0.00044782,-0.00067775,0.0
 0043529,-0.00007631,0.00024490,-0.00008620,0.05609821,-0.12233850,-0.2
 1751464,0.00059391,-0.00030380,0.00064421,-0.04108017,0.12359426,0.003
 71400,-0.00341170,0.01185179,-0.01956756,-0.01857238,-0.01793703,0.002
 78263,-0.00203163,-0.00684778,-0.00638397,0.00209522,0.00293683,-0.003
 71860,0.00392793,0.00670392,0.00152968,0.00149895,-0.00012743,0.000031
 82,-0.00094573,0.00073631,0.00502805,-0.00216131,0.00001252,-0.0042466
 0,0.00166740,-0.00552455,0.00030720,0.00006595,0.00067355,0.01966037,-
 0.02588456,-0.04363583,-0.00011708,0.00054638,-0.00029367,-0.00189034,
 -0.00086396,0.00093563,-0.00004770,0.00031221,0.00010165,0.14723050,-0
 .20602892,-0.67715881,-0.00409292,0.00167627,0.00187649,-0.14021949,0.
 24810988,0.72569642\\-0.00297127,0.00270701,0.00004511,0.00290545,-0.0
 0132958,-0.00003002,0.00004984,-0.00138923,-0.00001060,0.00003916,0.00
 000376,0.00002460,-0.00004156,-0.00000567,-0.00001408,-0.00000538,0.00
 001153,0.00000203,0.00000203,-0.00000212,0.00000106,0.00002060,-0.0000
 0283,-0.00000521,-0.00000757,0.00000198,-0.00001822,-0.00001070,0.0000
 0463,0.00000694,-0.00002577,-0.00000171,0.00004482,-0.00000220,0.00000
 093,-0.00000098,-0.00000166,-0.00000196,-0.00000121,0.00000091,0.00000
 141,0.00000006,0.00005177,0.00001992,0.00001592,-0.00000408,0.00000128
 ,0.00000168,0.00000045,-0.00001937,-0.00006191\\\@


 There ain't no surer way to find out whether you
 like people or hate them than to travel with them.
                                     -- Mark Twain
 Job cpu time:       0 days  2 hours 13 minutes 42.3 seconds.
 Elapsed time:       0 days  0 hours 11 minutes 46.5 seconds.
 File lengths (MBytes):  RWF=    182 Int=      0 D2E=      0 Chk=     32 Scr=      1
 Normal termination of Gaussian 16 at Fri Jun 10 13:50:12 2022.
