 Entering Gaussian System, Link 0=g16
 Input=ts_zmat_field_N25.gjf
 Output=ts_zmat_field_N25.out
 Initial command:
 /software/gaussian/g16-a03/l1.exe "/local_scratch/11171843/Gau-20651.inp" -scrdir="/local_scratch/11171843/"
 Entering Link 1 = /software/gaussian/g16-a03/l1.exe PID=     20652.
  
 Copyright (c) 1988,1990,1992,1993,1995,1998,2003,2009,2016,
            Gaussian, Inc.  All Rights Reserved.
  
 This is part of the Gaussian(R) 16 program.  It is based on
 the Gaussian(R) 09 system (copyright 2009, Gaussian, Inc.),
 the Gaussian(R) 03 system (copyright 2003, Gaussian, Inc.),
 the Gaussian(R) 98 system (copyright 1998, Gaussian, Inc.),
 the Gaussian(R) 94 system (copyright 1995, Gaussian, Inc.),
 the Gaussian 92(TM) system (copyright 1992, Gaussian, Inc.),
 the Gaussian 90(TM) system (copyright 1990, Gaussian, Inc.),
 the Gaussian 88(TM) system (copyright 1988, Gaussian, Inc.),
 the Gaussian 86(TM) system (copyright 1986, Carnegie Mellon
 University), and the Gaussian 82(TM) system (copyright 1983,
 Carnegie Mellon University). Gaussian is a federally registered
 trademark of Gaussian, Inc.
  
 This software contains proprietary and confidential information,
 including trade secrets, belonging to Gaussian, Inc.
  
 This software is provided under written license and may be
 used, copied, transmitted, or stored only in accord with that
 written license.
  
 The following legend is applicable only to US Government
 contracts under FAR:
  
                    RESTRICTED RIGHTS LEGEND
  
 Use, reproduction and disclosure by the US Government is
 subject to restrictions as set forth in subparagraphs (a)
 and (c) of the Commercial Computer Software - Restricted
 Rights clause in FAR 52.227-19.
  
 Gaussian, Inc.
 340 Quinnipiac St., Bldg. 40, Wallingford CT 06492
  
  
 ---------------------------------------------------------------
 Warning -- This program may not be used in any manner that
 competes with the business of Gaussian, Inc. or will provide
 assistance to any competitor of Gaussian, Inc.  The licensee
 of this program is prohibited from giving any competitor of
 Gaussian, Inc. access to this program.  By using this program,
 the user acknowledges that Gaussian, Inc. is engaged in the
 business of creating and licensing software in the field of
 computational chemistry and represents and warrants to the
 licensee that it is not a competitor of Gaussian, Inc. and that
 it will not use this program in any manner prohibited above.
 ---------------------------------------------------------------
  

 Cite this work as:
 Gaussian 16, Revision A.03,
 M. J. Frisch, G. W. Trucks, H. B. Schlegel, G. E. Scuseria, 
 M. A. Robb, J. R. Cheeseman, G. Scalmani, V. Barone, 
 G. A. Petersson, H. Nakatsuji, X. Li, M. Caricato, A. V. Marenich, 
 J. Bloino, B. G. Janesko, R. Gomperts, B. Mennucci, H. P. Hratchian, 
 J. V. Ortiz, A. F. Izmaylov, J. L. Sonnenberg, D. Williams-Young, 
 F. Ding, F. Lipparini, F. Egidi, J. Goings, B. Peng, A. Petrone, 
 T. Henderson, D. Ranasinghe, V. G. Zakrzewski, J. Gao, N. Rega, 
 G. Zheng, W. Liang, M. Hada, M. Ehara, K. Toyota, R. Fukuda, 
 J. Hasegawa, M. Ishida, T. Nakajima, Y. Honda, O. Kitao, H. Nakai, 
 T. Vreven, K. Throssell, J. A. Montgomery, Jr., J. E. Peralta, 
 F. Ogliaro, M. J. Bearpark, J. J. Heyd, E. N. Brothers, K. N. Kudin, 
 V. N. Staroverov, T. A. Keith, R. Kobayashi, J. Normand, 
 K. Raghavachari, A. P. Rendell, J. C. Burant, S. S. Iyengar, 
 J. Tomasi, M. Cossi, J. M. Millam, M. Klene, C. Adamo, R. Cammi, 
 J. W. Ochterski, R. L. Martin, K. Morokuma, O. Farkas, 
 J. B. Foresman, and D. J. Fox, Gaussian, Inc., Wallingford CT, 2016.
 
 ******************************************
 Gaussian 16:  ES64L-G16RevA.03 25-Dec-2016
                10-Jun-2022 
 ******************************************
 %nprocshared=12
 Will use up to   12 processors via shared memory.
 %chk=checkpoint.chk
 %mem=12GB
 ----------------------------------------------------------------------
 # Opt=(TS, CalcFC, noeigentest, Z-matrix, MaxStep=10) Field=read NoSym
 m B3LYP/Def2TZVP freq=noraman pop=none
 ----------------------------------------------------------------------
 1/5=1,8=10,10=4,11=1,18=40,26=3,38=1/1,3;
 2/12=2,15=1,17=6,18=5,29=3,40=1/2;
 3/5=44,7=101,11=2,14=-6,25=1,30=1,71=2,74=-5,140=1/1,2,3;
 4//1;
 5/5=2,38=5/2;
 8/6=4,10=90,11=11/1;
 11/6=1,8=1,9=11,15=111,16=1,31=1/1,2,10;
 10/6=1,13=1,31=1/2;
 7/10=1,18=20,25=1,30=1/1,2,3,16;
 1/5=1,8=10,10=4,11=1,18=40,26=3/3(2);
 2/15=1,29=3/2;
 99//99;
 2/15=1,29=3/2;
 3/5=44,7=101,11=2,14=-2,25=1,30=1,71=1,74=-5/1,2,3;
 4/5=5,16=3,69=1/1;
 5/5=2,38=5/2;
 7/30=1/1,2,3,16;
 1/5=1,8=10,11=1,18=40,26=3/3(-5);
 2/15=1,29=3/2;
 99/9=1/99;
 -----------------
 ts_zmat_initalOpt
 -----------------
 Symbolic Z-matrix:
 Charge =  0 Multiplicity = 1
 C
 C                    1    R2
 C                    1    R3       2    A3
 N                    1    R4       2    A4       3    D4       0
 C                    3    R5       1    A5       2    D5       0
 H                    2    R6       1    A6       3    D6       0
 H                    3    R7       1    A7       5    D7       0
 C                    2    R8       1    A8       6    D8       0
 C                    4    R9       1    A9       2    D9       0
 H                    4    R10      1    A10      9    D10      0
 C                    5    R11      3    A11      1    D11      0
 H                    5    R12      3    A12      11   D12      0
 H                    8    R13      2    A13      1    D13      0
 H                    9    R14      4    A14      1    D14      0
 C                    11   R15      5    A15      3    D15      0
 H                    11   R16      5    A16      15   D16      0
 O                    15   R17      11   A17      5    D17      0
       Variables:
  R2                    1.41561                  
  R3                    1.41638                  
  R4                    1.36115                  
  R5                    1.36916                  
  R6                    1.08329                  
  R7                    1.08165                  
  R8                    1.44402                  
  R9                    1.39127                  
  R10                   1.00598                  
  R11                   1.4159                   
  R12                   1.08422                  
  R13                   1.07683                  
  R14                   1.07689                  
  R15                   1.37596                  
  R16                   1.08553                  
  R17                   1.17946                  
  A3                  125.33964                  
  A4                  107.11247                  
  A5                  117.95383                  
  A6                  120.20679                  
  A7                  121.07605                  
  A8                  106.66957                  
  A9                  110.16664                  
  A10                 124.18827                  
  A11                 127.53786                  
  A12                 117.24586                  
  A13                 126.47033                  
  A14                 120.52344                  
  A15                 127.71795                  
  A16                 118.21837                  
  A17                 144.62153                  
  D4                 -171.07877                  
  D5                  -26.65023                  
  D6                  -44.12211                  
  D7                 -171.0814                   
  D8                 -144.90888                  
  D9                    0.70867                  
  D10                 168.71769                  
  D11                  -0.93794                  
  D12                -174.43414                  
  D13                 178.54653                  
  D14                 178.97264                  
  D15                   1.81544                  
  D16                -166.10212                  
  D17                 179.09517                  
 

 GradGradGradGradGradGradGradGradGradGradGradGradGradGradGradGradGradGrad
 Berny optimization.
 Initialization pass.
                       ----------------------------
                       !    Initial Parameters    !
                       ! (Angstroms and Degrees)  !
 ----------------------                            ----------------------
 !      Name          Value   Derivative information (Atomic Units)     !
 ------------------------------------------------------------------------
 !       R2          1.4156   calculate D2E/DX2 analytically            !
 !       R3          1.4164   calculate D2E/DX2 analytically            !
 !       R4          1.3611   calculate D2E/DX2 analytically            !
 !       R5          1.3692   calculate D2E/DX2 analytically            !
 !       R6          1.0833   calculate D2E/DX2 analytically            !
 !       R7          1.0816   calculate D2E/DX2 analytically            !
 !       R8          1.444    calculate D2E/DX2 analytically            !
 !       R9          1.3913   calculate D2E/DX2 analytically            !
 !       R10         1.006    calculate D2E/DX2 analytically            !
 !       R11         1.4159   calculate D2E/DX2 analytically            !
 !       R12         1.0842   calculate D2E/DX2 analytically            !
 !       R13         1.0768   calculate D2E/DX2 analytically            !
 !       R14         1.0769   calculate D2E/DX2 analytically            !
 !       R15         1.376    calculate D2E/DX2 analytically            !
 !       R16         1.0855   calculate D2E/DX2 analytically            !
 !       R17         1.1795   calculate D2E/DX2 analytically            !
 !       A3        125.3396   calculate D2E/DX2 analytically            !
 !       A4        107.1125   calculate D2E/DX2 analytically            !
 !       A5        117.9538   calculate D2E/DX2 analytically            !
 !       A6        120.2068   calculate D2E/DX2 analytically            !
 !       A7        121.0761   calculate D2E/DX2 analytically            !
 !       A8        106.6696   calculate D2E/DX2 analytically            !
 !       A9        110.1666   calculate D2E/DX2 analytically            !
 !       A10       124.1883   calculate D2E/DX2 analytically            !
 !       A11       127.5379   calculate D2E/DX2 analytically            !
 !       A12       117.2459   calculate D2E/DX2 analytically            !
 !       A13       126.4703   calculate D2E/DX2 analytically            !
 !       A14       120.5234   calculate D2E/DX2 analytically            !
 !       A15       127.718    calculate D2E/DX2 analytically            !
 !       A16       118.2184   calculate D2E/DX2 analytically            !
 !       A17       144.6215   calculate D2E/DX2 analytically            !
 !       D4       -171.0788   calculate D2E/DX2 analytically            !
 !       D5        -26.6502   calculate D2E/DX2 analytically            !
 !       D6        -44.1221   calculate D2E/DX2 analytically            !
 !       D7       -171.0814   calculate D2E/DX2 analytically            !
 !       D8       -144.9089   calculate D2E/DX2 analytically            !
 !       D9          0.7087   calculate D2E/DX2 analytically            !
 !       D10       168.7177   calculate D2E/DX2 analytically            !
 !       D11        -0.9379   calculate D2E/DX2 analytically            !
 !       D12      -174.4341   calculate D2E/DX2 analytically            !
 !       D13       178.5465   calculate D2E/DX2 analytically            !
 !       D14       178.9726   calculate D2E/DX2 analytically            !
 !       D15         1.8154   calculate D2E/DX2 analytically            !
 !       D16      -166.1021   calculate D2E/DX2 analytically            !
 !       D17       179.0952   calculate D2E/DX2 analytically            !
 ------------------------------------------------------------------------
 Trust Radius=1.00D-01 FncErr=1.00D-07 GrdErr=1.00D-06 EigMax=2.50D+02 EigMin=1.00D-04
 Number of steps in this run=     55 maximum allowed number of steps=    100.
 Search for a saddle point of order  1.
 GradGradGradGradGradGradGradGradGradGradGradGradGradGradGradGradGradGrad

 ---------------------------------------------------------------------------------------------------
                            Z-MATRIX (ANGSTROMS AND DEGREES)
   CD    Cent   Atom    N1       Length/X        N2       Alpha/Y        N3        Beta/Z          J
 ---------------------------------------------------------------------------------------------------
      1      1  C 
      2      2  C        1   1.415609(     1)
      3      3  C        1   1.416382(     2)      2  125.340(    17)
      4      4  N        1   1.361147(     3)      2  107.112(    18)      3 -171.079(    32)      0
      5      5  C        3   1.369165(     4)      1  117.954(    19)      2  -26.650(    33)      0
      6      6  H        2   1.083293(     5)      1  120.207(    20)      3  -44.122(    34)      0
      7      7  H        3   1.081646(     6)      1  121.076(    21)      5 -171.081(    35)      0
      8      8  C        2   1.444016(     7)      1  106.670(    22)      6 -144.909(    36)      0
      9      9  C        4   1.391275(     8)      1  110.167(    23)      2    0.709(    37)      0
     10     10  H        4   1.005983(     9)      1  124.188(    24)      9  168.718(    38)      0
     11     11  C        5   1.415903(    10)      3  127.538(    25)      1   -0.938(    39)      0
     12     12  H        5   1.084224(    11)      3  117.246(    26)     11 -174.434(    40)      0
     13     13  H        8   1.076829(    12)      2  126.470(    27)      1  178.547(    41)      0
     14     14  H        9   1.076892(    13)      4  120.523(    28)      1  178.973(    42)      0
     15     15  C       11   1.375964(    14)      5  127.718(    29)      3    1.815(    43)      0
     16     16  H       11   1.085535(    15)      5  118.218(    30)     15 -166.102(    44)      0
     17     17  O       15   1.179459(    16)     11  144.622(    31)      5  179.095(    45)      0
 ---------------------------------------------------------------------------------------------------
                         Z-Matrix orientation:                         
 ---------------------------------------------------------------------
 Center     Atomic      Atomic             Coordinates (Angstroms)
 Number     Number       Type             X           Y           Z
 ---------------------------------------------------------------------
      1          6           0        0.000000    0.000000    0.000000
      2          6           0        0.000000    0.000000    1.415609
      3          6           0        1.155396    0.000000   -0.819267
      4          7           0       -1.285150    0.201737   -0.400515
      5          6           0        2.304179    0.542476   -0.308748
      6          1           0        0.672057   -0.651772    1.960639
      7          1           0        1.100438   -0.282147   -1.862018
      8          6           0       -1.366183    0.217140    1.829828
      9          6           0       -2.115115    0.348372    0.706419
     10          1           0       -1.557398    0.399041   -1.348647
     11          6           0        2.486388    1.136742    0.963427
     12          1           0        3.159947    0.606639   -0.971384
     13          1           0       -1.729964    0.252718    2.842724
     14          1           0       -3.168461    0.532981    0.579617
     15          6           0        1.559845    1.266609    1.972352
     16          1           0        3.370513    1.745908    1.123506
     17          8           0        1.381984    1.660277    3.069856
 ---------------------------------------------------------------------
                    Distance matrix (angstroms):
                    1          2          3          4          5
     1  C    0.000000
     2  C    1.415609   0.000000
     3  C    1.416382   2.515872   0.000000
     4  N    1.361147   2.233969   2.484415   0.000000
     5  C    2.387225   2.928639   1.369165   3.606634   0.000000
     6  H    2.172688   1.083293   2.895911   3.183424   3.039764
     7  H    2.181211   3.468921   1.081646   2.839219   2.131114
     8  C    2.293878   1.444016   3.663770   2.231868   4.260387
     9  C    2.257011   2.257881   3.625648   1.391275   4.538545
    10  H    2.098468   3.197786   2.792620   1.005983   4.001717
    11  C    2.898707   2.771061   2.498344   4.118140   1.415903
    12  H    3.361080   4.006371   2.099851   4.499858   1.084224
    13  H    3.337322   2.256833   4.668977   3.273997   5.127381
    14  H    3.264838   3.319954   4.575662   2.148776   5.544282
    15  C    2.815597   2.085036   3.092089   3.854666   2.506355
    16  H    3.958639   3.807083   3.424807   5.136371   2.153292
    17  O    3.753720   2.720833   4.234754   4.613504   3.676260
                    6          7          8          9         10
     6  H    0.000000
     7  H    3.864303   0.000000
     8  C    2.219581   4.468023   0.000000
     9  C    3.215849   4.163436   1.356528   0.000000
    10  H    4.126263   2.791354   3.189413   2.130003   0.000000
    11  C    2.735875   3.452137   4.054457   4.675618   4.716152
    12  H    4.045979   2.413452   5.337073   5.541480   4.736957
    13  H    2.714016   5.516507   1.076829   2.172853   4.197473
    14  H    4.249757   4.984928   2.216075   1.076892   2.516280
    15  C    2.113880   4.160780   3.111806   3.993879   4.636692
    16  H    3.705581   4.263755   5.027158   5.676195   5.675376
    17  O    2.660814   5.308075   3.342564   4.420026   5.454709
                   11         12         13         14         15
    11  C    0.000000
    12  H    2.116172   0.000000
    13  H    4.700093   6.211594   0.000000
    14  H    5.699925   6.516116   2.696196   0.000000
    15  C    1.375964   3.414889   3.550825   4.983452   0.000000
    16  H    1.085535   2.393916   5.585713   6.672720   2.056402
    17  O    2.435332   4.539044   3.423015   5.308355   1.179459
                   16         17
    16  H    0.000000
    17  O    2.783857   0.000000
 Symmetry turned off by external request.
 Stoichiometry    C8H7NO
 Framework group  C1[X(C8H7NO)]
 Deg. of freedom    45
 Full point group                 C1      NOp   1
 Rotational constants (GHZ):           2.1586789           1.3713930           0.8800753
 Standard basis: def2TZVP (5D, 7F)
 The following finite field(s) will be applied:
 An electric field of              0.0000  0.0009  0.0023
   352 basis functions,   566 primitive gaussians,   402 cartesian basis functions
    35 alpha electrons       35 beta electrons
       nuclear repulsion energy       480.1692800993 Hartrees.
 NAtoms=   17 NActive=   17 NUniq=   17 SFac= 1.00D+00 NAtFMM=   60 NAOKFM=F Big=F
 Integral buffers will be    131072 words long.
 Raffenetti 2 integral format.
 Two-electron integral symmetry is turned off.
 One-electron integrals computed using PRISM.
   1 Symmetry operations used in ECPInt.
 ECPInt:  NShTT=    9591 NPrTT=   29644 LenC2=    9332 LenP2D=   22719.
 LDataN:  DoStor=T MaxTD1= 6 Len=  172
 NBasis=   352 RedAO= T EigKep=  3.58D-05  NBF=   352
 NBsUse=   352 1.00D-06 EigRej= -1.00D+00 NBFU=   352
 The nuclear repulsion energy is now       480.4945414260 hartrees.
 ExpMin= 9.52D-02 ExpMax= 2.70D+04 ExpMxC= 9.22D+02 IAcc=3 IRadAn=         5 AccDes= 0.00D+00
 Harris functional with IExCor=  402 and IRadAn=       5 diagonalized for initial guess.
 HarFok:  IExCor=  402 AccDes= 0.00D+00 IRadAn=         5 IDoV= 1 UseB2=F ITyADJ=14
 ICtDFT=  3500011 ScaDFX=  1.000000  1.000000  1.000000  1.000000
 FoFCou: FMM=F IPFlag=           0 FMFlag=      100000 FMFlg1=           0
         NFxFlg=           0 DoJE=T BraDBF=F KetDBF=T FulRan=T
         wScrn=  0.000000 ICntrl=       500 IOpCl=  0 I1Cent=   200000004 NGrid=           0
         NMat0=    1 NMatS0=      1 NMatT0=    0 NMatD0=    1 NMtDS0=    0 NMtDT0=    0
 Symmetry not used in FoFCou.
 Requested convergence on RMS density matrix=1.00D-08 within 128 cycles.
 Requested convergence on MAX density matrix=1.00D-06.
 Requested convergence on             energy=1.00D-06.
 No special actions if energy rises.
 Integral accuracy reduced to 1.0D-05 until final iterations.
 Initial convergence to 1.0D-05 achieved.  Increase integral accuracy.
 SCF Done:  E(RB3LYP) =  -439.138901603     A.U. after   15 cycles
            NFock= 15  Conv=0.66D-08     -V/T= 2.0049
 DoSCS=F DFT=T ScalE2(SS,OS)=  1.000000  1.000000
 Range of M.O.s used for correlation:     1   352
 NBasis=   352 NAE=    35 NBE=    35 NFC=     0 NFV=     0
 NROrb=    352 NOA=    35 NOB=    35 NVA=   317 NVB=   317

 **** Warning!!: The largest alpha MO coefficient is  0.27090921D+02

   1 Symmetry operations used in ECPInt.
 ECPInt:  NShTT=    9591 NPrTT=   29644 LenC2=    9332 LenP2D=   22719.
 LDataN:  DoStor=T MaxTD1= 7 Len=  274
 Symmetrizing basis deriv contribution to polar:
 IMax=3 JMax=2 DiffMx= 0.00D+00
 G2DrvN: will do    18 centers at a time, making    1 passes.
 Calling FoFCou, ICntrl=  3107 FMM=F I1Cent=   0 AccDes= 0.00D+00.
 End of G2Drv F.D. properties file   721 does not exist.
 End of G2Drv F.D. properties file   722 does not exist.
 End of G2Drv F.D. properties file   788 does not exist.
          IDoAtm=11111111111111111
          Differentiating once with respect to nuclear coordinates.
 CalDSu exits because no D1Ps are significant.
          There are    54 degrees of freedom in the 1st order CPHF.  IDoFFX=6 NUNeed=     0.
     48 vectors produced by pass  0 Test12= 2.05D-14 1.85D-09 XBig12= 1.67D-01 1.19D-01.
 AX will form    48 AO Fock derivatives at one time.
     48 vectors produced by pass  1 Test12= 2.05D-14 1.85D-09 XBig12= 4.68D-02 5.10D-02.
     48 vectors produced by pass  2 Test12= 2.05D-14 1.85D-09 XBig12= 4.00D-04 3.05D-03.
     48 vectors produced by pass  3 Test12= 2.05D-14 1.85D-09 XBig12= 2.02D-06 1.41D-04.
     48 vectors produced by pass  4 Test12= 2.05D-14 1.85D-09 XBig12= 6.45D-09 9.20D-06.
     48 vectors produced by pass  5 Test12= 2.05D-14 1.85D-09 XBig12= 1.46D-11 5.36D-07.
     22 vectors produced by pass  6 Test12= 2.05D-14 1.85D-09 XBig12= 2.62D-14 2.02D-08.
 InvSVY:  IOpt=1 It=  1 EMax= 3.89D-16
 Solved reduced A of dimension   310 with    54 vectors.
 End of Minotr F.D. properties file   721 does not exist.
 End of Minotr F.D. properties file   722 does not exist.
 End of Minotr F.D. properties file   788 does not exist.
   1 Symmetry operations used in ECPInt.
 ECPInt:  NShTT=    9591 NPrTT=   29644 LenC2=    9332 LenP2D=   22719.
 LDataN:  DoStor=T MaxTD1= 8 Len=  415
 Calling FoFJK, ICntrl=    100147 FMM=F ISym2X=0 I1Cent= 0 IOpClX= 0 NMat=1 NMatS=1 NMatT=0.
 -------------------------------------------------------------------
 Center     Atomic                   Forces (Hartrees/Bohr)
 Number     Number              X              Y              Z
 -------------------------------------------------------------------
      1        6          -0.000370291    0.000201277   -0.000831940
      2        6           0.001179890    0.000839868    0.001034881
      3        6           0.000427095    0.000424799    0.000283936
      4        7           0.000317995    0.000282396    0.000950427
      5        6          -0.000482704   -0.000908786   -0.001372220
      6        1          -0.000081958   -0.000301860   -0.000218466
      7        1           0.000052272   -0.000029178    0.000189890
      8        6          -0.000067448    0.000152380    0.000065446
      9        6           0.000447275   -0.000028267   -0.000585631
     10        1          -0.000187427   -0.000401480   -0.000527336
     11        6          -0.000882171    0.000509091    0.002255841
     12        1          -0.000205368   -0.000067188   -0.000083543
     13        1          -0.000090656   -0.000100547   -0.000005927
     14        1          -0.000001646   -0.000136986   -0.000178155
     15        6          -0.000026284   -0.002275232   -0.005727252
     16        1           0.000159288    0.000090839   -0.000157567
     17        8          -0.000187862    0.001748874    0.004907617
 -------------------------------------------------------------------
 Cartesian Forces:  Max     0.005727252 RMS     0.001261868
 -----------------------------------------------------------------------------------------------
                       Internal Coordinate Forces (Hartree/Bohr or radian)
  Cent   Atom   N1       Length/X         N2         Alpha/Y        N3         Beta/Z          J
 -----------------------------------------------------------------------------------------------
      1  C 
      2  C        1   0.000876(     1)
      3  C        1  -0.001106(     2)      2  -0.002713(    17)
      4  N        1  -0.000486(     3)      2   0.001986(    18)      3  -0.001156(    32)     0
      5  C        3  -0.001787(     4)      1  -0.004435(    19)      2   0.001177(    33)     0
      6  H        2   0.000021(     5)      1  -0.000542(    20)      3  -0.000478(    34)     0
      7  H        3  -0.000178(     6)      1   0.000059(    21)      5  -0.000147(    35)     0
      8  C        2   0.000174(     7)      1  -0.000118(    22)      6   0.000006(    36)     0
      9  C        4  -0.000891(     8)      1   0.000611(    23)      2   0.000544(    37)     0
     10  H        4   0.000469(     9)      1   0.000021(    24)      9   0.000793(    38)     0
     11  C        5   0.001059(    10)      3  -0.003709(    25)      1   0.001031(    39)     0
     12  H        5  -0.000115(    11)      3  -0.000409(    26)     11   0.000045(    40)     0
     13  H        8   0.000022(    12)      2   0.000142(    27)      1  -0.000187(    41)     0
     14  H        9  -0.000001(    13)      4  -0.000366(    28)      1   0.000237(    42)     0
     15  C       11  -0.000506(    14)      5  -0.000945(    29)      3   0.000410(    43)     0
     16  H       11   0.000157(    15)      5  -0.000366(    30)     15   0.000075(    44)     0
     17  O       15   0.005179(    16)     11  -0.001279(    31)      5  -0.000226(    45)     0
 -----------------------------------------------------------------------------------------------
 Internal  Forces:  Max     0.005178660 RMS     0.001401708

 GradGradGradGradGradGradGradGradGradGradGradGradGradGradGradGradGradGrad
 Berny optimization.
 Search for a saddle point.
 Step number   1 out of a maximum of   55
 All quantities printed in internal units (Hartrees-Bohrs-Radians)
 Swapping is turned off.
 Second derivative matrix not updated -- analytic derivatives used.
 ITU=  0
     Eigenvalues ---   -0.21602   0.01542   0.01754   0.02237   0.03408
     Eigenvalues ---    0.04735   0.05251   0.05524   0.06844   0.08366
     Eigenvalues ---    0.11327   0.14490   0.15303   0.16050   0.17221
     Eigenvalues ---    0.18907   0.19219   0.20626   0.21716   0.22995
     Eigenvalues ---    0.27271   0.30796   0.31970   0.33917   0.34788
     Eigenvalues ---    0.35144   0.35740   0.36253   0.37060   0.37245
     Eigenvalues ---    0.37443   0.39614   0.40197   0.46398   0.47426
     Eigenvalues ---    0.48988   0.51861   0.56341   0.64257   0.79752
     Eigenvalues ---    0.94735   1.74548   2.05855   2.26422  16.57263
 Eigenvectors required to have negative eigenvalues:
                          A17       A5        D6        D8        R15
   1                    0.63249   0.28922   0.28730  -0.24512  -0.22719
                          A3        A15       A6        A11       R3
   1                    0.22545   0.21624   0.17206   0.16413   0.14711
 RFO step:  Lambda0=9.763959964D-05 Lambda=-1.53148522D-04.
 Linear search not attempted -- option 19 set.
 Variable       Old X    -DE/DX   Delta X   Delta X   Delta X     New X
                                 (Linear)    (Quad)   (Total)
    R2        2.67511   0.00088   0.00000  -0.00172  -0.00172   2.67339
    R3        2.67657  -0.00111   0.00000   0.00255   0.00255   2.67912
    R4        2.57220  -0.00049   0.00000  -0.00258  -0.00258   2.56961
    R5        2.58735  -0.00179   0.00000  -0.00494  -0.00494   2.58241
    R6        2.04713   0.00002   0.00000  -0.00093  -0.00093   2.04620
    R7        2.04401  -0.00018   0.00000  -0.00032  -0.00032   2.04370
    R8        2.72879   0.00017   0.00000  -0.00133  -0.00133   2.72746
    R9        2.62913  -0.00089   0.00000  -0.00377  -0.00377   2.62536
   R10        1.90103   0.00047   0.00000   0.00081   0.00081   1.90184
   R11        2.67567   0.00106   0.00000   0.00719   0.00719   2.68286
   R12        2.04889  -0.00012   0.00000  -0.00050  -0.00050   2.04839
   R13        2.03491   0.00002   0.00000   0.00009   0.00009   2.03500
   R14        2.03503  -0.00000   0.00000  -0.00005  -0.00005   2.03498
   R15        2.60020  -0.00051   0.00000  -0.00777  -0.00777   2.59243
   R16        2.05136   0.00016   0.00000   0.00069   0.00069   2.05205
   R17        2.22886   0.00518   0.00000   0.00453   0.00453   2.23338
    A3        2.18759  -0.00271   0.00000  -0.00060  -0.00060   2.18699
    A4        1.86947   0.00199   0.00000   0.00170   0.00170   1.87116
    A5        2.05868  -0.00444   0.00000   0.00091   0.00091   2.05960
    A6        2.09800  -0.00054   0.00000   0.00224   0.00224   2.10024
    A7        2.11318   0.00006   0.00000  -0.00001  -0.00001   2.11316
    A8        1.86174  -0.00012   0.00000  -0.00141  -0.00141   1.86032
    A9        1.92277   0.00061   0.00000   0.00036   0.00036   1.92313
   A10        2.16749   0.00002   0.00000   0.00271   0.00271   2.17020
   A11        2.22596  -0.00371   0.00000  -0.00096  -0.00096   2.22500
   A12        2.04633  -0.00041   0.00000   0.00065   0.00065   2.04697
   A13        2.20732   0.00014   0.00000   0.00140   0.00140   2.20872
   A14        2.10353  -0.00037   0.00000  -0.00055  -0.00055   2.10298
   A15        2.22910  -0.00094   0.00000   0.00562   0.00562   2.23472
   A16        2.06330  -0.00037   0.00000  -0.00360  -0.00360   2.05970
   A17        2.52412  -0.00128   0.00000   0.00884   0.00884   2.53296
    D4       -2.98589  -0.00116   0.00000  -0.01013  -0.01013  -2.99601
    D5       -0.46513   0.00118   0.00000  -0.01099  -0.01099  -0.47612
    D6       -0.77008  -0.00048   0.00000   0.02195   0.02195  -0.74813
    D7       -2.98593  -0.00015   0.00000  -0.00870  -0.00870  -2.99464
    D8       -2.52914   0.00001   0.00000  -0.00963  -0.00963  -2.53877
    D9        0.01237   0.00054   0.00000  -0.00381  -0.00381   0.00856
   D10        2.94468   0.00079   0.00000   0.03679   0.03679   2.98147
   D11       -0.01637   0.00103   0.00000  -0.00186  -0.00186  -0.01823
   D12       -3.04445   0.00005   0.00000  -0.00142  -0.00142  -3.04587
   D13        3.11622  -0.00019   0.00000  -0.00356  -0.00356   3.11267
   D14        3.12366   0.00024   0.00000   0.00584   0.00584   3.12950
   D15        0.03169   0.00041   0.00000   0.00812   0.00812   0.03980
   D16       -2.89903   0.00008   0.00000  -0.00584  -0.00584  -2.90486
   D17        3.12580  -0.00023   0.00000  -0.01308  -0.01308   3.11272
         Item               Value     Threshold  Converged?
 Maximum Force            0.005179     0.000450     NO 
 RMS     Force            0.001402     0.000300     NO 
 Maximum Displacement     0.036790     0.001800     NO 
 RMS     Displacement     0.008029     0.001200     NO 
 Predicted change in Energy=-2.792040D-05
 GradGradGradGradGradGradGradGradGradGradGradGradGradGradGradGradGradGrad

 ---------------------------------------------------------------------------------------------------
                            Z-MATRIX (ANGSTROMS AND DEGREES)
   CD    Cent   Atom    N1       Length/X        N2       Alpha/Y        N3        Beta/Z          J
 ---------------------------------------------------------------------------------------------------
      1      1  C 
      2      2  C        1   1.414698(     1)
      3      3  C        1   1.417730(     2)      2  125.305(    17)
      4      4  N        1   1.359780(     3)      2  107.210(    18)      3 -171.659(    32)      0
      5      5  C        3   1.366551(     4)      1  118.006(    19)      2  -27.280(    33)      0
      6      6  H        2   1.082801(     5)      1  120.335(    20)      3  -42.865(    34)      0
      7      7  H        3   1.081477(     6)      1  121.075(    21)      5 -171.580(    35)      0
      8      8  C        2   1.443310(     7)      1  106.589(    22)      6 -145.461(    36)      0
      9      9  C        4   1.389280(     8)      1  110.187(    23)      2    0.491(    37)      0
     10     10  H        4   1.006413(     9)      1  124.343(    24)      9  170.826(    38)      0
     11     11  C        5   1.419710(    10)      3  127.483(    25)      1   -1.044(    39)      0
     12     12  H        5   1.083961(    11)      3  117.283(    26)     11 -174.515(    40)      0
     13     13  H        8   1.076876(    12)      2  126.551(    27)      1  178.343(    41)      0
     14     14  H        9   1.076863(    13)      4  120.492(    28)      1  179.307(    42)      0
     15     15  C       11   1.371854(    14)      5  128.040(    29)      3    2.281(    43)      0
     16     16  H       11   1.085898(    15)      5  118.012(    30)     15 -166.436(    44)      0
     17     17  O       15   1.181854(    16)     11  145.128(    31)      5  178.346(    45)      0
 ---------------------------------------------------------------------------------------------------
                         Z-Matrix orientation:                         
 ---------------------------------------------------------------------
 Center     Atomic      Atomic             Coordinates (Angstroms)
 Number     Number       Type             X           Y           Z
 ---------------------------------------------------------------------
      1          6           0        0.000000    0.000000    0.000000
      2          6           0        0.000000    0.000000    1.414698
      3          6           0        1.156986    0.000000   -0.819355
      4          7           0       -1.285161    0.188427   -0.402315
      5          6           0        2.300394    0.552993   -0.315096
      6          1           0        0.684993   -0.635745    1.961572
      7          1           0        1.105954   -0.299422   -1.857302
      8          6           0       -1.368662    0.200280    1.826760
      9          6           0       -2.118352    0.321869    0.701354
     10          1           0       -1.563104    0.355981   -1.354964
     11          6           0        2.477908    1.163267    0.954405
     12          1           0        3.156754    0.613635   -0.976868
     13          1           0       -1.736153    0.228771    2.838591
     14          1           0       -3.174148    0.489670    0.571842
     15          6           0        1.559802    1.293947    1.965338
     16          1           0        3.358653    1.780354    1.104953
     17          8           0        1.377524    1.687519    3.064727
 ---------------------------------------------------------------------
                    Distance matrix (angstroms):
                    1          2          3          4          5
     1  C    0.000000
     2  C    1.414698   0.000000
     3  C    1.417730   2.515871   0.000000
     4  N    1.359780   2.233535   2.484654   0.000000
     5  C    2.386818   2.930836   1.366551   3.605097   0.000000
     6  H    2.172821   1.082801   2.891454   3.185707   3.034112
     7  H    2.182283   3.466810   1.081477   2.841199   2.128779
     8  C    2.291376   1.443310   3.663460   2.230671   4.263089
     9  C    2.254531   2.258290   3.625464   1.389280   4.540034
    10  H    2.099034   3.200163   2.795083   1.006413   4.005841
    11  C    2.898984   2.775804   2.498849   4.117243   1.419710
    12  H    3.360940   4.007647   2.097721   4.499058   1.083961
    13  H    3.335290   2.256997   4.669385   3.272383   5.132696
    14  H    3.262207   3.320451   4.575360   2.146625   5.546285
    15  C    2.823090   2.100116   3.096946   3.862871   2.509556
    16  H    3.958678   3.813942   3.423443   5.135280   2.154731
    17  O    3.760032   2.732744   4.240572   4.621423   3.682667
                    6          7          8          9         10
     6  H    0.000000
     7  H    3.856698   0.000000
     8  C    2.221398   4.466066   0.000000
     9  C    3.219304   4.162796   1.357703   0.000000
    10  H    4.127575   2.793881   3.191461   2.130236   0.000000
    11  C    2.732284   3.453609   4.060105   4.679487   4.723841
    12  H    4.037943   2.411353   5.339531   5.543312   4.741984
    13  H    2.716339   5.514342   1.076876   2.173137   4.199051
    14  H    4.253337   4.984243   2.217734   1.076863   2.515137
    15  C    2.118730   4.166220   3.129091   4.008916   4.653679
    16  H    3.704024   4.263224   5.036383   5.682223   5.683637
    17  O    2.663476   5.314890   3.359461   4.435277   5.473021
                   11         12         13         14         15
    11  C    0.000000
    12  H    2.119608   0.000000
    13  H    4.709751   6.216622   0.000000
    14  H    5.704895   6.518757   2.697044   0.000000
    15  C    1.371854   3.416088   3.572182   4.999897   0.000000
    16  H    1.085898   2.394989   5.600889   6.680386   2.052492
    17  O    2.437036   4.544598   3.445877   5.326071   1.181854
                   16         17
    16  H    0.000000
    17  O    2.788226   0.000000
 Symmetry turned off by external request.
 Stoichiometry    C8H7NO
 Framework group  C1[X(C8H7NO)]
 Deg. of freedom    45
 Full point group                 C1      NOp   1
 Rotational constants (GHZ):           2.1574788           1.3657032           0.8777982
 Standard basis: def2TZVP (5D, 7F)
 The following finite field(s) will be applied:
 An electric field of              0.0000  0.0009  0.0023
   352 basis functions,   566 primitive gaussians,   402 cartesian basis functions
    35 alpha electrons       35 beta electrons
       nuclear repulsion energy       479.8280531018 Hartrees.
 NAtoms=   17 NActive=   17 NUniq=   17 SFac= 1.00D+00 NAtFMM=   60 NAOKFM=F Big=F
 Integral buffers will be    131072 words long.
 Raffenetti 2 integral format.
 Two-electron integral symmetry is turned off.
 One-electron integrals computed using PRISM.
   1 Symmetry operations used in ECPInt.
 ECPInt:  NShTT=    9591 NPrTT=   29644 LenC2=    9331 LenP2D=   22713.
 LDataN:  DoStor=T MaxTD1= 6 Len=  172
 NBasis=   352 RedAO= T EigKep=  3.58D-05  NBF=   352
 NBsUse=   352 1.00D-06 EigRej= -1.00D+00 NBFU=   352
 The nuclear repulsion energy is now       480.1523918420 hartrees.
 Initial guess from the checkpoint file:  "checkpoint.chk"
 B after Tr=     0.005182   -0.011238   -0.001273
         Rot=    0.999984    0.002751   -0.000350   -0.004932 Ang=   0.65 deg.
 ExpMin= 9.52D-02 ExpMax= 2.70D+04 ExpMxC= 9.22D+02 IAcc=2 IRadAn=         4 AccDes= 0.00D+00
 Harris functional with IExCor=  402 and IRadAn=       4 diagonalized for initial guess.
 HarFok:  IExCor=  402 AccDes= 0.00D+00 IRadAn=         4 IDoV= 1 UseB2=F ITyADJ=14
 ICtDFT=  3500011 ScaDFX=  1.000000  1.000000  1.000000  1.000000
 FoFCou: FMM=F IPFlag=           0 FMFlag=      100000 FMFlg1=           0
         NFxFlg=           0 DoJE=T BraDBF=F KetDBF=T FulRan=T
         wScrn=  0.000000 ICntrl=       500 IOpCl=  0 I1Cent=   200000004 NGrid=           0
         NMat0=    1 NMatS0=      1 NMatT0=    0 NMatD0=    1 NMtDS0=    0 NMtDT0=    0
 Symmetry not used in FoFCou.
 Requested convergence on RMS density matrix=1.00D-08 within 128 cycles.
 Requested convergence on MAX density matrix=1.00D-06.
 Requested convergence on             energy=1.00D-06.
 No special actions if energy rises.
 Integral accuracy reduced to 1.0D-05 until final iterations.
 Initial convergence to 1.0D-05 achieved.  Increase integral accuracy.
 SCF Done:  E(RB3LYP) =  -439.138929358     A.U. after   12 cycles
            NFock= 12  Conv=0.32D-08     -V/T= 2.0049
   1 Symmetry operations used in ECPInt.
 ECPInt:  NShTT=    9591 NPrTT=   29644 LenC2=    9331 LenP2D=   22713.
 LDataN:  DoStor=T MaxTD1= 7 Len=  274
 Calling FoFJK, ICntrl=      2127 FMM=F ISym2X=0 I1Cent= 0 IOpClX= 0 NMat=1 NMatS=1 NMatT=0.
 -------------------------------------------------------------------
 Center     Atomic                   Forces (Hartrees/Bohr)
 Number     Number              X              Y              Z
 -------------------------------------------------------------------
      1        6           0.000771687   -0.000707978   -0.000024186
      2        6          -0.000706839    0.000363982    0.000024352
      3        6          -0.000047819    0.000341269    0.000008515
      4        7          -0.000068476    0.000013026   -0.000044739
      5        6           0.000041505    0.000000065    0.000008113
      6        1           0.000004368   -0.000005134   -0.000000215
      7        1          -0.000002564    0.000001092   -0.000001042
      8        6          -0.000019548    0.000006795    0.000002647
      9        6           0.000019191   -0.000007718    0.000040145
     10        1           0.000023909   -0.000009776   -0.000017073
     11        6           0.000023106    0.000011967   -0.000038746
     12        1           0.000002731   -0.000002947    0.000001224
     13        1           0.000001868    0.000001484    0.000001764
     14        1          -0.000000778   -0.000001624   -0.000000348
     15        6          -0.000040941   -0.000016832   -0.000003926
     16        1           0.000003218   -0.000001210   -0.000000501
     17        8          -0.000004618    0.000013539    0.000044016
 -------------------------------------------------------------------
 Cartesian Forces:  Max     0.000771687 RMS     0.000191348
 -----------------------------------------------------------------------------------------------
                       Internal Coordinate Forces (Hartree/Bohr or radian)
  Cent   Atom   N1       Length/X         N2         Alpha/Y        N3         Beta/Z          J
 -----------------------------------------------------------------------------------------------
      1  C 
      2  C        1   0.000029(     1)
      3  C        1  -0.000031(     2)      2  -0.000055(    17)
      4  N        1   0.000030(     3)      2  -0.000014(    18)      3  -0.000035(    32)     0
      5  C        3   0.000027(     4)      1  -0.000060(    19)      2   0.000001(    33)     0
      6  H        2   0.000006(     5)      1  -0.000007(    20)      3  -0.000017(    34)     0
      7  H        3   0.000001(     6)      1  -0.000005(    21)      5   0.000003(    35)     0
      8  C        2   0.000019(     7)      1   0.000001(    22)      6  -0.000016(    36)     0
      9  C        4   0.000020(     8)      1  -0.000104(    23)      2  -0.000002(    37)     0
     10  H        4   0.000008(     9)      1  -0.000054(    24)      9   0.000015(    38)     0
     11  C        5   0.000002(    10)      3  -0.000064(    25)      1  -0.000014(    39)     0
     12  H        5   0.000001(    11)      3   0.000002(    26)     11  -0.000007(    40)     0
     13  H        8   0.000001(    12)      2  -0.000004(    27)      1   0.000003(    41)     0
     14  H        9   0.000001(    13)      4  -0.000001(    28)      1   0.000003(    42)     0
     15  C       11   0.000060(    14)      5  -0.000023(    29)      3   0.000007(    43)     0
     16  H       11   0.000002(    15)      5  -0.000003(    30)     15  -0.000004(    44)     0
     17  O       15   0.000046(    16)     11  -0.000004(    31)      5  -0.000003(    45)     0
 -----------------------------------------------------------------------------------------------
 Internal  Forces:  Max     0.000103622 RMS     0.000028889

 GradGradGradGradGradGradGradGradGradGradGradGradGradGradGradGradGradGrad
 Berny optimization.
 Search for a saddle point.
 Step number   2 out of a maximum of   55
 All quantities printed in internal units (Hartrees-Bohrs-Radians)
 Swapping is turned off.
 Update second derivatives using D2CorN and points    1    2
 ITU=  0  0
     Eigenvalues ---   -0.21539   0.01540   0.01753   0.02234   0.03397
     Eigenvalues ---    0.04734   0.05249   0.05515   0.06844   0.08366
     Eigenvalues ---    0.11326   0.14490   0.15301   0.16050   0.17220
     Eigenvalues ---    0.18908   0.19219   0.20626   0.21716   0.22994
     Eigenvalues ---    0.27268   0.30798   0.31971   0.33917   0.34788
     Eigenvalues ---    0.35146   0.35741   0.36257   0.37059   0.37245
     Eigenvalues ---    0.37444   0.39617   0.40198   0.46397   0.47426
     Eigenvalues ---    0.48990   0.51860   0.56340   0.64257   0.79732
     Eigenvalues ---    0.94735   1.74545   2.05856   2.26422  16.57263
 Eigenvectors required to have negative eigenvalues:
                          A17       A5        D6        D8        R15
   1                    0.63297   0.28931   0.28662  -0.24518  -0.22691
                          A3        A15       A6        A11       R3
   1                    0.22544   0.21622   0.17219   0.16407   0.14698
 RFO step:  Lambda0=3.574561100D-08 Lambda=-8.66703103D-08.
 Linear search not attempted -- option 19 set.
 Variable       Old X    -DE/DX   Delta X   Delta X   Delta X     New X
                                 (Linear)    (Quad)   (Total)
    R2        2.67339   0.00003   0.00000  -0.00002  -0.00002   2.67337
    R3        2.67912  -0.00003   0.00000  -0.00004  -0.00004   2.67908
    R4        2.56961   0.00003   0.00000   0.00011   0.00011   2.56972
    R5        2.58241   0.00003   0.00000   0.00006   0.00006   2.58246
    R6        2.04620   0.00001   0.00000  -0.00001  -0.00001   2.04619
    R7        2.04370   0.00000   0.00000   0.00001   0.00001   2.04370
    R8        2.72746   0.00002   0.00000  -0.00001  -0.00001   2.72745
    R9        2.62536   0.00002   0.00000   0.00004   0.00004   2.62540
   R10        1.90184   0.00001   0.00000   0.00001   0.00001   1.90185
   R11        2.68286   0.00000   0.00000   0.00004   0.00004   2.68290
   R12        2.04839   0.00000   0.00000  -0.00000  -0.00000   2.04839
   R13        2.03500   0.00000   0.00000   0.00000   0.00000   2.03500
   R14        2.03498   0.00000   0.00000   0.00000   0.00000   2.03498
   R15        2.59243   0.00006   0.00000   0.00005   0.00005   2.59248
   R16        2.05205   0.00000   0.00000   0.00000   0.00000   2.05205
   R17        2.23338   0.00005   0.00000   0.00002   0.00002   2.23340
    A3        2.18699  -0.00005   0.00000  -0.00004  -0.00004   2.18696
    A4        1.87116  -0.00001   0.00000   0.00004   0.00004   1.87120
    A5        2.05960  -0.00006   0.00000   0.00003   0.00003   2.05963
    A6        2.10024  -0.00001   0.00000   0.00007   0.00007   2.10031
    A7        2.11316  -0.00000   0.00000  -0.00000  -0.00000   2.11316
    A8        1.86032   0.00000   0.00000   0.00000   0.00000   1.86033
    A9        1.92313  -0.00010   0.00000  -0.00010  -0.00010   1.92303
   A10        2.17020  -0.00005   0.00000  -0.00017  -0.00017   2.17003
   A11        2.22500  -0.00006   0.00000  -0.00005  -0.00005   2.22495
   A12        2.04697   0.00000   0.00000   0.00004   0.00004   2.04701
   A13        2.20872  -0.00000   0.00000   0.00001   0.00001   2.20873
   A14        2.10298  -0.00000   0.00000  -0.00002  -0.00002   2.10296
   A15        2.23472  -0.00002   0.00000   0.00005   0.00005   2.23477
   A16        2.05970  -0.00000   0.00000   0.00002   0.00002   2.05972
   A17        2.53296  -0.00000   0.00000   0.00017   0.00017   2.53313
    D4       -2.99601  -0.00004   0.00000  -0.00037  -0.00037  -2.99638
    D5       -0.47612   0.00000   0.00000  -0.00033  -0.00033  -0.47646
    D6       -0.74813  -0.00002   0.00000   0.00067   0.00067  -0.74746
    D7       -2.99464   0.00000   0.00000  -0.00010  -0.00010  -2.99474
    D8       -2.53877  -0.00002   0.00000  -0.00036  -0.00036  -2.53912
    D9        0.00856  -0.00000   0.00000   0.00002   0.00002   0.00858
   D10        2.98147   0.00002   0.00000   0.00042   0.00042   2.98189
   D11       -0.01823  -0.00001   0.00000  -0.00022  -0.00022  -0.01845
   D12       -3.04587  -0.00001   0.00000   0.00005   0.00005  -3.04581
   D13        3.11267   0.00000   0.00000   0.00009   0.00009   3.11276
   D14        3.12950   0.00000   0.00000   0.00002   0.00002   3.12953
   D15        0.03980   0.00001   0.00000   0.00044   0.00044   0.04024
   D16       -2.90486  -0.00000   0.00000  -0.00034  -0.00034  -2.90520
   D17        3.11272  -0.00000   0.00000  -0.00036  -0.00036   3.11236
         Item               Value     Threshold  Converged?
 Maximum Force            0.000104     0.000450     YES
 RMS     Force            0.000029     0.000300     YES
 Maximum Displacement     0.000672     0.001800     YES
 RMS     Displacement     0.000190     0.001200     YES
 Predicted change in Energy=-2.546235D-08
 Optimization completed.
    -- Stationary point found.
                       ----------------------------
                       !   Optimized Parameters   !
                       ! (Angstroms and Degrees)  !
 ----------------------                            ----------------------
 !      Name          Value   Derivative information (Atomic Units)     !
 ------------------------------------------------------------------------
 !       R2          1.4147   -DE/DX =    0.0                           !
 !       R3          1.4177   -DE/DX =    0.0                           !
 !       R4          1.3598   -DE/DX =    0.0                           !
 !       R5          1.3666   -DE/DX =    0.0                           !
 !       R6          1.0828   -DE/DX =    0.0                           !
 !       R7          1.0815   -DE/DX =    0.0                           !
 !       R8          1.4433   -DE/DX =    0.0                           !
 !       R9          1.3893   -DE/DX =    0.0                           !
 !       R10         1.0064   -DE/DX =    0.0                           !
 !       R11         1.4197   -DE/DX =    0.0                           !
 !       R12         1.084    -DE/DX =    0.0                           !
 !       R13         1.0769   -DE/DX =    0.0                           !
 !       R14         1.0769   -DE/DX =    0.0                           !
 !       R15         1.3719   -DE/DX =    0.0001                        !
 !       R16         1.0859   -DE/DX =    0.0                           !
 !       R17         1.1819   -DE/DX =    0.0                           !
 !       A3        125.3054   -DE/DX =   -0.0001                        !
 !       A4        107.2096   -DE/DX =    0.0                           !
 !       A5        118.0062   -DE/DX =   -0.0001                        !
 !       A6        120.335    -DE/DX =    0.0                           !
 !       A7        121.0753   -DE/DX =    0.0                           !
 !       A8        106.5886   -DE/DX =    0.0                           !
 !       A9        110.187    -DE/DX =   -0.0001                        !
 !       A10       124.3433   -DE/DX =   -0.0001                        !
 !       A11       127.483    -DE/DX =   -0.0001                        !
 !       A12       117.2829   -DE/DX =    0.0                           !
 !       A13       126.5505   -DE/DX =    0.0                           !
 !       A14       120.4921   -DE/DX =    0.0                           !
 !       A15       128.04     -DE/DX =    0.0                           !
 !       A16       118.0123   -DE/DX =    0.0                           !
 !       A17       145.128    -DE/DX =    0.0                           !
 !       D4       -171.6589   -DE/DX =    0.0                           !
 !       D5        -27.2798   -DE/DX =    0.0                           !
 !       D6        -42.8645   -DE/DX =    0.0                           !
 !       D7       -171.5801   -DE/DX =    0.0                           !
 !       D8       -145.4606   -DE/DX =    0.0                           !
 !       D9          0.4905   -DE/DX =    0.0                           !
 !       D10       170.8256   -DE/DX =    0.0                           !
 !       D11        -1.0443   -DE/DX =    0.0                           !
 !       D12      -174.5153   -DE/DX =    0.0                           !
 !       D13       178.3428   -DE/DX =    0.0                           !
 !       D14       179.3074   -DE/DX =    0.0                           !
 !       D15         2.2806   -DE/DX =    0.0                           !
 !       D16      -166.4364   -DE/DX =    0.0                           !
 !       D17       178.3459   -DE/DX =    0.0                           !
 ------------------------------------------------------------------------
 GradGradGradGradGradGradGradGradGradGradGradGradGradGradGradGradGradGrad

 ---------------------------------------------------------------------------------------------------
                            Z-MATRIX (ANGSTROMS AND DEGREES)
   CD    Cent   Atom    N1       Length/X        N2       Alpha/Y        N3        Beta/Z          J
 ---------------------------------------------------------------------------------------------------
      1      1  C 
      2      2  C        1   1.414698(     1)
      3      3  C        1   1.417730(     2)      2  125.305(    17)
      4      4  N        1   1.359780(     3)      2  107.210(    18)      3 -171.659(    32)      0
      5      5  C        3   1.366551(     4)      1  118.006(    19)      2  -27.280(    33)      0
      6      6  H        2   1.082801(     5)      1  120.335(    20)      3  -42.865(    34)      0
      7      7  H        3   1.081477(     6)      1  121.075(    21)      5 -171.580(    35)      0
      8      8  C        2   1.443310(     7)      1  106.589(    22)      6 -145.461(    36)      0
      9      9  C        4   1.389280(     8)      1  110.187(    23)      2    0.491(    37)      0
     10     10  H        4   1.006413(     9)      1  124.343(    24)      9  170.826(    38)      0
     11     11  C        5   1.419710(    10)      3  127.483(    25)      1   -1.044(    39)      0
     12     12  H        5   1.083961(    11)      3  117.283(    26)     11 -174.515(    40)      0
     13     13  H        8   1.076876(    12)      2  126.551(    27)      1  178.343(    41)      0
     14     14  H        9   1.076863(    13)      4  120.492(    28)      1  179.307(    42)      0
     15     15  C       11   1.371854(    14)      5  128.040(    29)      3    2.281(    43)      0
     16     16  H       11   1.085898(    15)      5  118.012(    30)     15 -166.436(    44)      0
     17     17  O       15   1.181854(    16)     11  145.128(    31)      5  178.346(    45)      0
 ---------------------------------------------------------------------------------------------------
                         Z-Matrix orientation:                         
 ---------------------------------------------------------------------
 Center     Atomic      Atomic             Coordinates (Angstroms)
 Number     Number       Type             X           Y           Z
 ---------------------------------------------------------------------
      1          6           0        0.000000    0.000000    0.000000
      2          6           0        0.000000    0.000000    1.414698
      3          6           0        1.156986    0.000000   -0.819355
      4          7           0       -1.285161    0.188427   -0.402315
      5          6           0        2.300394    0.552993   -0.315096
      6          1           0        0.684993   -0.635745    1.961572
      7          1           0        1.105954   -0.299422   -1.857302
      8          6           0       -1.368662    0.200280    1.826760
      9          6           0       -2.118352    0.321869    0.701354
     10          1           0       -1.563104    0.355981   -1.354964
     11          6           0        2.477908    1.163267    0.954405
     12          1           0        3.156754    0.613635   -0.976868
     13          1           0       -1.736153    0.228771    2.838591
     14          1           0       -3.174148    0.489670    0.571842
     15          6           0        1.559802    1.293947    1.965338
     16          1           0        3.358653    1.780354    1.104953
     17          8           0        1.377524    1.687519    3.064727
 ---------------------------------------------------------------------
                    Distance matrix (angstroms):
                    1          2          3          4          5
     1  C    0.000000
     2  C    1.414698   0.000000
     3  C    1.417730   2.515871   0.000000
     4  N    1.359780   2.233535   2.484654   0.000000
     5  C    2.386818   2.930836   1.366551   3.605097   0.000000
     6  H    2.172821   1.082801   2.891454   3.185707   3.034112
     7  H    2.182283   3.466810   1.081477   2.841199   2.128779
     8  C    2.291376   1.443310   3.663460   2.230671   4.263089
     9  C    2.254531   2.258290   3.625464   1.389280   4.540034
    10  H    2.099034   3.200163   2.795083   1.006413   4.005841
    11  C    2.898984   2.775804   2.498849   4.117243   1.419710
    12  H    3.360940   4.007647   2.097721   4.499058   1.083961
    13  H    3.335290   2.256997   4.669385   3.272383   5.132696
    14  H    3.262207   3.320451   4.575360   2.146625   5.546285
    15  C    2.823090   2.100116   3.096946   3.862871   2.509556
    16  H    3.958678   3.813942   3.423443   5.135280   2.154731
    17  O    3.760032   2.732744   4.240572   4.621423   3.682667
                    6          7          8          9         10
     6  H    0.000000
     7  H    3.856698   0.000000
     8  C    2.221398   4.466066   0.000000
     9  C    3.219304   4.162796   1.357703   0.000000
    10  H    4.127575   2.793881   3.191461   2.130236   0.000000
    11  C    2.732284   3.453609   4.060105   4.679487   4.723841
    12  H    4.037943   2.411353   5.339531   5.543312   4.741984
    13  H    2.716339   5.514342   1.076876   2.173137   4.199051
    14  H    4.253337   4.984243   2.217734   1.076863   2.515137
    15  C    2.118730   4.166220   3.129091   4.008916   4.653679
    16  H    3.704024   4.263224   5.036383   5.682223   5.683637
    17  O    2.663476   5.314890   3.359461   4.435277   5.473021
                   11         12         13         14         15
    11  C    0.000000
    12  H    2.119608   0.000000
    13  H    4.709751   6.216622   0.000000
    14  H    5.704895   6.518757   2.697044   0.000000
    15  C    1.371854   3.416088   3.572182   4.999897   0.000000
    16  H    1.085898   2.394989   5.600889   6.680386   2.052492
    17  O    2.437036   4.544598   3.445877   5.326071   1.181854
                   16         17
    16  H    0.000000
    17  O    2.788226   0.000000
 Symmetry turned off by external request.
 Stoichiometry    C8H7NO
 Framework group  C1[X(C8H7NO)]
 Deg. of freedom    45
 Full point group                 C1      NOp   1
 Rotational constants (GHZ):           2.1574788           1.3657032           0.8777982
 1\1\GINC-BHC0030\FTS\RB3LYP\def2TZVP\C8H7N1O1\DHANAWAY\10-Jun-2022\1\\
 # Opt=(TS, CalcFC, noeigentest, Z-matrix, MaxStep=10) Field=read NoSym
 m B3LYP/Def2TZVP freq=noraman pop=none\\ts_zmat_initalOpt\\0,1\C\C,1,R
 2\C,1,R3,2,A3\N,1,R4,2,A4,3,D4,0\C,3,R5,1,A5,2,D5,0\H,2,R6,1,A6,3,D6,0
 \H,3,R7,1,A7,5,D7,0\C,2,R8,1,A8,6,D8,0\C,4,R9,1,A9,2,D9,0\H,4,R10,1,A1
 0,9,D10,0\C,5,R11,3,A11,1,D11,0\H,5,R12,3,A12,11,D12,0\H,8,R13,2,A13,1
 ,D13,0\H,9,R14,4,A14,1,D14,0\C,11,R15,5,A15,3,D15,0\H,11,R16,5,A16,15,
 D16,0\O,15,R17,11,A17,5,D17,0\\R2=1.41469751\R3=1.41772992\R4=1.359779
 6\R5=1.36655122\R6=1.08280109\R7=1.081477\R8=1.4433102\R9=1.38928028\R
 10=1.00641282\R11=1.41970978\R12=1.08396138\R13=1.07687579\R14=1.07686
 343\R15=1.37185436\R16=1.08589767\R17=1.18185408\A3=125.3053947\A4=107
 .20959102\A5=118.00621558\A6=120.33502527\A7=121.07528315\A8=106.58864
 804\A9=110.18700687\A10=124.34327815\A11=127.48301201\A12=117.28290428
 \A13=126.55053955\A14=120.49210777\A15=128.03998964\A16=118.01230267\A
 17=145.12800634\D4=-171.65889022\D5=-27.27979427\D6=-42.8645334\D7=-17
 1.58007548\D8=-145.46062339\D9=0.49050372\D10=170.82557935\D11=-1.0442
 7434\D12=-174.51528319\D13=178.34279078\D14=179.30739314\D15=2.2805694
 \D16=-166.43644161\D17=178.3458829\\Version=ES64L-G16RevA.03\HF=-439.1
 389294\RMSD=3.223e-09\RMSF=1.913e-04\Dipole=-0.8517948,-0.4393087,-1.6
 447638\PG=C01 [X(C8H7N1O1)]\\@


 SUCCESS IS NEVER CERTAIN,
 FAILURE IS NEVER FINAL.
 Job cpu time:       0 days  2 hours 33 minutes 53.1 seconds.
 Elapsed time:       0 days  0 hours 12 minutes 50.2 seconds.
 File lengths (MBytes):  RWF=    183 Int=      0 D2E=      0 Chk=     32 Scr=      1
 Normal termination of Gaussian 16 at Fri Jun 10 11:34:55 2022.
 Link1:  Proceeding to internal job step number  2.
 --------------------------------------------------------------------
 #N Geom=AllCheck Guess=TCheck SCRF=Check GenChk RB3LYP/def2TZVP Freq
 --------------------------------------------------------------------
 1/5=1,8=10,10=4,11=1,29=7,30=1,38=1,40=1/1,3;
 2/12=2,15=1,40=1/2;
 3/5=44,7=101,11=2,14=-4,25=1,30=1,70=2,71=2,74=-5,116=1,140=1/1,2,3;
 4/5=101/1;
 5/5=2,38=6,98=1/2;
 8/6=4,10=90,11=11/1;
 11/6=1,8=1,9=11,15=111,16=1,31=1/1,2,10;
 10/6=1,31=1/2;
 7/8=1,10=1,25=1,30=1/1,2,3,16;
 1/5=1,8=10,10=4,11=1,30=1/3;
 99//99;
 Structure from the checkpoint file:  "checkpoint.chk"
 -----------------
 ts_zmat_initalOpt
 -----------------
 Charge =  0 Multiplicity = 1
 Z-Matrix found in chk file.
 C
 C,1,R2
 C,1,R3,2,A3
 N,1,R4,2,A4,3,D4,0
 C,3,R5,1,A5,2,D5,0
 H,2,R6,1,A6,3,D6,0
 H,3,R7,1,A7,5,D7,0
 C,2,R8,1,A8,6,D8,0
 C,4,R9,1,A9,2,D9,0
 H,4,R10,1,A10,9,D10,0
 C,5,R11,3,A11,1,D11,0
 H,5,R12,3,A12,11,D12,0
 H,8,R13,2,A13,1,D13,0
 H,9,R14,4,A14,1,D14,0
 C,11,R15,5,A15,3,D15,0
 H,11,R16,5,A16,15,D16,0
 O,15,R17,11,A17,5,D17,0
      Variables:
 R2=1.41469751
 R3=1.41772992
 R4=1.3597796
 R5=1.36655122
 R6=1.08280109
 R7=1.081477
 R8=1.4433102
 R9=1.38928028
 R10=1.00641282
 R11=1.41970978
 R12=1.08396138
 R13=1.07687579
 R14=1.07686343
 R15=1.37185436
 R16=1.08589767
 R17=1.18185408
 A3=125.3053947
 A4=107.20959102
 A5=118.00621558
 A6=120.33502527
 A7=121.07528315
 A8=106.58864804
 A9=110.18700687
 A10=124.34327815
 A11=127.48301201
 A12=117.28290428
 A13=126.55053955
 A14=120.49210777
 A15=128.03998964
 A16=118.01230267
 A17=145.12800634
 D4=-171.65889022
 D5=-27.27979427
 D6=-42.8645334
 D7=-171.58007548
 D8=-145.46062339
 D9=0.49050372
 D10=170.82557935
 D11=-1.04427434
 D12=-174.51528319
 D13=178.34279078
 D14=179.30739314
 D15=2.2805694
 D16=-166.43644161
 D17=178.3458829
 Recover connectivity data from disk.

 GradGradGradGradGradGradGradGradGradGradGradGradGradGradGradGradGradGrad
 Berny optimization.
 Initialization pass.
                       ----------------------------
                       !    Initial Parameters    !
                       ! (Angstroms and Degrees)  !
 ----------------------                            ----------------------
 !      Name          Value   Derivative information (Atomic Units)     !
 ------------------------------------------------------------------------
 !       R2          1.4147   calculate D2E/DX2 analytically            !
 !       R3          1.4177   calculate D2E/DX2 analytically            !
 !       R4          1.3598   calculate D2E/DX2 analytically            !
 !       R5          1.3666   calculate D2E/DX2 analytically            !
 !       R6          1.0828   calculate D2E/DX2 analytically            !
 !       R7          1.0815   calculate D2E/DX2 analytically            !
 !       R8          1.4433   calculate D2E/DX2 analytically            !
 !       R9          1.3893   calculate D2E/DX2 analytically            !
 !       R10         1.0064   calculate D2E/DX2 analytically            !
 !       R11         1.4197   calculate D2E/DX2 analytically            !
 !       R12         1.084    calculate D2E/DX2 analytically            !
 !       R13         1.0769   calculate D2E/DX2 analytically            !
 !       R14         1.0769   calculate D2E/DX2 analytically            !
 !       R15         1.3719   calculate D2E/DX2 analytically            !
 !       R16         1.0859   calculate D2E/DX2 analytically            !
 !       R17         1.1819   calculate D2E/DX2 analytically            !
 !       A3        125.3054   calculate D2E/DX2 analytically            !
 !       A4        107.2096   calculate D2E/DX2 analytically            !
 !       A5        118.0062   calculate D2E/DX2 analytically            !
 !       A6        120.335    calculate D2E/DX2 analytically            !
 !       A7        121.0753   calculate D2E/DX2 analytically            !
 !       A8        106.5886   calculate D2E/DX2 analytically            !
 !       A9        110.187    calculate D2E/DX2 analytically            !
 !       A10       124.3433   calculate D2E/DX2 analytically            !
 !       A11       127.483    calculate D2E/DX2 analytically            !
 !       A12       117.2829   calculate D2E/DX2 analytically            !
 !       A13       126.5505   calculate D2E/DX2 analytically            !
 !       A14       120.4921   calculate D2E/DX2 analytically            !
 !       A15       128.04     calculate D2E/DX2 analytically            !
 !       A16       118.0123   calculate D2E/DX2 analytically            !
 !       A17       145.128    calculate D2E/DX2 analytically            !
 !       D4       -171.6589   calculate D2E/DX2 analytically            !
 !       D5        -27.2798   calculate D2E/DX2 analytically            !
 !       D6        -42.8645   calculate D2E/DX2 analytically            !
 !       D7       -171.5801   calculate D2E/DX2 analytically            !
 !       D8       -145.4606   calculate D2E/DX2 analytically            !
 !       D9          0.4905   calculate D2E/DX2 analytically            !
 !       D10       170.8256   calculate D2E/DX2 analytically            !
 !       D11        -1.0443   calculate D2E/DX2 analytically            !
 !       D12      -174.5153   calculate D2E/DX2 analytically            !
 !       D13       178.3428   calculate D2E/DX2 analytically            !
 !       D14       179.3074   calculate D2E/DX2 analytically            !
 !       D15         2.2806   calculate D2E/DX2 analytically            !
 !       D16      -166.4364   calculate D2E/DX2 analytically            !
 !       D17       178.3459   calculate D2E/DX2 analytically            !
 ------------------------------------------------------------------------
 Trust Radius=1.00D-01 FncErr=1.00D-07 GrdErr=1.00D-07 EigMax=2.50D+02 EigMin=1.00D-04
 Number of steps in this run=      2 maximum allowed number of steps=      2.
 Search for a saddle point of order  1.
 GradGradGradGradGradGradGradGradGradGradGradGradGradGradGradGradGradGrad

                          Input orientation:                          
 ---------------------------------------------------------------------
 Center     Atomic      Atomic             Coordinates (Angstroms)
 Number     Number       Type             X           Y           Z
 ---------------------------------------------------------------------
      1          6           0        0.000000    0.000000    0.000000
      2          6           0        0.000000    0.000000    1.414698
      3          6           0        1.156986    0.000000   -0.819355
      4          7           0       -1.285161    0.188427   -0.402315
      5          6           0        2.300394    0.552993   -0.315096
      6          1           0        0.684993   -0.635745    1.961572
      7          1           0        1.105954   -0.299422   -1.857302
      8          6           0       -1.368662    0.200280    1.826760
      9          6           0       -2.118352    0.321869    0.701354
     10          1           0       -1.563104    0.355981   -1.354964
     11          6           0        2.477908    1.163267    0.954405
     12          1           0        3.156754    0.613635   -0.976868
     13          1           0       -1.736153    0.228771    2.838591
     14          1           0       -3.174148    0.489670    0.571842
     15          6           0        1.559802    1.293947    1.965338
     16          1           0        3.358653    1.780354    1.104953
     17          8           0        1.377524    1.687519    3.064727
 ---------------------------------------------------------------------
                    Distance matrix (angstroms):
                    1          2          3          4          5
     1  C    0.000000
     2  C    1.414698   0.000000
     3  C    1.417730   2.515871   0.000000
     4  N    1.359780   2.233535   2.484654   0.000000
     5  C    2.386818   2.930836   1.366551   3.605097   0.000000
     6  H    2.172821   1.082801   2.891454   3.185707   3.034112
     7  H    2.182283   3.466810   1.081477   2.841199   2.128779
     8  C    2.291376   1.443310   3.663460   2.230671   4.263089
     9  C    2.254531   2.258290   3.625464   1.389280   4.540034
    10  H    2.099034   3.200163   2.795083   1.006413   4.005841
    11  C    2.898984   2.775804   2.498849   4.117243   1.419710
    12  H    3.360940   4.007647   2.097721   4.499058   1.083961
    13  H    3.335290   2.256997   4.669385   3.272383   5.132696
    14  H    3.262207   3.320451   4.575360   2.146625   5.546285
    15  C    2.823090   2.100116   3.096946   3.862871   2.509556
    16  H    3.958678   3.813942   3.423443   5.135280   2.154731
    17  O    3.760032   2.732744   4.240572   4.621423   3.682667
                    6          7          8          9         10
     6  H    0.000000
     7  H    3.856698   0.000000
     8  C    2.221398   4.466066   0.000000
     9  C    3.219304   4.162796   1.357703   0.000000
    10  H    4.127575   2.793881   3.191461   2.130236   0.000000
    11  C    2.732284   3.453609   4.060105   4.679487   4.723841
    12  H    4.037943   2.411353   5.339531   5.543312   4.741984
    13  H    2.716339   5.514342   1.076876   2.173137   4.199051
    14  H    4.253337   4.984243   2.217734   1.076863   2.515137
    15  C    2.118730   4.166220   3.129091   4.008916   4.653679
    16  H    3.704024   4.263224   5.036383   5.682223   5.683637
    17  O    2.663476   5.314890   3.359461   4.435277   5.473021
                   11         12         13         14         15
    11  C    0.000000
    12  H    2.119608   0.000000
    13  H    4.709751   6.216622   0.000000
    14  H    5.704895   6.518757   2.697044   0.000000
    15  C    1.371854   3.416088   3.572182   4.999897   0.000000
    16  H    1.085898   2.394989   5.600889   6.680386   2.052492
    17  O    2.437036   4.544598   3.445877   5.326071   1.181854
                   16         17
    16  H    0.000000
    17  O    2.788226   0.000000
 Symmetry turned off by external request.
 Stoichiometry    C8H7NO
 Framework group  C1[X(C8H7NO)]
 Deg. of freedom    45
 Full point group                 C1      NOp   1
 Rotational constants (GHZ):           2.1574788           1.3657032           0.8777982
 Standard basis: def2TZVP (5D, 7F)
 The following finite field(s) will be applied:
 An electric field of              0.0000  0.0009  0.0023
   352 basis functions,   566 primitive gaussians,   402 cartesian basis functions
    35 alpha electrons       35 beta electrons
       nuclear repulsion energy       479.8280531018 Hartrees.
 NAtoms=   17 NActive=   17 NUniq=   17 SFac= 1.00D+00 NAtFMM=   60 NAOKFM=F Big=F
 Integral buffers will be    131072 words long.
 Raffenetti 2 integral format.
 Two-electron integral symmetry is turned off.
 One-electron integrals computed using PRISM.
   1 Symmetry operations used in ECPInt.
 ECPInt:  NShTT=    9591 NPrTT=   29644 LenC2=    9331 LenP2D=   22713.
 LDataN:  DoStor=T MaxTD1= 6 Len=  172
 NBasis=   352 RedAO= T EigKep=  3.58D-05  NBF=   352
 NBsUse=   352 1.00D-06 EigRej= -1.00D+00 NBFU=   352
 The nuclear repulsion energy is now       480.1523918420 hartrees.
 Initial guess from the checkpoint file:  "checkpoint.chk"
 B after Tr=     0.000000    0.000000    0.000000
         Rot=    1.000000    0.000000    0.000000    0.000000 Ang=   0.00 deg.
 Requested convergence on RMS density matrix=1.00D-08 within 128 cycles.
 Requested convergence on MAX density matrix=1.00D-06.
 Requested convergence on             energy=1.00D-06.
 No special actions if energy rises.
 SCF Done:  E(RB3LYP) =  -439.138929358     A.U. after    1 cycles
            NFock=  1  Conv=0.27D-08     -V/T= 2.0049
 DoSCS=F DFT=T ScalE2(SS,OS)=  1.000000  1.000000
 Range of M.O.s used for correlation:     1   352
 NBasis=   352 NAE=    35 NBE=    35 NFC=     0 NFV=     0
 NROrb=    352 NOA=    35 NOB=    35 NVA=   317 NVB=   317

 **** Warning!!: The largest alpha MO coefficient is  0.28009333D+02

   1 Symmetry operations used in ECPInt.
 ECPInt:  NShTT=    9591 NPrTT=   29644 LenC2=    9331 LenP2D=   22713.
 LDataN:  DoStor=T MaxTD1= 7 Len=  274
 Symmetrizing basis deriv contribution to polar:
 IMax=3 JMax=2 DiffMx= 0.00D+00
 G2DrvN: will do    18 centers at a time, making    1 passes.
 Calling FoFCou, ICntrl=  3107 FMM=F I1Cent=   0 AccDes= 0.00D+00.
 End of G2Drv F.D. properties file   721 does not exist.
 End of G2Drv F.D. properties file   722 does not exist.
 End of G2Drv F.D. properties file   788 does not exist.
          IDoAtm=11111111111111111
          Differentiating once with respect to electric field.
                with respect to dipole field.
          Differentiating once with respect to nuclear coordinates.
 CalDSu exits because no D1Ps are significant.
          There are    54 degrees of freedom in the 1st order CPHF.  IDoFFX=6 NUNeed=     3.
     51 vectors produced by pass  0 Test12= 2.05D-14 1.85D-09 XBig12= 2.04D+02 6.44D+00.
 AX will form    51 AO Fock derivatives at one time.
     51 vectors produced by pass  1 Test12= 2.05D-14 1.85D-09 XBig12= 2.91D+01 8.56D-01.
     51 vectors produced by pass  2 Test12= 2.05D-14 1.85D-09 XBig12= 3.24D-01 9.30D-02.
     51 vectors produced by pass  3 Test12= 2.05D-14 1.85D-09 XBig12= 1.38D-03 5.22D-03.
     51 vectors produced by pass  4 Test12= 2.05D-14 1.85D-09 XBig12= 3.59D-06 2.12D-04.
     50 vectors produced by pass  5 Test12= 2.05D-14 1.85D-09 XBig12= 7.96D-09 1.00D-05.
     16 vectors produced by pass  6 Test12= 2.05D-14 1.85D-09 XBig12= 1.12D-11 4.04D-07.
      3 vectors produced by pass  7 Test12= 2.05D-14 1.85D-09 XBig12= 1.53D-14 1.39D-08.
      3 vectors produced by pass  8 Test12= 2.05D-14 1.85D-09 XBig12= 1.69D-15 4.18D-09.
      3 vectors produced by pass  9 Test12= 2.05D-14 1.85D-09 XBig12= 7.94D-16 3.04D-09.
      3 vectors produced by pass 10 Test12= 2.05D-14 1.85D-09 XBig12= 1.23D-15 4.70D-09.
      3 vectors produced by pass 11 Test12= 2.05D-14 1.85D-09 XBig12= 1.50D-15 5.91D-09.
      3 vectors produced by pass 12 Test12= 2.05D-14 1.85D-09 XBig12= 1.64D-15 3.67D-09.
      2 vectors produced by pass 13 Test12= 2.05D-14 1.85D-09 XBig12= 9.26D-16 2.98D-09.
 InvSVY:  IOpt=1 It=  1 EMax= 1.24D-14
 Solved reduced A of dimension   341 with    54 vectors.
 Isotropic polarizability for W=    0.000000      107.83 Bohr**3.
 End of Minotr F.D. properties file   721 does not exist.
 End of Minotr F.D. properties file   722 does not exist.
 End of Minotr F.D. properties file   788 does not exist.
   1 Symmetry operations used in ECPInt.
 ECPInt:  NShTT=    9591 NPrTT=   29644 LenC2=    9331 LenP2D=   22713.
 LDataN:  DoStor=T MaxTD1= 8 Len=  415
 Calling FoFJK, ICntrl=    100127 FMM=F ISym2X=0 I1Cent= 0 IOpClX= 0 NMat=1 NMatS=1 NMatT=0.
 Full mass-weighted force constant matrix:
 Low frequencies --- -421.0974   -3.5885   -0.0003    0.0003    0.0005    6.9628
 Low frequencies ---   11.4728  112.7735  136.6544
 ******    1 imaginary frequencies (negative Signs) ****** 
 Diagonal vibrational polarizability:
       23.5812019      26.9782141      18.0572009
 Harmonic frequencies (cm**-1), IR intensities (KM/Mole), Raman scattering
 activities (A**4/AMU), depolarization ratios for plane and unpolarized
 incident light, reduced masses (AMU), force constants (mDyne/A),
 and normal coordinates:
                      1                      2                      3
                      A                      A                      A
 Frequencies --   -421.0963               112.7720               136.6526
 Red. masses --      6.7695                 6.0423                 4.6250
 Frc consts  --      0.7072                 0.0453                 0.0509
 IR Inten    --    162.5230                 1.0923                 1.7200
  Atom  AN      X      Y      Z        X      Y      Z        X      Y      Z
     1   6    -0.05  -0.05   0.07    -0.04   0.02   0.00     0.03  -0.17   0.03
     2   6    -0.23  -0.32  -0.05    -0.09   0.23   0.01     0.01  -0.08   0.03
     3   6     0.03   0.00   0.02    -0.04   0.04   0.03     0.04  -0.18   0.04
     4   7    -0.03   0.08  -0.00    -0.06  -0.24  -0.08     0.06  -0.05   0.00
     5   6    -0.02  -0.03  -0.07    -0.03   0.06   0.00    -0.06   0.10  -0.05
     6   1     0.18   0.41   0.21    -0.12   0.27   0.09    -0.05  -0.08   0.09
     7   1     0.06  -0.25   0.09    -0.03   0.03   0.03     0.08  -0.30   0.07
     8   6    -0.07  -0.13  -0.03    -0.14   0.15  -0.08     0.04   0.16  -0.00
     9   6    -0.06   0.05  -0.07    -0.12  -0.16  -0.14     0.07   0.18  -0.02
    10   1     0.03   0.18  -0.00    -0.05  -0.43  -0.12     0.11  -0.02  -0.01
    11   6     0.05   0.06  -0.03     0.04   0.04  -0.00    -0.14   0.26  -0.11
    12   1     0.03  -0.15  -0.01    -0.06   0.07  -0.03    -0.09   0.20  -0.08
    13   1    -0.09  -0.20  -0.03    -0.19   0.25  -0.11     0.03   0.31  -0.01
    14   1    -0.04   0.15  -0.08    -0.14  -0.33  -0.20     0.10   0.34  -0.05
    15   6     0.44   0.30   0.09     0.14   0.03   0.09    -0.04  -0.02  -0.00
    16   1     0.10   0.01  -0.12     0.07  -0.01  -0.03    -0.25   0.43  -0.17
    17   8    -0.04   0.02   0.05     0.30  -0.09   0.16    -0.01  -0.21   0.07
                      4                      5                      6
                      A                      A                      A
 Frequencies --    270.2672               288.2641               336.5430
 Red. masses --      4.9026                 3.3575                 7.5968
 Frc consts  --      0.2110                 0.1644                 0.5069
 IR Inten    --     19.1215                 3.3654                 3.2705
  Atom  AN      X      Y      Z        X      Y      Z        X      Y      Z
     1   6     0.04   0.11   0.09     0.05  -0.12   0.12    -0.05  -0.14  -0.17
     2   6    -0.05   0.03   0.12    -0.06  -0.12   0.14     0.08  -0.15  -0.13
     3   6     0.02  -0.14   0.10    -0.04   0.10   0.01    -0.05  -0.09  -0.13
     4   7     0.11   0.23  -0.00     0.10  -0.07   0.02    -0.04   0.01  -0.09
     5   6     0.03  -0.05   0.00    -0.03   0.17  -0.09    -0.17  -0.01   0.08
     6   1    -0.16  -0.15   0.07    -0.17  -0.15   0.24     0.07  -0.27  -0.24
     7   1    -0.04  -0.25   0.14    -0.21   0.37  -0.06     0.07   0.08  -0.18
     8   6    -0.17  -0.21  -0.02    -0.11   0.02  -0.00     0.11  -0.11  -0.08
     9   6    -0.04  -0.07  -0.08     0.01   0.08  -0.08     0.06   0.11  -0.01
    10   1     0.20   0.25  -0.02     0.24   0.07  -0.00    -0.08   0.07  -0.07
    11   6    -0.09   0.12  -0.10     0.05  -0.14   0.02    -0.21  -0.06   0.10
    12   1     0.03  -0.11   0.00    -0.16   0.46  -0.23    -0.14   0.18   0.14
    13   1    -0.31  -0.45  -0.06    -0.21   0.06  -0.04     0.17  -0.08  -0.06
    14   1    -0.04  -0.15  -0.17     0.04   0.18  -0.18     0.08   0.33   0.07
[...]

 ----------------------------------------------------------------------
 1\1\GINC-BHC0030\Freq\RB3LYP\def2TZVP\C8H7N1O1\DHANAWAY\10-Jun-2022\1\
 \#N Geom=AllCheck Guess=TCheck SCRF=Check GenChk RB3LYP/def2TZVP Freq\
 \ts_zmat_initalOpt\\0,1\C\C,1,R2\C,1,R3,2,A3\N,1,R4,2,A4,3,D4,0\C,3,R5
 ,1,A5,2,D5,0\H,2,R6,1,A6,3,D6,0\H,3,R7,1,A7,5,D7,0\C,2,R8,1,A8,6,D8,0\
 C,4,R9,1,A9,2,D9,0\H,4,R10,1,A10,9,D10,0\C,5,R11,3,A11,1,D11,0\H,5,R12
 ,3,A12,11,D12,0\H,8,R13,2,A13,1,D13,0\H,9,R14,4,A14,1,D14,0\C,11,R15,5
 ,A15,3,D15,0\H,11,R16,5,A16,15,D16,0\O,15,R17,11,A17,5,D17,0\\R2=1.414
 69751\R3=1.41772992\R4=1.3597796\R5=1.36655122\R6=1.08280109\R7=1.0814
 77\R8=1.4433102\R9=1.38928028\R10=1.00641282\R11=1.41970978\R12=1.0839
 6138\R13=1.07687579\R14=1.07686343\R15=1.37185436\R16=1.08589767\R17=1
 .18185408\A3=125.3053947\A4=107.20959102\A5=118.00621558\A6=120.335025
 27\A7=121.07528315\A8=106.58864804\A9=110.18700687\A10=124.34327815\A1
 1=127.48301201\A12=117.28290428\A13=126.55053955\A14=120.49210777\A15=
 128.03998964\A16=118.01230267\A17=145.12800634\D4=-171.65889022\D5=-27
 .27979427\D6=-42.8645334\D7=-171.58007548\D8=-145.46062339\D9=0.490503
 72\D10=170.82557935\D11=-1.04427434\D12=-174.51528319\D13=178.34279078
 \D14=179.30739314\D15=2.2805694\D16=-166.43644161\D17=178.3458829\\Ver
 sion=ES64L-G16RevA.03\HF=-439.1389294\RMSD=2.723e-09\RMSF=1.913e-04\Ze
 roPoint=0.1299648\Thermal=0.1375573\Dipole=-0.8517984,-0.4393095,-1.64
 47627\DipoleDeriv=0.8276452,0.0718922,0.1191657,-0.0770829,0.0049196,-
 0.0956728,0.2023273,0.0314437,0.3385628,-0.3158234,-0.2385536,-0.40406
 4,-0.2625024,-0.2090281,-0.2890208,-0.2428664,-0.1233171,-0.3991448,-0
 .562049,-0.0994789,-0.1354317,-0.149097,-0.3115902,-0.039601,0.0361952
 ,0.0088855,-0.1236388,-0.6973535,-0.149588,-0.0614585,-0.0089149,-0.15
 7584,-0.0356472,-0.3307494,0.0064338,-0.4072345,0.3532511,0.1780429,0.
 1126154,0.2083668,0.1239193,0.3372296,0.4285706,0.3334651,0.4430807,0.
 0690491,0.0448808,0.0246696,0.1219215,0.1435312,0.0932009,0.0072298,0.
 0032509,0.0962623,0.0313572,-0.0319806,-0.0071677,0.0191259,0.1554627,
 -0.0563941,-0.0030361,-0.0613631,-0.040049,0.0346755,0.0034884,0.02492
 34,-0.0776801,-0.2449376,0.0300825,-0.0323069,-0.0006352,-0.0330838,-0
 .0862712,-0.0805871,-0.155641,0.017275,-0.1197942,0.0554285,-0.0552825
 ,-0.0440887,0.2751781,0.1960946,0.0239643,0.06869,0.0373105,0.2888666,
 0.0514233,0.0825602,0.0198221,0.2253466,-0.3284278,0.1940781,0.306044,
 -0.1098915,-0.3307952,-0.085079,-0.3992433,-0.3273907,-0.825899,-0.023
 9823,-0.0132663,0.0906104,0.0006328,0.1122796,-0.015912,0.0721243,-0.0
 068721,0.0411596,0.0441355,0.0002416,0.0411231,0.0198529,0.1539661,-0.
 018775,0.0654851,0.0042128,-0.0081375,-0.0140967,0.0281775,-0.0108588,
 0.0370247,0.1802043,-0.0121419,-0.0176019,0.004633,0.07466,0.8854778,0
 .2034487,-0.089673,0.5615918,0.6919442,0.6981906,0.5092783,1.029277,2.
 0893156,-0.0594695,-0.1197846,-0.0253585,-0.0748589,0.0944651,-0.07308
 85,0.0490033,-0.0387514,0.0801563,-0.3542127,-0.0149755,0.1018118,-0.2
 630741,-0.5758295,-0.5442232,-0.3716879,-0.8390058,-1.8265345\Polar=13
 7.7643664,14.8792043,70.1263516,1.7024911,16.3435202,115.5861582\PG=C0
 1 [X(C8H7N1O1)]\NImag=1\\0.71762996,-0.04238224,0.17906024,-0.08447153
 ,-0.00710345,0.64862691,-0.09490391,0.01107593,0.03535214,0.53489207,0
 .00019157,-0.07272261,0.03603242,-0.20596494,0.21963807,-0.00828470,0.
 00599550,-0.27571478,0.04797205,-0.11087816,0.59858182,-0.19996464,0.0
 0368876,0.06682027,0.02474004,0.02257106,0.02891721,0.62496011,0.00531
 421,-0.05627754,-0.01648098,0.00943666,0.01105594,0.00406212,0.1332525
 9,0.19631625,0.10110162,-0.01037911,-0.18565063,0.02615192,-0.00610512
 ,-0.01957679,0.00533450,0.17078599,0.66075809,-0.27592860,0.02447102,-
 0.05461792,-0.03704613,0.00009488,-0.05395285,-0.05326331,0.00409742,-
 0.00476285,0.61935054,0.04022818,-0.06465987,0.00800971,0.01051833,0.0
 1332947,0.01036450,-0.00553712,0.00156459,0.00383319,-0.09474041,0.101
 45128,-0.04933406,0.01264893,-0.15034421,-0.01687993,0.00994334,-0.045
 82285,0.01206901,-0.00533690,0.02228038,0.08891730,-0.08133338,0.88827
 711,-0.06575947,-0.01289130,0.02039848,-0.00790012,-0.01136358,-0.0112
 7721,-0.30002255,-0.11101517,-0.10589138,0.01145646,0.00106729,0.00628
 070,0.67587263,-0.01682574,-0.00016157,0.01653041,-0.00881744,-0.01059
 947,-0.00823902,-0.10973447,-0.10541505,-0.06393027,0.00471126,0.00405
 950,0.00116390,0.17108133,0.26088208,-0.01054795,0.00490441,0.04685922
 ,-0.02188276,-0.01974501,-0.01616179,-0.04914652,-0.03929453,-0.151566
 56,0.00910885,0.00197956,0.00289546,-0.04986845,0.15537897,0.56157681,
 0.00105257,-0.00301645,-0.00675368,-0.14720232,0.11536485,-0.08051946,
 -0.00339515,-0.00286159,-0.00010121,0.00491607,0.00161586,0.00015063,0
 .00080300,0.00066494,0.00345700,0.16803740,-0.00217902,-0.00024121,-0.
 01462695,0.13799947,-0.11968421,0.10569286,-0.00647539,-0.00363820,0.0
 0001017,0.00427527,0.00056998,-0.00361611,0.00235582,0.00283220,0.0074
 4471,-0.11850013,0.13613102,-0.01911459,0.01733815,-0.01039193,-0.0818
 1071,0.09045384,-0.11987599,-0.00188840,-0.00234727,-0.00016114,0.0010
 1518,-0.00045362,-0.00668972,-0.00000496,0.00089456,0.00152810,0.09860
 668,-0.09582330,0.12679317,0.00634487,0.00697554,0.02373073,-0.0021666
 1,0.00123272,0.00189073,-0.05824697,-0.00890365,-0.00727278,0.00218861
 ,-0.00088221,-0.00155211,0.00210737,-0.00711241,-0.02693913,-0.0001623
 6,-0.00035157,0.00013535,0.05510144,-0.00613898,0.00081080,0.00854414,
 -0.00337638,0.00024357,-0.00201512,-0.00053542,-0.04641516,-0.08359587
 ,0.00128789,-0.00071789,0.00126048,-0.00499920,-0.00488392,-0.01493457
 ,0.00047610,0.00050531,-0.00026129,0.01221022,0.04726303,-0.00139619,-
 0.00327772,-0.01524006,0.00285544,-0.00078340,0.00118867,-0.01183077,-
 0.08399727,-0.31363006,-0.00118950,0.00068986,0.00099150,0.00148230,-0
 .00196553,-0.00742520,-0.00014272,-0.00012129,0.00002578,0.00981704,0.
 08993066,0.33279898,-0.00731408,0.00224754,0.04168812,-0.21016973,0.04
 886195,0.05090060,-0.00581106,-0.00457473,-0.00143409,0.00711682,-0.00
 274735,-0.01263935,0.00168758,0.00487662,0.01056133,-0.01539671,-0.008
 52414,0.00307869,-0.00062091,0.00074635,-0.00009771,0.54265634,0.00221
 648,0.00810053,-0.00552707,0.02113958,-0.07049523,-0.00165406,0.002188
 83,0.00348053,0.00039955,0.00140502,0.01465409,0.00247454,-0.00012780,
 -0.00144776,-0.00328494,0.01370074,-0.00077149,-0.00732587,-0.00003985
 ,0.00000313,0.00015550,-0.06605642,0.13258556,0.01880244,-0.00088213,-
 0.03287854,0.05115469,-0.00211331,-0.11160181,0.00083346,-0.00112004,-
 0.00588285,0.02095137,-0.00384796,-0.08845400,-0.00285916,-0.00121362,
 -0.00169378,-0.01718655,-0.00055846,0.00821506,0.00128935,0.00028844,-
 0.00052727,-0.02332534,-0.01258071,0.86041447,-0.07948540,0.01465875,0
 .01338882,-0.05512288,0.00839242,-0.00932017,0.00340888,0.00027537,-0.
 00534208,-0.16750435,0.02107388,0.07831925,-0.00427087,-0.00107267,-0.
 00137634,-0.00514802,0.00074032,0.00367089,-0.00010671,-0.00024487,0.0
 0079596,-0.19861431,0.02104438,-0.15159478,0.82217597,0.01175862,0.009
 31859,-0.00434795,0.01351244,0.01194818,0.00025355,-0.00182492,0.00234
 881,0.00080335,0.02685756,-0.05237929,-0.01063309,0.00137383,0.0016448
 6,0.00108145,0.00127989,0.00116345,0.00090216,0.00003327,-0.00031384,0
 .00007983,0.01948677,-0.06535488,0.02610719,-0.11263205,0.13281130,0.0
 4020241,-0.01007872,0.00977637,-0.06268493,-0.00623201,0.00175827,-0.0
 0211137,0.00694870,-0.00144315,0.06894295,-0.00061864,-0.21050108,0.00
 109744,-0.00361233,-0.00798458,0.00621732,0.00633452,0.00132627,0.0009
 9804,-0.00054736,-0.00063905,-0.13615350,0.02396954,-0.31782151,0.1099
 5746,-0.02017167,0.61092770,0.00225547,0.00306752,-0.03150675,-0.00719
 619,0.00223447,-0.00147303,0.00230128,-0.00054943,0.00051768,-0.100805
 91,0.02847460,-0.09609000,-0.00050100,-0.00092793,-0.00061061,0.000215
 62,-0.00039819,-0.00131284,-0.00049316,0.00038630,0.00067317,-0.002916
 66,0.00095765,0.00561780,0.01460578,-0.00676375,0.01659848,0.09125998,
 -0.00155845,-0.00501889,0.00244517,-0.00000816,0.00518323,0.00131941,-
 0.00039213,-0.00254516,0.00008718,0.02921720,-0.01940590,0.07209271,-0
 .00007030,-0.00002591,0.00059100,0.00095098,0.00099066,-0.00051052,0.0
 0041988,0.00019036,-0.00040517,0.00306307,0.00104867,-0.00036454,-0.00
 337524,-0.00580502,-0.00675157,-0.02755738,0.02476948,-0.00193350,0.00
 002266,-0.00249226,-0.00005956,0.00147140,0.00159578,0.00151539,0.0003
 5540,0.00095881,-0.09673503,0.06494669,-0.41209236,-0.00065763,-0.0001
 8239,-0.00112814,-0.00025385,-0.00057706,-0.00020834,-0.00007633,-0.00
 048095,-0.00019808,0.00327364,-0.00022210,-0.00162072,-0.01123906,0.00
 349555,-0.01212167,0.10679135,-0.06860613,0.42639285,-0.01322860,-0.00
 205356,0.02012109,-0.03303894,-0.02022386,-0.01119968,0.02074714,-0.00
 425407,-0.02531226,-0.00009490,0.00258634,0.00401410,-0.10799585,-0.04
 508682,-0.04940932,0.00087492,0.00668881,0.00247602,-0.00126556,-0.004
 66145,-0.00049920,0.00948854,-0.00532714,-0.00204787,-0.00350581,0.001
 61086,-0.00760765,-0.00054582,0.00034241,-0.00025246,0.50417653,0.0090
 6049,-0.00327254,-0.00153957,-0.01375772,-0.00037610,0.00179044,-0.018
 12403,-0.00525467,-0.01689212,-0.00716458,-0.00012025,-0.00066987,-0.0
 2152146,-0.10002462,-0.09985748,0.00088222,0.00243691,0.00103567,-0.00
 316603,0.00623680,-0.00146813,0.00144110,-0.00325710,-0.00042205,0.000
 79008,0.00015709,-0.00349047,0.00008367,-0.00014009,0.00037001,0.18160
 615,0.26985089,0.02295446,0.00128113,-0.02683585,0.00986170,0.01719980
 ,0.01157468,-0.05219041,-0.03491027,-0.01531613,-0.00604711,-0.0009934
 4,-0.00257555,0.00645011,-0.07223048,-0.22628595,0.00005358,-0.0041726
 5,-0.00025859,-0.00041089,0.00020670,0.00235105,-0.00754333,-0.0005936
 1,0.00137372,0.00111829,-0.00135517,0.00456661,0.00083849,-0.00063201,
 0.00059579,-0.08714284,0.18576547,0.58739981,-0.00217984,-0.00383867,-
 0.00221458,0.00055379,0.00043587,0.00021855,-0.01897732,-0.00243930,0.
 01712632,-0.00011256,-0.00024059,0.00065291,-0.22538032,-0.01710929,0.
 13601614,-0.00011315,-0.00009652,-0.00000817,0.00056119,0.00180331,-0.
 00052009,-0.00031442,-0.00010941,-0.00004970,-0.00024074,0.00025994,0.
 00014953,-0.00002472,-0.00009909,0.00005378,0.00481493,-0.00138742,-0.
 00483268,0.24041694,-0.00540625,0.00620527,-0.00373958,-0.00102929,-0.
 00113594,-0.00117733,-0.01000501,0.00477558,0.00911477,-0.00124848,0.0
 0039703,0.00215547,-0.01926512,-0.04720035,0.00170533,0.00033331,0.000
 31624,0.00018695,0.00183566,-0.00455571,0.00145054,0.00091163,-0.00002
 281,0.00027177,-0.00038075,-0.00013138,-0.00128617,0.00002038,0.000113
 48,-0.00001013,0.00749440,0.00516819,-0.00422009,0.02337696,0.03551066
 ,-0.00137932,-0.00329067,0.00059437,0.00043227,0.00026548,0.00053363,-
 0.01005516,-0.00248875,0.00915855,0.00038519,0.00011393,-0.00001696,0.
 13650920,0.00463142,-0.15827846,-0.00023900,-0.00024775,-0.00005840,-0
 .00054324,0.00182392,0.00056045,-0.00045431,0.00010976,-0.00006605,-0.
 00002420,0.00016864,0.00048986,-0.00001948,-0.00009087,-0.00000716,0.0
 2221450,0.00068525,-0.01624664,-0.14542006,0.00111304,0.16671760,-0.00
 630828,0.00124405,0.00050109,-0.00022010,-0.00134789,0.02498265,0.0007
 0992,0.00018764,0.00137288,-0.00183740,0.00134188,-0.00435938,0.000158
 67,0.00018157,0.00023087,0.00040660,0.00004724,-0.00079962,-0.00040635
 ,-0.00009375,0.00025901,-0.09077552,0.00666890,0.09676779,0.01127147,-
 0.00120953,-0.01615103,0.00101090,0.00002221,-0.00062500,0.00010838,-0
 .00007957,-0.00045249,-0.00001288,-0.00001322,0.00000439,0.08524797,0.
 00200952,0.00229632,0.00063987,-0.00233935,-0.00175105,-0.00294985,0.0
 0037774,0.00104637,0.00006387,-0.00019034,0.00591472,0.00132244,-0.000
 00360,-0.00039169,-0.00057799,-0.00128323,-0.00055126,-0.00005507,-0.0
 0011403,0.00018132,-0.00005797,0.00937871,-0.02828060,-0.00668392,-0.0
 0246463,0.00040135,0.00109893,0.00043790,0.00190991,-0.00003300,-0.000
 43669,-0.00003341,0.00036081,0.00000090,-0.00005852,0.00002223,-0.0066
 5877,0.02192000,-0.00033612,-0.00016116,0.00031310,-0.00068447,0.00012
 676,0.00057236,0.00000926,-0.00001405,-0.00002412,-0.00264829,0.000966
 31,-0.00259120,-0.00001420,-0.00005573,-0.00000270,0.00037159,-0.00000
 598,-0.00003536,0.00000720,0.00009347,0.00002753,0.09362444,-0.0062473
 1,-0.32001749,0.01240796,-0.00132076,-0.01303349,0.00074972,-0.0003268
 6,-0.00022772,0.00015939,0.00011720,0.00012508,0.00000898,0.00001327,-
 0.00000479,-0.10295810,0.00714579,0.33483348,0.00071591,-0.00008636,0.
 00241321,0.00011691,0.00180852,-0.00184293,-0.00055285,0.00016995,-0.0
 0048699,-0.01203956,0.00176905,-0.00428467,0.00005916,0.00018920,0.000
 43303,-0.00048644,-0.00015560,0.00017169,-0.00002358,0.00001141,0.0000
 1309,-0.00545822,0.00118173,0.00278166,-0.34238672,0.05014887,-0.03527
 441,-0.00014676,-0.00006952,0.00032715,0.00025725,-0.00000599,-0.00014
 361,-0.00000495,-0.00010020,0.00000474,0.00002538,-0.00061077,-0.00038
 622,0.36010049,0.00090296,0.00166181,-0.00011293,0.00175971,0.00666465
 ,-0.00041885,0.00004075,0.00155725,0.00026795,0.00104952,-0.00276604,0
 .00057300,0.00016396,0.00012622,0.00030487,-0.00063586,0.00077838,0.00
 076057,-0.00006700,-0.00000745,-0.00001008,0.00107563,0.00218830,-0.00
 074336,0.04989450,-0.03326180,0.00545630,-0.00008981,-0.00090581,-0.00
 018941,0.00076606,0.00050556,-0.00009990,0.00020077,-0.00018722,0.0000
 8406,-0.00058665,-0.00358764,-0.00008098,-0.05417444,0.02818962,0.0010
 6430,0.00008636,-0.00585680,-0.00284405,0.00088242,-0.00418171,0.00141
 585,0.00009100,0.00115253,0.03063117,-0.00533043,0.00663929,-0.0000148
 2,-0.00038182,-0.00089514,-0.00117585,-0.00015856,0.00056210,-0.000034
 05,-0.00001989,0.00001364,-0.02176576,0.00314278,0.00830327,-0.0441713
 5,0.00618537,-0.06531319,-0.00062750,0.00009489,0.00067665,-0.00046928
 ,-0.00014568,0.00043293,0.00005883,0.00012860,0.00001464,0.00092913,-0
 .00023058,0.00033767,0.03650091,-0.00503230,0.05792522,0.02664880,0.00
 103396,-0.06570970,0.04955693,0.05987508,0.04776100,-0.05479687,-0.025
 14222,-0.00313483,0.00680199,-0.00722963,-0.00586407,0.03021982,0.0406
 8175,0.07029043,-0.00569736,-0.01957504,-0.00517781,-0.00419784,0.0043
 3590,-0.00052210,-0.03267770,0.00192812,-0.00149462,0.00512698,-0.0045
 7212,0.02269450,0.00156810,-0.00167109,-0.00020215,-0.14479571,-0.0122
 2141,0.08891892,0.00036801,0.00229735,-0.00191847,0.00051638,0.0018697
 9,-0.00030263,-0.00021661,-0.00042631,0.00069364,0.19502352,0.00442044
 ,-0.00448389,-0.02792188,0.04672003,0.02507777,0.01575344,-0.01395445,
 -0.00381896,0.00031596,0.00948361,-0.00393377,-0.00261493,0.02003567,0
 .00030829,0.00801652,-0.00812566,-0.02605096,-0.00271183,-0.00173147,0
 .00187030,-0.00009873,-0.01464015,0.00891185,0.00489868,0.00520402,-0.
 00304570,0.01305352,0.00066665,-0.00123359,-0.00066498,0.01901531,-0.0
 5952786,-0.04071164,-0.00217835,0.00306801,-0.00447605,0.00076433,0.00
 165227,-0.00057116,-0.00002195,-0.00122028,0.00082721,-0.10084065,0.19
 034126,-0.01311780,-0.00261249,-0.00922979,0.03016666,0.00875032,-0.00
 331042,0.01085208,0.00948926,0.00793592,0.00715601,-0.00024055,-0.0041
 9190,0.02358026,-0.01694066,-0.04845294,-0.00399205,-0.00002811,-0.000
 33272,-0.00000960,0.00048138,-0.00010885,-0.00417737,0.00842464,0.0014
 9997,0.00632821,-0.00291103,0.00513595,-0.00044132,0.00101176,-0.00075
 167,0.12998915,-0.00952909,-0.22239666,-0.00087617,-0.00741000,-0.0036
 7845,0.00217322,0.00073287,-0.00078981,-0.00012157,-0.00089931,0.00003
 567,-0.30354134,0.24620693,0.98776228,-0.00049366,-0.00101301,0.003538
 84,-0.00355175,-0.00224294,-0.00182281,0.00329957,-0.00015129,0.001881
 73,-0.00151933,0.00045386,0.00050313,-0.00115035,-0.00240039,-0.002960
 86,0.00052559,0.00065575,0.00034612,0.00025063,-0.00022436,0.00007562,
 0.00149225,-0.00099071,0.00004651,-0.00022948,0.00038338,-0.00180382,-
 0.00012559,-0.00000423,0.00009781,-0.22714335,-0.13416990,-0.02432823,
 0.00030547,0.00166362,-0.00073165,-0.00006850,-0.00007850,0.00004344,0
 .00002530,0.00014075,-0.00005163,-0.01631910,-0.01110645,0.00473414,0.
 24358456,-0.00119001,0.00154592,-0.00012121,-0.00000527,0.00211686,0.0
 0159230,0.00220104,0.00085663,-0.00444293,0.00252799,-0.00005142,0.000
 11050,-0.01124995,-0.00587894,-0.00018013,-0.00028074,0.00045513,-0.00
 006626,-0.00085093,0.00043295,-0.00027955,-0.00111443,-0.00022399,-0.0
 0104666,-0.00094698,-0.00021813,0.00185725,0.00015263,0.00005226,-0.00
 017757,-0.14074002,-0.12084315,-0.03035302,0.00086474,-0.00124636,0.00
 076147,-0.00002810,0.00003646,0.00001880,0.00002105,0.00003269,-0.0000
 2879,0.00139048,0.00047359,-0.00433967,0.14851124,0.12292961,0.0028389
 1,-0.00090813,-0.00371869,0.00548956,0.00198982,0.00077960,-0.00245435
 ,-0.00299238,-0.00180495,-0.00111934,-0.00027775,-0.00047110,-0.022744
 34,-0.01528166,-0.00142655,-0.00011372,-0.00142325,-0.00030440,-0.0010
 9764,0.00025041,-0.00054893,-0.00092286,0.00119371,0.00096382,0.001143
 18,-0.00020676,0.00027858,0.00006252,-0.00012255,0.00006798,-0.0168919
 6,-0.02876982,-0.05121980,-0.00033016,0.00091177,0.00058255,0.00000022
 ,0.00004593,-0.00003799,-0.00005968,-0.00016015,0.00010454,0.01169561,
 0.00967637,0.00052881,0.02424961,0.03525942,0.05435696,-0.00908110,-0.
 00318148,0.01732135,-0.01134106,-0.01992018,-0.02294995,0.01486377,0.0
 0715761,0.00025181,-0.00167844,0.00224804,0.00009651,-0.00938417,-0.01
 329950,-0.01735568,0.00076973,0.00349293,0.00061651,0.00113596,-0.0009
 8307,0.00022665,0.00762778,0.00021991,0.00031296,0.00002621,0.00029693
 ,-0.00507142,-0.00046130,0.00078984,-0.00002454,-0.00885316,0.01773442
 ,0.05289602,0.00034058,-0.00048497,0.00123457,0.00017337,0.00010534,-0
 .00005196,0.00001529,-0.00001455,-0.00013954,-0.05712934,0.04628907,0.
 11129745,0.00111773,0.00073725,0.00025443,0.07185815,-0.00042176,-0.00
 216136,0.00931985,-0.01686361,-0.01849312,-0.01949172,0.00226216,0.000
 36277,-0.00033657,-0.00613480,0.00209377,0.00045897,-0.00357041,0.0061
 7615,-0.00353218,-0.00056522,0.00475805,-0.00201687,0.00051187,-0.0008
 4359,0.00015846,0.00556784,-0.00111881,0.00001068,-0.00095654,0.000716
 42,-0.00592983,-0.00019529,0.00082233,0.00048200,0.00267327,0.00849433
 ,-0.01454163,0.00055615,-0.00101616,0.00081489,-0.00044032,-0.00070457
 ,0.00030238,-0.00007494,0.00023177,-0.00011058,0.05826603,-0.12838832,
 -0.23018624,0.00057317,-0.00047011,0.00081502,-0.04118760,0.12954045,0
 .00295161,-0.00358357,0.01218358,-0.02259004,-0.02125860,-0.02033866,0
 .00190994,-0.00275002,-0.00718789,-0.00603512,0.00219201,0.00266718,-0
 .00246635,0.00543425,0.00844221,0.00162130,0.00187721,-0.00013387,0.00
 006732,-0.00102455,0.00035989,0.00538679,-0.00243434,-0.00020628,-0.00
 406204,0.00186934,-0.00540188,0.00023230,0.00016811,0.00056024,0.02185
 826,-0.02697976,-0.04728448,-0.00003343,0.00079178,-0.00029474,-0.0018
 7562,-0.00084436,0.00055546,-0.00004539,0.00030052,0.00004869,0.145813
 61,-0.21897741,-0.70965540,-0.00381796,0.00143603,0.00186956,-0.138915
 17,0.26378335,0.76381639\\-0.00077165,0.00070795,0.00002407,0.00070680
 ,-0.00036393,-0.00002434,0.00004788,-0.00034123,-0.00000847,0.00006849
 ,-0.00001304,0.00004475,-0.00004147,-0.00000006,-0.00000809,-0.0000043
 2,0.00000508,0.00000025,0.00000255,-0.00000109,0.00000104,0.00001951,-
 0.00000680,-0.00000259,-0.00001921,0.00000773,-0.00004012,-0.00002392,
 0.00000978,0.00001703,-0.00002309,-0.00001197,0.00003865,-0.00000280,0
 .00000294,-0.00000118,-0.00000186,-0.00000149,-0.00000176,0.00000075,0
 .00000163,0.00000034,0.00004104,0.00001684,0.00000381,-0.00000327,0.00
 000119,0.00000050,0.00000458,-0.00001352,-0.00004390\\\@


 MORNING PEOPLE ARE USUALLY ADMIRED AS EARLY BIRDS.
 RECALL BEN FRANKLIN'S APHORISM THAT THE EARLY BIRD GETS THE WORM.
 I IDENTIFY WITH THE WORM. --  CRAIG JAGGER, MINNEAPOLIS, KS.
 Job cpu time:       0 days  2 hours 16 minutes 13.6 seconds.
 Elapsed time:       0 days  0 hours 11 minutes 21.6 seconds.
 File lengths (MBytes):  RWF=    183 Int=      0 D2E=      0 Chk=     32 Scr=      1
 Normal termination of Gaussian 16 at Fri Jun 10 11:46:17 2022.
