 Entering Gaussian System, Link 0=g16
 Input=ts_zmat_field_N75.gjf
 Output=ts_zmat_field_N75.out
 Initial command:
 /software/gaussian/g16-a03/l1.exe "/local_scratch/11171442/Gau-9825.inp" -scrdir="/local_scratch/11171442/"
 Entering Link 1 = /software/gaussian/g16-a03/l1.exe PID=      9827.
  
 Copyright (c) 1988,1990,1992,1993,1995,1998,2003,2009,2016,
            Gaussian, Inc.  All Rights Reserved.
  
 This is part of the Gaussian(R) 16 program.  It is based on
 the Gaussian(R) 09 system (copyright 2009, Gaussian, Inc.),
 the Gaussian(R) 03 system (copyright 2003, Gaussian, Inc.),
 the Gaussian(R) 98 system (copyright 1998, Gaussian, Inc.),
 the Gaussian(R) 94 system (copyright 1995, Gaussian, Inc.),
 the Gaussian 92(TM) system (copyright 1992, Gaussian, Inc.),
 the Gaussian 90(TM) system (copyright 1990, Gaussian, Inc.),
 the Gaussian 88(TM) system (copyright 1988, Gaussian, Inc.),
 the Gaussian 86(TM) system (copyright 1986, Carnegie Mellon
 University), and the Gaussian 82(TM) system (copyright 1983,
 Carnegie Mellon University). Gaussian is a federally registered
 trademark of Gaussian, Inc.
  
 This software contains proprietary and confidential information,
 including trade secrets, belonging to Gaussian, Inc.
  
 This software is provided under written license and may be
 used, copied, transmitted, or stored only in accord with that
 written license.
  
 The following legend is applicable only to US Government
 contracts under FAR:
  
                    RESTRICTED RIGHTS LEGEND
  
 Use, reproduction and disclosure by the US Government is
 subject to restrictions as set forth in subparagraphs (a)
 and (c) of the Commercial Computer Software - Restricted
 Rights clause in FAR 52.227-19.
  
 Gaussian, Inc.
 340 Quinnipiac St., Bldg. 40, Wallingford CT 06492
  
  
 ---------------------------------------------------------------
 Warning -- This program may not be used in any manner that
 competes with the business of Gaussian, Inc. or will provide
 assistance to any competitor of Gaussian, Inc.  The licensee
 of this program is prohibited from giving any competitor of
 Gaussian, Inc. access to this program.  By using this program,
 the user acknowledges that Gaussian, Inc. is engaged in the
 business of creating and licensing software in the field of
 computational chemistry and represents and warrants to the
 licensee that it is not a competitor of Gaussian, Inc. and that
 it will not use this program in any manner prohibited above.
 ---------------------------------------------------------------
  

 Cite this work as:
 Gaussian 16, Revision A.03,
 M. J. Frisch, G. W. Trucks, H. B. Schlegel, G. E. Scuseria, 
 M. A. Robb, J. R. Cheeseman, G. Scalmani, V. Barone, 
 G. A. Petersson, H. Nakatsuji, X. Li, M. Caricato, A. V. Marenich, 
 J. Bloino, B. G. Janesko, R. Gomperts, B. Mennucci, H. P. Hratchian, 
 J. V. Ortiz, A. F. Izmaylov, J. L. Sonnenberg, D. Williams-Young, 
 F. Ding, F. Lipparini, F. Egidi, J. Goings, B. Peng, A. Petrone, 
 T. Henderson, D. Ranasinghe, V. G. Zakrzewski, J. Gao, N. Rega, 
 G. Zheng, W. Liang, M. Hada, M. Ehara, K. Toyota, R. Fukuda, 
 J. Hasegawa, M. Ishida, T. Nakajima, Y. Honda, O. Kitao, H. Nakai, 
 T. Vreven, K. Throssell, J. A. Montgomery, Jr., J. E. Peralta, 
 F. Ogliaro, M. J. Bearpark, J. J. Heyd, E. N. Brothers, K. N. Kudin, 
 V. N. Staroverov, T. A. Keith, R. Kobayashi, J. Normand, 
 K. Raghavachari, A. P. Rendell, J. C. Burant, S. S. Iyengar, 
 J. Tomasi, M. Cossi, J. M. Millam, M. Klene, C. Adamo, R. Cammi, 
 J. W. Ochterski, R. L. Martin, K. Morokuma, O. Farkas, 
 J. B. Foresman, and D. J. Fox, Gaussian, Inc., Wallingford CT, 2016.
 
 ******************************************
 Gaussian 16:  ES64L-G16RevA.03 25-Dec-2016
                10-Jun-2022 
 ******************************************
 %nprocshared=12
 Will use up to   12 processors via shared memory.
 %chk=checkpoint.chk
 %mem=12GB
 ----------------------------------------------------------------------
 # Opt=(TS, CalcFC, noeigentest, Z-matrix, MaxStep=10) geom=allcheckpoi
 nt guess=read Field=read NoSymm B3LYP/Def2TZVP freq=noraman pop=none
 ----------------------------------------------------------------------
 1/5=1,8=10,10=4,11=1,18=40,26=3,29=7,38=1/1,3;
 2/12=2,15=1,29=3,40=1/2;
 3/5=44,7=101,11=2,14=-6,25=1,30=1,71=2,74=-5,116=-2,140=1/1,2,3;
 4/5=1/1;
 5/5=2,38=6/2;
 8/6=4,10=90,11=11/1;
 11/6=1,8=1,9=11,15=111,16=1,31=1/1,2,10;
 10/6=1,13=1,31=1/2;
 7/10=1,18=20,25=1,30=1/1,2,3,16;
 1/5=1,8=10,10=4,11=1,18=40,26=3/3(2);
 2/15=1,29=3/2;
 99//99;
 2/15=1,29=3/2;
 3/5=44,7=101,11=2,14=-2,25=1,30=1,71=1,74=-5/1,2,3;
 4/5=5,16=3,69=1/1;
 5/5=2,38=5/2;
 7/30=1/1,2,3,16;
 1/5=1,8=10,11=1,18=40,26=3/3(-5);
 2/15=1,29=3/2;
 99/9=1/99;
 Structure from the checkpoint file:  "checkpoint.chk"
 -----------------
 ts_zmat_initalOpt
 -----------------
 Charge =  0 Multiplicity = 1
 Z-Matrix found in chk file.
 C
 C,1,R2
 C,1,R3,2,A3
 H,1,R4,2,A4,3,D4,0
 C,3,R5,1,A5,2,D5,0
 H,2,R6,1,A6,3,D6,0
 C,2,R7,1,A7,6,D7,0
 H,3,R8,1,A8,5,D8,0
 C,5,R9,3,A9,1,D9,0
 H,5,R10,3,A10,9,D10,0
 C,5,R11,3,A11,9,D11,0
 H,7,R12,2,A12,1,D12,0
 H,7,R13,2,A13,12,D13,0
 C,9,R14,5,A14,3,D14,0
 H,9,R15,5,A15,14,D15,0
 H,9,R16,5,A16,14,D16,0
 H,11,R17,5,A17,3,D17,0
 H,11,R18,5,A18,17,D18,0
 N,14,R19,9,A19,5,D19,0
 C,14,R20,9,A20,19,D20,0
 O,19,R21,14,A21,9,D21,0
 O,20,R22,14,A22,9,D22,0
 O,20,R23,14,A23,22,D23,0
 C,23,R24,20,A24,14,D24,0
 H,24,R25,23,A25,20,D25,0
 H,24,R26,23,A26,25,D26,0
 H,24,R27,23,A27,25,D27,0
      Variables:
 R2=1.3984503
 R3=1.36769472
 R4=1.08148412
 R5=1.48233103
 R6=1.08427899
 R7=1.49879071
 R8=1.08134916
 R9=1.58765617
 R10=1.08893544
 R11=1.54016112
 R12=1.09105428
 R13=1.09657589
 R14=1.49222051
 R15=1.08821456
 R16=1.09065443
 R17=1.09014604
 R18=1.09065781
 R19=1.36623004
 R20=1.47265202
 R21=1.25191779
 R22=1.2134525
 R23=1.35543305
 R24=1.4295034
 R25=1.08813935
 R26=1.09067534
 R27=1.0903199
 A3=116.82439603
 A4=120.94866157
 A5=117.43655839
 A6=118.99015435
 A7=120.51208385
 A8=121.35965652
 A9=110.0689095
 A10=111.32343966
 A11=108.8720805
 A12=110.90906966
 A13=106.60135698
 A14=115.52266661
 A15=107.40883372
 A16=106.68798833
 A17=109.5800013
 A18=109.23016315
 A19=119.3285677
 A20=120.13966821
 A21=113.5568736
 A22=123.89037936
 A23=114.10665042
 A24=115.00099465
 A25=105.45074085
 A26=110.99011488
 A27=111.13252209
 D4=166.69501917
 D5=-1.16582846
 D6=-161.14595276
 D7=-158.88098271
 D8=176.07165964
 D9=71.87206088
 D10=118.78985579
 D11=-119.40960449
 D12=-149.02408401
 D13=-114.21114613
 D14=-43.17573635
 D15=-123.03929628
 D16=119.30107511
 D17=-179.45278026
 D18=117.10783019
 D19=83.06276868
 D20=158.74356994
 D21=-10.82520565
 D22=8.51542713
 D23=178.93637982
 D24=179.79074652
 D25=-179.90855763
 D26=119.61981823
 D27=-119.57377718
 Recover connectivity data from disk.

 GradGradGradGradGradGradGradGradGradGradGradGradGradGradGradGradGradGrad
 Berny optimization.
 Initialization pass.
                       ----------------------------
                       !    Initial Parameters    !
                       ! (Angstroms and Degrees)  !
 ----------------------                            ----------------------
 !      Name          Value   Derivative information (Atomic Units)     !
 ------------------------------------------------------------------------
 !       R2          1.3985   calculate D2E/DX2 analytically            !
 !       R3          1.3677   calculate D2E/DX2 analytically            !
 !       R4          1.0815   calculate D2E/DX2 analytically            !
 !       R5          1.4823   calculate D2E/DX2 analytically            !
 !       R6          1.0843   calculate D2E/DX2 analytically            !
 !       R7          1.4988   calculate D2E/DX2 analytically            !
 !       R8          1.0813   calculate D2E/DX2 analytically            !
 !       R9          1.5877   calculate D2E/DX2 analytically            !
 !       R10         1.0889   calculate D2E/DX2 analytically            !
 !       R11         1.5402   calculate D2E/DX2 analytically            !
 !       R12         1.0911   calculate D2E/DX2 analytically            !
 !       R13         1.0966   calculate D2E/DX2 analytically            !
 !       R14         1.4922   calculate D2E/DX2 analytically            !
 !       R15         1.0882   calculate D2E/DX2 analytically            !
 !       R16         1.0907   calculate D2E/DX2 analytically            !
 !       R17         1.0901   calculate D2E/DX2 analytically            !
 !       R18         1.0907   calculate D2E/DX2 analytically            !
 !       R19         1.3662   calculate D2E/DX2 analytically            !
 !       R20         1.4727   calculate D2E/DX2 analytically            !
 !       R21         1.2519   calculate D2E/DX2 analytically            !
 !       R22         1.2135   calculate D2E/DX2 analytically            !
 !       R23         1.3554   calculate D2E/DX2 analytically            !
 !       R24         1.4295   calculate D2E/DX2 analytically            !
 !       R25         1.0881   calculate D2E/DX2 analytically            !
 !       R26         1.0907   calculate D2E/DX2 analytically            !
 !       R27         1.0903   calculate D2E/DX2 analytically            !
 !       A3        116.8244   calculate D2E/DX2 analytically            !
 !       A4        120.9487   calculate D2E/DX2 analytically            !
 !       A5        117.4366   calculate D2E/DX2 analytically            !
 !       A6        118.9902   calculate D2E/DX2 analytically            !
 !       A7        120.5121   calculate D2E/DX2 analytically            !
 !       A8        121.3597   calculate D2E/DX2 analytically            !
 !       A9        110.0689   calculate D2E/DX2 analytically            !
 !       A10       111.3234   calculate D2E/DX2 analytically            !
 !       A11       108.8721   calculate D2E/DX2 analytically            !
 !       A12       110.9091   calculate D2E/DX2 analytically            !
 !       A13       106.6014   calculate D2E/DX2 analytically            !
 !       A14       115.5227   calculate D2E/DX2 analytically            !
 !       A15       107.4088   calculate D2E/DX2 analytically            !
 !       A16       106.688    calculate D2E/DX2 analytically            !
 !       A17       109.58     calculate D2E/DX2 analytically            !
 !       A18       109.2302   calculate D2E/DX2 analytically            !
 !       A19       119.3286   calculate D2E/DX2 analytically            !
 !       A20       120.1397   calculate D2E/DX2 analytically            !
 !       A21       113.5569   calculate D2E/DX2 analytically            !
 !       A22       123.8904   calculate D2E/DX2 analytically            !
 !       A23       114.1067   calculate D2E/DX2 analytically            !
 !       A24       115.001    calculate D2E/DX2 analytically            !
 !       A25       105.4507   calculate D2E/DX2 analytically            !
 !       A26       110.9901   calculate D2E/DX2 analytically            !
 !       A27       111.1325   calculate D2E/DX2 analytically            !
 !       D4        166.695    calculate D2E/DX2 analytically            !
 !       D5         -1.1658   calculate D2E/DX2 analytically            !
 !       D6       -161.146    calculate D2E/DX2 analytically            !
 !       D7       -158.881    calculate D2E/DX2 analytically            !
 !       D8        176.0717   calculate D2E/DX2 analytically            !
 !       D9         71.8721   calculate D2E/DX2 analytically            !
 !       D10       118.7899   calculate D2E/DX2 analytically            !
 !       D11      -119.4096   calculate D2E/DX2 analytically            !
 !       D12      -149.0241   calculate D2E/DX2 analytically            !
 !       D13      -114.2111   calculate D2E/DX2 analytically            !
 !       D14       -43.1757   calculate D2E/DX2 analytically            !
 !       D15      -123.0393   calculate D2E/DX2 analytically            !
 !       D16       119.3011   calculate D2E/DX2 analytically            !
 !       D17      -179.4528   calculate D2E/DX2 analytically            !
 !       D18       117.1078   calculate D2E/DX2 analytically            !
 !       D19        83.0628   calculate D2E/DX2 analytically            !
 !       D20       158.7436   calculate D2E/DX2 analytically            !
 !       D21       -10.8252   calculate D2E/DX2 analytically            !
 !       D22         8.5154   calculate D2E/DX2 analytically            !
 !       D23       178.9364   calculate D2E/DX2 analytically            !
 !       D24       179.7907   calculate D2E/DX2 analytically            !
 !       D25      -179.9086   calculate D2E/DX2 analytically            !
 !       D26       119.6198   calculate D2E/DX2 analytically            !
 !       D27      -119.5738   calculate D2E/DX2 analytically            !
 ------------------------------------------------------------------------
 Trust Radius=1.00D-01 FncErr=1.00D-07 GrdErr=1.00D-06 EigMax=2.50D+02 EigMin=1.00D-04
 Number of steps in this run=     85 maximum allowed number of steps=    150.
 Search for a saddle point of order  1.
 GradGradGradGradGradGradGradGradGradGradGradGradGradGradGradGradGradGrad

 ---------------------------------------------------------------------------------------------------
                            Z-MATRIX (ANGSTROMS AND DEGREES)
   CD    Cent   Atom    N1       Length/X        N2       Alpha/Y        N3        Beta/Z          J
 ---------------------------------------------------------------------------------------------------
      1      1  C 
      2      2  C        1   1.398450(     1)
      3      3  C        1   1.367695(     2)      2  116.824(    27)
      4      4  H        1   1.081484(     3)      2  120.949(    28)      3  166.695(    52)      0
      5      5  C        3   1.482331(     4)      1  117.437(    29)      2   -1.166(    53)      0
      6      6  H        2   1.084279(     5)      1  118.990(    30)      3 -161.146(    54)      0
      7      7  C        2   1.498791(     6)      1  120.512(    31)      6 -158.881(    55)      0
      8      8  H        3   1.081349(     7)      1  121.360(    32)      5  176.072(    56)      0
      9      9  C        5   1.587656(     8)      3  110.069(    33)      1   71.872(    57)      0
     10     10  H        5   1.088935(     9)      3  111.323(    34)      9  118.790(    58)      0
     11     11  C        5   1.540161(    10)      3  108.872(    35)      9 -119.410(    59)      0
     12     12  H        7   1.091054(    11)      2  110.909(    36)      1 -149.024(    60)      0
     13     13  H        7   1.096576(    12)      2  106.601(    37)     12 -114.211(    61)      0
     14     14  C        9   1.492221(    13)      5  115.523(    38)      3  -43.176(    62)      0
     15     15  H        9   1.088215(    14)      5  107.409(    39)     14 -123.039(    63)      0
     16     16  H        9   1.090654(    15)      5  106.688(    40)     14  119.301(    64)      0
     17     17  H       11   1.090146(    16)      5  109.580(    41)      3 -179.453(    65)      0
     18     18  H       11   1.090658(    17)      5  109.230(    42)     17  117.108(    66)      0
     19     19  N       14   1.366230(    18)      9  119.329(    43)      5   83.063(    67)      0
     20     20  C       14   1.472652(    19)      9  120.140(    44)     19  158.744(    68)      0
     21     21  O       19   1.251918(    20)     14  113.557(    45)      9  -10.825(    69)      0
     22     22  O       20   1.213452(    21)     14  123.890(    46)      9    8.515(    70)      0
     23     23  O       20   1.355433(    22)     14  114.107(    47)     22  178.936(    71)      0
     24     24  C       23   1.429503(    23)     20  115.001(    48)     14  179.791(    72)      0
     25     25  H       24   1.088139(    24)     23  105.451(    49)     20 -179.909(    73)      0
     26     26  H       24   1.090675(    25)     23  110.990(    50)     25  119.620(    74)      0
     27     27  H       24   1.090320(    26)     23  111.133(    51)     25 -119.574(    75)      0
 ---------------------------------------------------------------------------------------------------
                         Z-Matrix orientation:                         
 ---------------------------------------------------------------------
 Center     Atomic      Atomic             Coordinates (Angstroms)
 Number     Number       Type             X           Y           Z
 ---------------------------------------------------------------------
      1          6           0        0.000000    0.000000    0.000000
      2          6           0        0.000000    0.000000    1.398450
      3          6           0        1.220522    0.000000   -0.617183
      4          1           0       -0.902616   -0.213452   -0.556175
      5          6           0        2.423586    0.026767    0.248396
      6          1           0       -0.897534   -0.306491    1.923956
      7          6           0        0.989538    0.829529    2.159416
      8          1           0        1.307673   -0.081990   -1.691891
      9          6           0        2.607730   -1.375986    0.968830
     10          1           0        3.325549    0.212209   -0.332858
     11          6           0        2.243315    1.119893    1.318291
     12          1           0        1.243605    0.358015    3.109955
     13          1           0        0.477821    1.762277    2.425131
     14          6           0        1.361240   -1.985085    1.518361
     15          1           0        3.336078   -1.239575    1.765768
     16          1           0        3.004146   -2.062925    0.220167
     17          1           0        3.126734    1.156160    1.956000
     18          1           0        2.159597    2.091061    0.829048
     19          7           0        0.542733   -2.698038    0.688706
     20          6           0        1.235213   -2.234152    2.964317
     21          8           0        0.834771   -2.581924   -0.523123
     22          8           0        2.031660   -1.840192    3.790715
     23          8           0        0.126642   -2.932679    3.311203
     24          6           0       -0.012420   -3.189378    4.710577
     25          1           0       -0.938674   -3.751430    4.811561
     26          1           0        0.829604   -3.771825    5.086508
     27          1           0       -0.069592   -2.259502    5.277022
 ---------------------------------------------------------------------
                    Distance matrix (angstroms):
                    1          2          3          4          5
     1  C    0.000000
     2  C    1.398450   0.000000
     3  C    1.367695   2.356364   0.000000
     4  H    1.081484   2.163524   2.134713   0.000000
     5  C    2.436429   2.682743   1.482331   3.430548   0.000000
     6  H    2.145020   1.084279   3.322271   2.481881   3.734756
     7  C    2.516025   1.498791   2.907056   3.470229   2.520500
     8  H    2.139913   3.356626   1.081349   2.488476   2.240938
     9  C    3.103582   2.979625   2.516569   3.999956   1.587656
    10  H    3.348895   3.755227   2.134715   4.255401   1.088935
    11  C    2.832757   2.508595   2.458927   3.897218   1.540161
    12  H    3.368464   2.145688   3.744364   4.286414   3.112973
    13  H    3.035654   2.094757   3.593452   3.833705   3.396494
    14  C    2.845867   2.409962   2.919060   3.545057   2.605560
    15  H    3.972896   3.577832   3.419149   4.940736   2.176852
    16  H    3.650894   3.830001   2.852741   4.391588   2.169023
    17  H    3.865114   3.379946   3.404647   4.941915   2.164684
    18  H    3.118287   3.059512   2.710347   4.075141   2.160591
    19  N    2.836950   2.842130   3.073134   3.132400   3.340067
    20  C    3.912079   2.994850   4.221231   4.587745   3.728299
    21  O    2.763482   3.324999   2.612276   2.937562   3.150372
    22  O    4.677977   3.638252   4.844978   5.491057   4.023328
    23  O    4.425009   3.503608   5.022887   4.838406   4.838911
    24  C    5.688745   4.598094   6.330663   6.114512   6.015710
    25  H    6.172962   5.157874   6.943099   6.428933   6.811905
    26  H    6.386507   5.340101   6.849202   6.892204   6.354323
    27  H    5.740832   4.489267   6.442934   6.237502   6.060532
                    6          7          8          9         10
     6  H    0.000000
     7  C    2.215181   0.000000
     8  H    4.241190   3.970472   0.000000
     9  C    3.787211   2.983343   3.231719   0.000000
    10  H    4.816294   3.471233   2.450581   2.175320   0.000000
    11  C    3.502333   1.537452   3.373595   2.546436   2.172881
    12  H    2.536265   1.091054   4.822389   3.074413   4.026004
    13  H    2.534281   1.096576   4.586921   4.062761   4.256614
    14  C    2.843282   2.910527   3.732340   1.492221   3.480463
    15  H    4.338104   3.153157   4.172510   1.088215   2.551866
    16  H    4.605548   4.023136   3.233897   1.090654   2.363339
    17  H    4.281952   2.171560   4.260177   2.766882   2.483836
    18  H    4.036475   2.174944   3.435558   3.498682   2.497909
    19  N    3.052820   3.847902   3.618852   2.467895   4.154178
    20  C    3.057260   3.177163   5.130041   2.569478   4.607119
    21  O    3.763865   4.342578   2.799880   2.612200   3.747980
    22  O    3.797000   3.297660   5.802964   2.917255   4.784386
    23  O    3.141696   4.028078   5.878113   3.750440   5.779490
    24  C    4.106059   4.864560   7.238100   4.914696   6.938952
    25  H    4.495283   5.633566   7.797805   5.743370   7.769110
    26  H    4.999328   5.455814   7.732408   5.084983   7.174385
    27  H    3.967719   4.514791   7.429951   5.148706   7.007645
                   11         12         13         14         15
    11  C    0.000000
    12  H    2.188593   0.000000
    13  H    2.180533   1.739932   0.000000
    14  C    3.234033   2.834983   3.955425   0.000000
    15  H    2.638457   2.955938   4.197083   2.125319   0.000000
    16  H    3.451821   4.160689   5.086881   2.095354   1.782406
    17  H    1.090146   2.348367   2.757573   3.629865   2.412376
    18  H    1.090658   3.007496   2.341784   4.210403   3.654406
    19  N    4.226695   3.961455   4.786836   1.366230   3.330159
    20  C    3.869792   2.596269   4.103147   1.472652   2.615213
    21  O    4.367865   4.691443   5.262290   2.191128   3.646568
    22  O    3.862613   2.432401   4.154157   2.373615   2.482469
    23  O    4.987519   3.480916   4.790727   2.374120   3.944040
    24  C    5.930072   4.089447   5.475627   3.677975   4.866833
    25  H    6.786588   4.954326   6.172720   4.388023   5.818915
    26  H    6.334583   4.597144   6.150851   4.025761   4.870525
    27  H    5.695736   3.643084   4.960611   4.031144   4.996774
                   16         17         18         19         20
    16  H    0.000000
    17  H    3.659324   0.000000
    18  H    4.282476   1.754826   0.000000
    19  N    2.584851   4.810192   5.056621   0.000000
    20  C    3.269373   4.011082   4.911347   2.423452   0.000000
    21  O    2.351176   5.037104   5.041857   1.251918   3.527539
    22  O    3.707311   3.680148   4.923676   3.546162   1.213452
    23  O    4.311729   5.249356   5.960869   2.665647   1.355433
    24  C    5.525608   6.027079   6.904126   4.089627   2.349142
    25  H    6.283135   6.983281   7.719741   4.505789   3.231134
    26  H    5.597344   6.273909   7.366701   4.536075   2.651915
    27  H    5.921005   5.736937   6.609173   4.649720   2.655516
                   21         22         23         24         25
    21  O    0.000000
    22  O    4.537830   0.000000
    23  O    3.914911   2.247789   0.000000
    24  C    5.336510   2.616240   1.429503   0.000000
    25  H    5.742099   3.676662   2.014033   1.088139   0.000000
    26  H    5.734444   2.618249   2.085673   1.090675   1.789641
    27  H    5.879074   2.607718   2.087132   1.090320   1.788241
                   26         27
    26  H    0.000000
    27  H    1.769737   0.000000
 Symmetry turned off by external request.
 Stoichiometry    C10H13NO3
 Framework group  C1[X(C10H13NO3)]
 Deg. of freedom    75
 Full point group                 C1      NOp   1
 Rotational constants (GHZ):           1.1624931           0.6043495           0.5199079
 Standard basis: def2TZVP (5D, 7F)
 The following finite field(s) will be applied:
 An electric field of             -0.0038 -0.0064  0.0010
   512 basis functions,   818 primitive gaussians,   582 cartesian basis functions
    52 alpha electrons       52 beta electrons
       nuclear repulsion energy       959.8843447573 Hartrees.
 NAtoms=   27 NActive=   27 NUniq=   27 SFac= 1.00D+00 NAtFMM=   60 NAOKFM=F Big=F
 Integral buffers will be    131072 words long.
 Raffenetti 2 integral format.
 Two-electron integral symmetry is turned off.
 One-electron integrals computed using PRISM.
   1 Symmetry operations used in ECPInt.
 ECPInt:  NShTT=   21321 NPrTT=   64608 LenC2=   20334 LenP2D=   46800.
 LDataN:  DoStor=T MaxTD1= 6 Len=  172
 NBasis=   512 RedAO= T EigKep=  2.01D-05  NBF=   512
 NBsUse=   512 1.00D-06 EigRej= -1.00D+00 NBFU=   512
 The nuclear repulsion energy is now       960.9075526672 hartrees.
 Initial guess from the checkpoint file:  "checkpoint.chk"
 B after Tr=    -0.000000    0.000000   -0.000000
         Rot=    1.000000   -0.000000    0.000000    0.000000 Ang=   0.00 deg.
 Requested convergence on RMS density matrix=1.00D-08 within 128 cycles.
 Requested convergence on MAX density matrix=1.00D-06.
 Requested convergence on             energy=1.00D-06.
 No special actions if energy rises.
 SCF Done:  E(RB3LYP) =  -669.450732552     A.U. after   12 cycles
            NFock= 12  Conv=0.92D-08     -V/T= 2.0049
 DoSCS=F DFT=T ScalE2(SS,OS)=  1.000000  1.000000
 Range of M.O.s used for correlation:     1   512
 NBasis=   512 NAE=    52 NBE=    52 NFC=     0 NFV=     0
 NROrb=    512 NOA=    52 NOB=    52 NVA=   460 NVB=   460

 **** Warning!!: The largest alpha MO coefficient is  0.29951802D+02

   1 Symmetry operations used in ECPInt.
 ECPInt:  NShTT=   21321 NPrTT=   64608 LenC2=   20334 LenP2D=   46800.
 LDataN:  DoStor=T MaxTD1= 7 Len=  274
 Number of processors reduced to  10 by ecpmxn.
 Symmetrizing basis deriv contribution to polar:
 IMax=3 JMax=2 DiffMx= 0.00D+00
 G2DrvN: will do    28 centers at a time, making    1 passes.
 Calling FoFCou, ICntrl=  3107 FMM=F I1Cent=   0 AccDes= 0.00D+00.
 End of G2Drv F.D. properties file   721 does not exist.
 End of G2Drv F.D. properties file   722 does not exist.
 End of G2Drv F.D. properties file   788 does not exist.
          IDoAtm=111111111111111111111111111
          Differentiating once with respect to nuclear coordinates.
 CalDSu exits because no D1Ps are significant.
          There are    84 degrees of freedom in the 1st order CPHF.  IDoFFX=6 NUNeed=     0.
     78 vectors produced by pass  0 Test12= 2.85D-14 1.19D-09 XBig12= 1.79D-01 1.65D-01.
 AX will form    78 AO Fock derivatives at one time.
     78 vectors produced by pass  1 Test12= 2.85D-14 1.19D-09 XBig12= 5.46D-02 7.70D-02.
     78 vectors produced by pass  2 Test12= 2.85D-14 1.19D-09 XBig12= 6.25D-04 3.01D-03.
     78 vectors produced by pass  3 Test12= 2.85D-14 1.19D-09 XBig12= 3.02D-06 1.80D-04.
     78 vectors produced by pass  4 Test12= 2.85D-14 1.19D-09 XBig12= 8.04D-09 1.02D-05.
     76 vectors produced by pass  5 Test12= 2.85D-14 1.19D-09 XBig12= 1.33D-11 3.43D-07.
     27 vectors produced by pass  6 Test12= 2.85D-14 1.19D-09 XBig12= 2.01D-14 1.23D-08.
 InvSVY:  IOpt=1 It=  1 EMax= 7.77D-16
 Solved reduced A of dimension   493 with    84 vectors.
 End of Minotr F.D. properties file   721 does not exist.
 End of Minotr F.D. properties file   722 does not exist.
 End of Minotr F.D. properties file   788 does not exist.
   1 Symmetry operations used in ECPInt.
 ECPInt:  NShTT=   21321 NPrTT=   64608 LenC2=   20334 LenP2D=   46800.
 LDataN:  DoStor=T MaxTD1= 8 Len=  415
 Calling FoFJK, ICntrl=    100147 FMM=F ISym2X=0 I1Cent= 0 IOpClX= 0 NMat=1 NMatS=1 NMatT=0.
 -------------------------------------------------------------------
 Center     Atomic                   Forces (Hartrees/Bohr)
 Number     Number              X              Y              Z
 -------------------------------------------------------------------
      1        6          -0.000631963    0.001897117    0.000850455
      2        6           0.000037574    0.001396945   -0.000640932
      3        6           0.000717786   -0.001920520    0.000205729
      4        1           0.000000237    0.000110482   -0.000047337
      5        6           0.000335149    0.000159589   -0.000063086
      6        1          -0.000125885   -0.000063454    0.000019792
      7        6           0.000104625   -0.000405126   -0.000238919
      8        1           0.000046887    0.000236862   -0.000032771
      9        6           0.000025547    0.000074264    0.000001725
     10        1          -0.000140988    0.000024102    0.000093778
     11        6          -0.000094164    0.000337920   -0.000133290
     12        1          -0.000065805    0.000175696    0.000123169
     13        1          -0.000054774   -0.000029734   -0.000058964
     14        6          -0.000296825   -0.001324389    0.000020443
     15        1           0.000078981    0.000158704   -0.000187146
     16        1           0.000072867   -0.000004980    0.000040102
     17        1          -0.000099182    0.000106337   -0.000199074
     18        1           0.000148173   -0.000139279    0.000183398
     19        7           0.000389132   -0.000174145    0.002327913
     20        6           0.003074349    0.002353243   -0.002008964
     21        8          -0.000256556   -0.000395283   -0.001624776
     22        8          -0.001211536   -0.001196879    0.000270595
     23        8          -0.002579322   -0.002060108    0.001842071
     24        6           0.000664156    0.000927989   -0.001166507
     25        1          -0.000435012   -0.000172661    0.000049410
     26        1           0.000215653    0.000002513    0.000220320
     27        1           0.000080897   -0.000075205    0.000152866
 -------------------------------------------------------------------
 Cartesian Forces:  Max     0.003074349 RMS     0.000873845
 -----------------------------------------------------------------------------------------------
                       Internal Coordinate Forces (Hartree/Bohr or radian)
  Cent   Atom   N1       Length/X         N2         Alpha/Y        N3         Beta/Z          J
 -----------------------------------------------------------------------------------------------
      1  C 
      2  C        1  -0.000796(     1)
      3  C        1   0.000660(     2)      2   0.000689(    27)
      4  H        1   0.000002(     3)      2   0.000110(    28)      3   0.000188(    52)     0
      5  C        3  -0.000154(     4)      1   0.001571(    29)      2   0.003595(    53)     0
      6  H        2   0.000132(     5)      1  -0.000103(    30)      3  -0.000274(    54)     0
      7  C        2  -0.000243(     6)      1  -0.000299(    31)      6  -0.000309(    55)     0
      8  H        3   0.000018(     7)      1   0.000113(    32)      5   0.000413(    56)     0
      9  C        5   0.001618(     8)      3   0.002027(    33)      1   0.003649(    57)     0
     10  H        5  -0.000163(     9)      3  -0.000000(    34)      9   0.000101(    58)     0
     11  C        5   0.000118(    10)      3  -0.000343(    35)      9  -0.000742(    59)     0
     12  H        7   0.000016(    11)      2   0.000244(    36)      1  -0.000408(    60)     0
     13  H        7  -0.000014(    12)      2  -0.000170(    37)     12  -0.000042(    61)     0
     14  C        9   0.001191(    13)      5   0.004726(    38)      3   0.000903(    62)     0
     15  H        9  -0.000064(    14)      5  -0.000424(    39)     14  -0.000276(    63)     0
     16  H        9   0.000002(    15)      5   0.000066(    40)     14   0.000152(    64)     0
     17  H       11  -0.000193(    16)      5   0.000030(    41)      3   0.000021(    65)     0
     18  H       11  -0.000218(    17)      5   0.000181(    42)     17  -0.000275(    66)     0
     19  N       14  -0.000209(    18)      9   0.003342(    43)      5   0.001164(    67)     0
     20  C       14  -0.000575(    19)      9   0.001344(    44)     19  -0.000793(    68)     0
     21  O       19   0.001476(    20)     14   0.001953(    45)      9   0.000080(    69)     0
     22  O       20  -0.000999(    21)     14   0.003119(    46)      9  -0.000662(    70)     0
     23  O       20   0.002671(    22)     14   0.002748(    47)     22   0.000009(    71)     0
     24  C       23  -0.000902(    23)     20  -0.001635(    48)     14   0.000549(    72)     0
     25  H       24   0.000464(    24)     23  -0.000004(    49)     20  -0.000043(    73)     0
     26  H       24   0.000241(    25)     23   0.000238(    50)     25   0.000295(    74)     0
     27  H       24   0.000011(    26)     23   0.000334(    51)     25  -0.000184(    75)     0
 -----------------------------------------------------------------------------------------------
 Internal  Forces:  Max     0.004725677 RMS     0.001238998

 GradGradGradGradGradGradGradGradGradGradGradGradGradGradGradGradGradGrad
 Berny optimization.
 Search for a saddle point.
 Step number   1 out of a maximum of   85
 All quantities printed in internal units (Hartrees-Bohrs-Radians)
 Swapping is turned off.
 Second derivative matrix not updated -- analytic derivatives used.
 ITU=  0
     Eigenvalues ---   -0.07682   0.00804   0.01743   0.02478   0.02842
     Eigenvalues ---    0.03537   0.03810   0.04815   0.05753   0.06404
     Eigenvalues ---    0.07273   0.08051   0.08209   0.10816   0.11426
     Eigenvalues ---    0.11807   0.13293   0.14935   0.15469   0.15522
     Eigenvalues ---    0.16303   0.16780   0.17764   0.18152   0.19096
     Eigenvalues ---    0.19948   0.20898   0.21313   0.21814   0.22250
     Eigenvalues ---    0.22743   0.23213   0.24087   0.24547   0.26401
     Eigenvalues ---    0.26876   0.28225   0.29267   0.30196   0.30611
     Eigenvalues ---    0.30963   0.31373   0.32225   0.32740   0.33244
     Eigenvalues ---    0.33449   0.33803   0.33928   0.34109   0.34252
     Eigenvalues ---    0.34941   0.35134   0.35185   0.35547   0.35567
     Eigenvalues ---    0.36051   0.36780   0.37760   0.39819   0.40586
     Eigenvalues ---    0.43435   0.45511   0.46415   0.53061   0.62560
     Eigenvalues ---    0.70920   0.75205   0.81866   0.86545   0.88959
     Eigenvalues ---    1.05424   1.58994   2.08984   5.79692  16.73380
 Eigenvectors required to have negative eigenvalues:
                          D19       D9        D20       D12       D7
   1                    0.42523  -0.39067  -0.38929  -0.35627   0.34505
                          R19       R2        D14       A7        R3
   1                    0.19343   0.18784  -0.15124  -0.14524  -0.14316
 RFO step:  Lambda0=3.331507529D-05 Lambda=-3.06197606D-04.
 Linear search not attempted -- option 19 set.
 Variable       Old X    -DE/DX   Delta X   Delta X   Delta X     New X
                                 (Linear)    (Quad)   (Total)
    R2        2.64269  -0.00080   0.00000  -0.00081  -0.00081   2.64188
    R3        2.58457   0.00066   0.00000  -0.00072  -0.00072   2.58385
    R4        2.04371   0.00000   0.00000  -0.00026  -0.00026   2.04345
    R5        2.80120  -0.00015   0.00000  -0.00323  -0.00323   2.79796
    R6        2.04899   0.00013   0.00000   0.00019   0.00019   2.04918
    R7        2.83230  -0.00024   0.00000  -0.00305  -0.00305   2.82925
    R8        2.04345   0.00002   0.00000   0.00059   0.00059   2.04405
    R9        3.00024   0.00162   0.00000   0.00466   0.00466   3.00490
   R10        2.05779  -0.00016   0.00000  -0.00044  -0.00044   2.05735
   R11        2.91048   0.00012   0.00000  -0.00060  -0.00060   2.90988
   R12        2.06179   0.00002   0.00000   0.00016   0.00016   2.06195
   R13        2.07223  -0.00001   0.00000   0.00049   0.00049   2.07272
   R14        2.81989   0.00119   0.00000   0.00085   0.00085   2.82074
   R15        2.05643  -0.00006   0.00000   0.00019   0.00019   2.05662
   R16        2.06104   0.00000   0.00000  -0.00037  -0.00037   2.06067
   R17        2.06008  -0.00019   0.00000  -0.00048  -0.00048   2.05960
   R18        2.06104  -0.00022   0.00000  -0.00074  -0.00074   2.06030
   R19        2.58180  -0.00021   0.00000   0.00091   0.00091   2.58271
   R20        2.78291  -0.00057   0.00000  -0.00414  -0.00414   2.77877
   R21        2.36578   0.00148   0.00000   0.00024   0.00024   2.36602
   R22        2.29309  -0.00100   0.00000  -0.00151  -0.00151   2.29158
   R23        2.56140   0.00267   0.00000   0.01108   0.01108   2.57248
   R24        2.70137  -0.00090   0.00000  -0.00357  -0.00357   2.69780
   R25        2.05629   0.00046   0.00000   0.00163   0.00163   2.05791
   R26        2.06108   0.00024   0.00000   0.00104   0.00104   2.06212
   R27        2.06041   0.00001   0.00000   0.00016   0.00016   2.06057
    A3        2.03897   0.00069   0.00000   0.00234   0.00234   2.04131
    A4        2.11095   0.00011   0.00000   0.00096   0.00096   2.11191
    A5        2.04965   0.00157   0.00000   0.00131   0.00131   2.05097
    A6        2.07677  -0.00010   0.00000  -0.00016  -0.00016   2.07661
    A7        2.10333  -0.00030   0.00000   0.00288   0.00288   2.10621
    A8        2.11813   0.00011   0.00000  -0.00157  -0.00157   2.11656
    A9        1.92106   0.00203   0.00000  -0.00361  -0.00361   1.91745
   A10        1.94296  -0.00000   0.00000   0.00084   0.00084   1.94380
   A11        1.90018  -0.00034   0.00000   0.00164   0.00164   1.90182
   A12        1.93573   0.00024   0.00000   0.00079   0.00079   1.93651
   A13        1.86054  -0.00017   0.00000  -0.00312  -0.00312   1.85742
   A14        2.01625   0.00473   0.00000   0.00504   0.00504   2.02129
   A15        1.87464  -0.00042   0.00000  -0.00690  -0.00690   1.86774
   A16        1.86206   0.00007   0.00000   0.00038   0.00038   1.86244
   A17        1.91253   0.00003   0.00000  -0.00054  -0.00054   1.91199
   A18        1.90643   0.00018   0.00000  -0.00121  -0.00121   1.90521
   A19        2.08268   0.00334   0.00000   0.00751   0.00751   2.09019
   A20        2.09683   0.00134   0.00000  -0.00041  -0.00041   2.09642
   A21        1.98194   0.00195   0.00000   0.00586   0.00586   1.98780
   A22        2.16230   0.00312   0.00000   0.00590   0.00590   2.16819
   A23        1.99154   0.00275   0.00000   0.00189   0.00189   1.99343
   A24        2.00715  -0.00163   0.00000  -0.00602  -0.00602   2.00113
   A25        1.84046  -0.00000   0.00000   0.00059   0.00059   1.84105
   A26        1.93714   0.00024   0.00000   0.00242   0.00242   1.93956
   A27        1.93963   0.00033   0.00000   0.00241   0.00241   1.94204
    D4        2.90938   0.00019   0.00000   0.02651   0.02651   2.93588
    D5       -0.02035   0.00359   0.00000   0.03314   0.03314   0.01280
    D6       -2.81253  -0.00027   0.00000  -0.01359  -0.01359  -2.82611
    D7       -2.77300  -0.00031   0.00000  -0.01052  -0.01052  -2.78352
    D8        3.07303   0.00041   0.00000  -0.02061  -0.02061   3.05242
    D9        1.25440   0.00365   0.00000  -0.00993  -0.00993   1.24447
   D10        2.07327   0.00010   0.00000  -0.00494  -0.00494   2.06834
   D11       -2.08409  -0.00074   0.00000  -0.00523  -0.00523  -2.08932
   D12       -2.60096  -0.00041   0.00000  -0.01130  -0.01130  -2.61227
   D13       -1.99336  -0.00004   0.00000   0.00415   0.00415  -1.98921
   D14       -0.75356   0.00090   0.00000  -0.02656  -0.02656  -0.78012
   D15       -2.14744  -0.00028   0.00000   0.00272   0.00272  -2.14472
   D16        2.08220   0.00015   0.00000   0.00606   0.00606   2.08826
   D17       -3.13204   0.00002   0.00000  -0.01329  -0.01329  -3.14533
   D18        2.04392  -0.00027   0.00000  -0.00337  -0.00337   2.04055
   D19        1.44972   0.00116   0.00000   0.03111   0.03111   1.48083
   D20        2.77060  -0.00079   0.00000   0.00264   0.00264   2.77324
   D21       -0.18894   0.00008   0.00000   0.00649   0.00649  -0.18245
   D22        0.14862  -0.00066   0.00000  -0.02801  -0.02801   0.12062
   D23        3.12303   0.00001   0.00000  -0.00036  -0.00036   3.12267
   D24        3.13794   0.00055   0.00000   0.01278   0.01278   3.15072
   D25       -3.14000  -0.00004   0.00000  -0.00998  -0.00998  -3.14998
   D26        2.08776   0.00030   0.00000   0.00108   0.00108   2.08884
   D27       -2.08696  -0.00018   0.00000   0.00038   0.00038  -2.08658
         Item               Value     Threshold  Converged?
 Maximum Force            0.004726     0.000450     NO 
 RMS     Force            0.001239     0.000300     NO 
 Maximum Displacement     0.033144     0.001800     NO 
 RMS     Displacement     0.009182     0.001200     NO 
 Predicted change in Energy=-1.373358D-04
 GradGradGradGradGradGradGradGradGradGradGradGradGradGradGradGradGradGrad

 ---------------------------------------------------------------------------------------------------
                            Z-MATRIX (ANGSTROMS AND DEGREES)
   CD    Cent   Atom    N1       Length/X        N2       Alpha/Y        N3        Beta/Z          J
 ---------------------------------------------------------------------------------------------------
      1      1  C 
      2      2  C        1   1.398022(     1)
      3      3  C        1   1.367313(     2)      2  116.958(    27)
      4      4  H        1   1.081346(     3)      2  121.004(    28)      3  168.214(    52)      0
      5      5  C        3   1.480619(     4)      1  117.512(    29)      2    0.733(    53)      0
      6      6  H        2   1.084377(     5)      1  118.981(    30)      3 -161.924(    54)      0
      7      7  C        2   1.497176(     6)      1  120.677(    31)      6 -159.484(    55)      0
      8      8  H        3   1.081662(     7)      1  121.270(    32)      5  174.891(    56)      0
      9      9  C        5   1.590122(     8)      3  109.862(    33)      1   71.303(    57)      0
     10     10  H        5   1.088701(     9)      3  111.371(    34)      9  118.507(    58)      0
     11     11  C        5   1.539842(    10)      3  108.966(    35)      9 -119.709(    59)      0
     12     12  H        7   1.091138(    11)      2  110.954(    36)      1 -149.672(    60)      0
     13     13  H        7   1.096838(    12)      2  106.423(    37)     12 -113.974(    61)      0
     14     14  C        9   1.492671(    13)      5  115.811(    38)      3  -44.698(    62)      0
     15     15  H        9   1.088317(    14)      5  107.014(    39)     14 -122.883(    63)      0
     16     16  H        9   1.090458(    15)      5  106.710(    40)     14  119.648(    64)      0
     17     17  H       11   1.089891(    16)      5  109.549(    41)      3 -180.214(    65)      0
     18     18  H       11   1.090265(    17)      5  109.161(    42)     17  116.915(    66)      0
     19     19  N       14   1.366711(    18)      9  119.759(    43)      5   84.845(    67)      0
     20     20  C       14   1.470461(    19)      9  120.116(    44)     19  158.895(    68)      0
     21     21  O       19   1.252044(    20)     14  113.893(    45)      9  -10.453(    69)      0
     22     22  O       20   1.212652(    21)     14  124.228(    46)      9    6.911(    70)      0
     23     23  O       20   1.361296(    22)     14  114.215(    47)     22  178.916(    71)      0
     24     24  C       23   1.427613(    23)     20  114.656(    48)     14  180.523(    72)      0
     25     25  H       24   1.089000(    24)     23  105.484(    49)     20 -180.481(    73)      0
     26     26  H       24   1.091227(    25)     23  111.129(    50)     25  119.682(    74)      0
     27     27  H       24   1.090406(    26)     23  111.271(    51)     25 -119.552(    75)      0
 ---------------------------------------------------------------------------------------------------
                         Z-Matrix orientation:                         
 ---------------------------------------------------------------------
 Center     Atomic      Atomic             Coordinates (Angstroms)
 Number     Number       Type             X           Y           Z
 ---------------------------------------------------------------------
      1          6           0        0.000000    0.000000    0.000000
      2          6           0        0.000000    0.000000    1.398022
      3          6           0        1.218735    0.000000   -0.619862
      4          1           0       -0.907317   -0.189321   -0.556993
      5          6           0        2.423634   -0.016803    0.240469
      6          1           0       -0.901777   -0.294321    1.923424
      7          6           0        1.006445    0.803200    2.161877
      8          1           0        1.301275   -0.070548   -1.696061
      9          6           0        2.576452   -1.442260    0.928369
     10          1           0        3.328064    0.157323   -0.340011
     11          6           0        2.275417    1.060804    1.330382
     12          1           0        1.238974    0.330469    3.117406
     13          1           0        0.516237    1.749771    2.420240
     14          6           0        1.327083   -2.025006    1.500689
     15          1           0        3.328372   -1.340379    1.708542
     16          1           0        2.934685   -2.125517    0.157702
     17          1           0        3.156383    1.054118    1.972034
     18          1           0        2.230889    2.042856    0.858929
     19          7           0        0.475273   -2.727488    0.695184
     20          6           0        1.218955   -2.261684    2.947945
     21          8           0        0.741251   -2.637512   -0.524969
     22          8           0        2.044475   -1.904213    3.761122
     23          8           0        0.082460   -2.909603    3.324385
     24          6           0       -0.037737   -3.133909    4.729134
     25          1           0       -0.989800   -3.645768    4.861410
     26          1           0        0.781524   -3.751819    5.100316
     27          1           0       -0.034792   -2.193775    5.281515
 ---------------------------------------------------------------------
                    Distance matrix (angstroms):
                    1          2          3          4          5
     1  C    0.000000
     2  C    1.398022   0.000000
     3  C    1.367313   2.357365   0.000000
     4  H    1.081346   2.163597   2.135391   0.000000
     5  C    2.435592   2.685929   1.480619   3.429424   0.000000
     6  H    2.144618   1.084377   3.324380   2.482645   3.737340
     7  C    2.516301   1.497176   2.903148   3.469847   2.524408
     8  H    2.138905   3.357326   1.081662   2.487863   2.238912
     9  C    3.095172   2.989782   2.514066   3.989086   1.590122
    10  H    3.349084   3.757860   2.133620   4.255079   1.088701
    11  C    2.841257   2.511454   2.458726   3.905739   1.539842
    12  H    3.370829   2.144889   3.751906   4.286953   3.130621
    13  H    3.030802   2.091203   3.577349   3.827597   3.392690
    14  C    2.848486   2.423292   2.934132   3.549133   2.612175
    15  H    3.974140   3.601541   3.415940   4.939499   2.173854
    16  H    3.626991   3.829959   2.840230   4.361264   2.171335
    17  H    3.868182   3.376893   3.403464   4.945278   2.163818
    18  H    3.144501   3.072580   2.717451   4.103144   2.159129
    19  N    2.854533   2.856406   3.117896   3.149889   3.369079
    20  C    3.910428   3.000554   4.224271   4.593508   3.717683
    21  O    2.789536   3.347210   2.682063   2.951685   3.206933
    22  O    4.685290   3.659255   4.847772   5.504548   4.012615
    23  O    4.418611   3.490482   5.031302   4.841972   4.833211
    24  C    5.673405   4.573742   6.325494   6.113094   5.993564
    25  H    6.156674   5.125074   6.943601   6.427513   6.795146
    26  H    6.379667   5.328593   6.854761   6.895559   6.345470
    27  H    5.719114   4.460424   6.419520   6.234366   6.016246
                    6          7          8          9         10
     6  H    0.000000
     7  C    2.214209   0.000000
     8  H    4.243134   3.966616   0.000000
     9  C    3.795520   3.004755   3.224175   0.000000
    10  H    4.818575   3.473688   2.449218   2.175402   0.000000
    11  C    3.504657   1.538841   3.374651   2.552952   2.171303
    12  H    2.529579   1.091138   4.830545   3.118221   4.043267
    13  H    2.536908   1.096838   4.568783   4.081572   4.249852
    14  C    2.853383   2.922110   3.746970   1.492671   3.486353
    15  H    4.362863   3.192458   4.160879   1.088317   2.537652
    16  H    4.603204   4.038837   3.213621   1.090458   2.369350
    17  H    4.276600   2.172839   4.261598   2.767212   2.485813
    18  H    4.050820   2.175703   3.443636   3.502894   2.489273
    19  N    3.053710   3.859934   3.668741   2.474094   4.187144
    20  C    3.068821   3.171210   5.135625   2.567672   4.594625
    21  O    3.766260   4.373553   2.876523   2.628455   3.812729
    22  O    3.827439   3.311371   5.804784   2.919056   4.766216
    23  O    3.125878   3.998760   5.894966   3.756858   5.776484
    24  C    4.084340   4.814764   7.242946   4.913397   6.917879
    25  H    4.457769   5.573669   7.812275   5.748252   7.756431
    26  H    4.988029   5.425238   7.746783   5.095191   7.166827
    27  H    3.954285   4.449515   7.414832   5.131594   6.959743
                   11         12         13         14         15
    11  C    0.000000
    12  H    2.191132   0.000000
    13  H    2.181096   1.738623   0.000000
    14  C    3.232733   2.858286   3.968878   0.000000
    15  H    2.649037   3.023610   4.238354   2.125341   0.000000
    16  H    3.458677   4.203231   5.097629   2.097165   1.782284
    17  H    1.089891   2.347766   2.766802   3.612411   2.415083
    18  H    1.090265   3.002813   2.337439   4.216186   3.656854
    19  N    4.242069   3.975110   4.798265   1.366711   3.330337
    20  C    3.843377   2.597763   4.106587   1.470461   2.614300
    21  O    4.412882   4.724779   5.288964   2.195826   3.655724
    22  O    3.840984   2.461098   4.181517   2.374615   2.485837
    23  O    4.954718   3.446509   4.766068   2.378543   3.950868
    24  C    5.873484   4.028594   5.430305   3.676310   4.865328
    25  H    6.729161   4.880516   6.110589   4.391954   5.822543
    26  H    6.293286   4.561388   6.125413   4.029495   4.879100
    27  H    5.616120   3.560570   4.903274   4.022168   4.980492
                   16         17         18         19         20
    16  H    0.000000
    17  H    3.667564   0.000000
    18  H    4.285134   1.753038   0.000000
    19  N    2.588429   4.808247   5.085782   0.000000
    20  C    3.278373   3.962395   4.890507   2.417637   0.000000
    21  O    2.353578   5.069124   5.102943   1.252044   3.525703
    22  O    3.718345   3.631653   4.902737   3.541208   1.212652
    23  O    4.333343   5.195088   5.934734   2.664614   1.361296
    24  C    5.545281   5.945046   6.850113   4.086699   2.347911
    25  H    6.311704   6.901323   7.665059   4.510777   3.233517
    26  H    5.631199   6.206701   7.325864   4.533016   2.654157
    27  H    5.922493   5.628950   6.530055   4.645369   2.649914
                   21         22         23         24         25
    21  O    0.000000
    22  O    4.539460   0.000000
    23  O    3.914789   2.247454   0.000000
    24  C    5.334682   2.604766   1.427613   0.000000
    25  H    5.746842   3.667488   2.013486   1.089000   0.000000
    26  H    5.734731   2.608090   2.086133   1.091227   1.790506
    27  H    5.874897   2.592064   2.087227   1.090406   1.787963
                   26         27
    26  H    0.000000
    27  H    1.768249   0.000000
 Symmetry turned off by external request.
 Stoichiometry    C10H13NO3
 Framework group  C1[X(C10H13NO3)]
 Deg. of freedom    75
 Full point group                 C1      NOp   1
 Rotational constants (GHZ):           1.1490976           0.6064134           0.5207612
 Standard basis: def2TZVP (5D, 7F)
 The following finite field(s) will be applied:
 An electric field of             -0.0038 -0.0064  0.0010
   512 basis functions,   818 primitive gaussians,   582 cartesian basis functions
    52 alpha electrons       52 beta electrons
       nuclear repulsion energy       958.8318068113 Hartrees.
 NAtoms=   27 NActive=   27 NUniq=   27 SFac= 1.00D+00 NAtFMM=   60 NAOKFM=F Big=F
 Integral buffers will be    131072 words long.
 Raffenetti 2 integral format.
 Two-electron integral symmetry is turned off.
 One-electron integrals computed using PRISM.
   1 Symmetry operations used in ECPInt.
 ECPInt:  NShTT=   21321 NPrTT=   64608 LenC2=   20341 LenP2D=   46777.
 LDataN:  DoStor=T MaxTD1= 6 Len=  172
 NBasis=   512 RedAO= T EigKep=  2.09D-05  NBF=   512
 NBsUse=   512 1.00D-06 EigRej= -1.00D+00 NBFU=   512
 The nuclear repulsion energy is now       959.8963390767 hartrees.
 Initial guess from the checkpoint file:  "checkpoint.chk"
 B after Tr=    -0.011665    0.004566    0.013447
         Rot=    0.999897    0.001004   -0.006179    0.012908 Ang=   1.64 deg.
 ExpMin= 9.52D-02 ExpMax= 2.70D+04 ExpMxC= 9.22D+02 IAcc=2 IRadAn=         4 AccDes= 0.00D+00
 Harris functional with IExCor=  402 and IRadAn=       4 diagonalized for initial guess.
 HarFok:  IExCor=  402 AccDes= 0.00D+00 IRadAn=         4 IDoV= 1 UseB2=F ITyADJ=14
 ICtDFT=  3500011 ScaDFX=  1.000000  1.000000  1.000000  1.000000
 FoFCou: FMM=F IPFlag=           0 FMFlag=      100000 FMFlg1=           0
         NFxFlg=           0 DoJE=T BraDBF=F KetDBF=T FulRan=T
         wScrn=  0.000000 ICntrl=       500 IOpCl=  0 I1Cent=   200000004 NGrid=           0
         NMat0=    1 NMatS0=      1 NMatT0=    0 NMatD0=    1 NMtDS0=    0 NMtDT0=    0
 Symmetry not used in FoFCou.
 Requested convergence on RMS density matrix=1.00D-08 within 128 cycles.
 Requested convergence on MAX density matrix=1.00D-06.
 Requested convergence on             energy=1.00D-06.
 No special actions if energy rises.
 Integral accuracy reduced to 1.0D-05 until final iterations.
 Initial convergence to 1.0D-05 achieved.  Increase integral accuracy.
 SCF Done:  E(RB3LYP) =  -669.450871311     A.U. after   13 cycles
            NFock= 13  Conv=0.86D-08     -V/T= 2.0049
   1 Symmetry operations used in ECPInt.
 ECPInt:  NShTT=   21321 NPrTT=   64608 LenC2=   20341 LenP2D=   46777.
 LDataN:  DoStor=T MaxTD1= 7 Len=  274
 Calling FoFJK, ICntrl=      2127 FMM=F ISym2X=0 I1Cent= 0 IOpClX= 0 NMat=1 NMatS=1 NMatT=0.
 -------------------------------------------------------------------
 Center     Atomic                   Forces (Hartrees/Bohr)
 Number     Number              X              Y              Z
 -------------------------------------------------------------------
      1        6          -0.000171140    0.003441523    0.000145300
      2        6           0.000068493   -0.000380019   -0.000086310
      3        6           0.000115601   -0.003040800   -0.000084989
      4        1          -0.000014563   -0.000017156    0.000011353
      5        6           0.000002452    0.000037434    0.000031426
      6        1          -0.000004677   -0.000007969    0.000001163
      7        6           0.000325312    0.000035373   -0.000213132
      8        1          -0.000007339    0.000046416   -0.000002247
      9        6          -0.000004710    0.000025755    0.000027284
     10        1           0.000000258    0.000001427   -0.000000594
     11        6          -0.000297390   -0.000052750    0.000191305
     12        1           0.000039697    0.000003915   -0.000021997
     13        1           0.000025960    0.000011924   -0.000024415
     14        6          -0.000051360   -0.000075829   -0.000136367
     15        1           0.000004270    0.000005367    0.000003058
     16        1           0.000007117   -0.000006657    0.000002437
     17        1          -0.000038040   -0.000014334    0.000038822
     18        1          -0.000023805    0.000000961    0.000023217
     19        7           0.000053538   -0.000007346    0.000168429
     20        6           0.000051004    0.000074178    0.000008464
     21        8          -0.000022683   -0.000022580   -0.000099428
     22        8           0.000010874   -0.000009426   -0.000011236
     23        8          -0.000058496   -0.000043795    0.000020076
     24        6          -0.000007532   -0.000002761    0.000006614
     25        1          -0.000001852   -0.000000389    0.000000283
     26        1          -0.000000054   -0.000001452    0.000000828
     27        1          -0.000000934   -0.000001009    0.000000658
 -------------------------------------------------------------------
 Cartesian Forces:  Max     0.003441523 RMS     0.000517552
 -----------------------------------------------------------------------------------------------
                       Internal Coordinate Forces (Hartree/Bohr or radian)
  Cent   Atom   N1       Length/X         N2         Alpha/Y        N3         Beta/Z          J
 -----------------------------------------------------------------------------------------------
      1  C 
      2  C        1  -0.000345(     1)
      3  C        1  -0.000325(     2)      2  -0.002090(    27)
      4  H        1   0.000009(     3)      2  -0.000039(    28)      3  -0.000024(    52)     0
      5  C        3  -0.000146(     4)      1  -0.001974(    29)      2   0.000506(    53)     0
      6  H        2   0.000007(     5)      1  -0.000005(    30)      3  -0.000505(    54)     0
      7  C        2   0.000158(     6)      1  -0.001198(    31)      6  -0.000516(    55)     0
      8  H        3  -0.000001(     7)      1  -0.000012(    32)      5   0.000082(    56)     0
      9  C        5   0.000053(     8)      3   0.000153(    33)      1   0.001144(    57)     0
     10  H        5   0.000001(     9)      3  -0.000001(    34)      9   0.000002(    58)     0
     11  C        5   0.000168(    10)      3  -0.000656(    35)      9   0.001036(    59)     0
     12  H        7  -0.000012(    11)      2   0.000049(    36)      1   0.000003(    60)     0
     13  H        7  -0.000007(    12)      2   0.000029(    37)     12  -0.000068(    61)     0
     14  C        9   0.000042(    13)      5   0.000222(    38)      3   0.000074(    62)     0
     15  H        9   0.000006(    14)      5  -0.000010(    39)     14   0.000000(    63)     0
     16  H        9   0.000005(    15)      5   0.000014(    40)     14   0.000012(    64)     0
     17  H       11  -0.000008(    16)      5   0.000052(    41)      3  -0.000053(    65)     0
     18  H       11  -0.000008(    17)      5   0.000048(    42)     17   0.000043(    66)     0
     19  N       14  -0.000045(    18)      9   0.000224(    43)      5   0.000160(    67)     0
     20  C       14   0.000023(    19)      9  -0.000015(    44)     19   0.000021(    68)     0
     21  O       19   0.000090(    20)     14   0.000123(    45)      9  -0.000005(    69)     0
     22  O       20  -0.000003(    21)     14  -0.000024(    46)      9  -0.000010(    70)     0
     23  O       20   0.000089(    22)     14  -0.000018(    47)     22   0.000018(    71)     0
     24  C       23   0.000010(    23)     20   0.000031(    48)     14   0.000001(    72)     0
     25  H       24   0.000002(    24)     23   0.000000(    49)     20  -0.000002(    73)     0
     26  H       24   0.000001(    25)     23   0.000001(    50)     25  -0.000002(    74)     0
     27  H       24  -0.000001(    26)     23   0.000002(    51)     25   0.000002(    75)     0
 -----------------------------------------------------------------------------------------------
 Internal  Forces:  Max     0.002090357 RMS     0.000429162

 GradGradGradGradGradGradGradGradGradGradGradGradGradGradGradGradGradGrad
 Berny optimization.
 Search for a saddle point.
 Step number   2 out of a maximum of   85
 All quantities printed in internal units (Hartrees-Bohrs-Radians)
 Swapping is turned off.
 Update second derivatives using D2CorN and points    1    2
 ITU=  0  0
     Eigenvalues ---   -0.07659   0.00804   0.01740   0.02467   0.02851
     Eigenvalues ---    0.03539   0.03809   0.04811   0.05748   0.06404
     Eigenvalues ---    0.07273   0.08051   0.08210   0.10812   0.11426
     Eigenvalues ---    0.11807   0.13290   0.14932   0.15469   0.15521
     Eigenvalues ---    0.16303   0.16779   0.17764   0.18152   0.19095
     Eigenvalues ---    0.19947   0.20890   0.21313   0.21817   0.22251
     Eigenvalues ---    0.22743   0.23213   0.24086   0.24548   0.26400
     Eigenvalues ---    0.26867   0.28225   0.29265   0.30195   0.30609
     Eigenvalues ---    0.30962   0.31373   0.32225   0.32738   0.33244
     Eigenvalues ---    0.33449   0.33803   0.33928   0.34109   0.34252
     Eigenvalues ---    0.34941   0.35134   0.35185   0.35547   0.35567
     Eigenvalues ---    0.36051   0.36778   0.37759   0.39815   0.40586
     Eigenvalues ---    0.43435   0.45510   0.46416   0.53060   0.62560
     Eigenvalues ---    0.70920   0.75193   0.81864   0.86543   0.88958
     Eigenvalues ---    1.05428   1.58979   2.08984   5.79694  16.73381
 Eigenvectors required to have negative eigenvalues:
                          D19       D9        D20       D12       D7
   1                    0.42488  -0.39036  -0.39009  -0.35607   0.34582
                          R19       R2        D14       A7        R3
   1                    0.19316   0.18774  -0.15013  -0.14576  -0.14282
 RFO step:  Lambda0=6.508030531D-08 Lambda=-1.39741487D-06.
 Linear search not attempted -- option 19 set.
 Variable       Old X    -DE/DX   Delta X   Delta X   Delta X     New X
                                 (Linear)    (Quad)   (Total)
    R2        2.64188  -0.00034   0.00000  -0.00010  -0.00010   2.64178
    R3        2.58385  -0.00033   0.00000   0.00017   0.00017   2.58402
    R4        2.04345   0.00001   0.00000   0.00003   0.00003   2.04347
    R5        2.79796  -0.00015   0.00000  -0.00005  -0.00005   2.79791
    R6        2.04918   0.00001   0.00000  -0.00000  -0.00000   2.04917
    R7        2.82925   0.00016   0.00000   0.00003   0.00003   2.82929
    R8        2.04405  -0.00000   0.00000   0.00001   0.00001   2.04405
    R9        3.00490   0.00005   0.00000   0.00010   0.00010   3.00500
   R10        2.05735   0.00000   0.00000  -0.00001  -0.00001   2.05734
   R11        2.90988   0.00017   0.00000   0.00003   0.00003   2.90991
   R12        2.06195  -0.00001   0.00000  -0.00004  -0.00004   2.06192
   R13        2.07272  -0.00001   0.00000   0.00001   0.00001   2.07273
   R14        2.82074   0.00004   0.00000   0.00008   0.00008   2.82082
   R15        2.05662   0.00001   0.00000   0.00002   0.00002   2.05665
   R16        2.06067   0.00000   0.00000   0.00000   0.00000   2.06067
   R17        2.05960  -0.00001   0.00000   0.00000   0.00000   2.05960
   R18        2.06030  -0.00001   0.00000  -0.00001  -0.00001   2.06029
   R19        2.58271  -0.00004   0.00000  -0.00013  -0.00013   2.58258
   R20        2.77877   0.00002   0.00000   0.00017   0.00017   2.77893
   R21        2.36602   0.00009   0.00000   0.00008   0.00008   2.36610
   R22        2.29158  -0.00000   0.00000  -0.00004  -0.00004   2.29154
   R23        2.57248   0.00009   0.00000   0.00022   0.00022   2.57270
   R24        2.69780   0.00001   0.00000   0.00002   0.00002   2.69782
   R25        2.05791   0.00000   0.00000   0.00000   0.00000   2.05791
   R26        2.06212   0.00000   0.00000   0.00001   0.00001   2.06213
   R27        2.06057  -0.00000   0.00000  -0.00000  -0.00000   2.06056
    A3        2.04131  -0.00209   0.00000   0.00000   0.00000   2.04131
    A4        2.11191  -0.00004   0.00000  -0.00012  -0.00012   2.11180
    A5        2.05097  -0.00197   0.00000  -0.00017  -0.00017   2.05080
    A6        2.07661  -0.00000   0.00000   0.00008   0.00008   2.07669
    A7        2.10621  -0.00120   0.00000  -0.00014  -0.00014   2.10607
    A8        2.11656  -0.00001   0.00000  -0.00000  -0.00000   2.11656
    A9        1.91745   0.00015   0.00000  -0.00028  -0.00028   1.91717
   A10        1.94380  -0.00000   0.00000   0.00007   0.00007   1.94387
   A11        1.90182  -0.00066   0.00000   0.00010   0.00010   1.90192
   A12        1.93651   0.00005   0.00000   0.00002   0.00002   1.93653
   A13        1.85742   0.00003   0.00000  -0.00007  -0.00007   1.85736
   A14        2.02129   0.00022   0.00000   0.00015   0.00015   2.02144
   A15        1.86774  -0.00001   0.00000  -0.00020  -0.00020   1.86754
   A16        1.86244   0.00001   0.00000   0.00014   0.00014   1.86258
   A17        1.91199   0.00005   0.00000  -0.00003  -0.00003   1.91195
   A18        1.90521   0.00005   0.00000   0.00002   0.00002   1.90524
   A19        2.09019   0.00022   0.00000   0.00056   0.00056   2.09075
   A20        2.09642  -0.00002   0.00000  -0.00037  -0.00037   2.09605
   A21        1.98780   0.00012   0.00000   0.00026   0.00026   1.98806
   A22        2.16819  -0.00002   0.00000   0.00002   0.00002   2.16821
   A23        1.99343  -0.00002   0.00000  -0.00002  -0.00002   1.99341
   A24        2.00113   0.00003   0.00000   0.00006   0.00006   2.00119
   A25        1.84105   0.00000   0.00000  -0.00001  -0.00001   1.84105
   A26        1.93956   0.00000   0.00000   0.00000   0.00000   1.93956
   A27        1.94204   0.00000   0.00000   0.00003   0.00003   1.94207
    D4        2.93588  -0.00002   0.00000   0.00026   0.00026   2.93614
    D5        0.01280   0.00051   0.00000   0.00039   0.00039   0.01319
    D6       -2.82611  -0.00051   0.00000  -0.00025  -0.00025  -2.82637
    D7       -2.78352  -0.00052   0.00000  -0.00013  -0.00013  -2.78364
    D8        3.05242   0.00008   0.00000   0.00043   0.00043   3.05285
    D9        1.24447   0.00114   0.00000   0.00002   0.00002   1.24449
   D10        2.06834   0.00000   0.00000  -0.00015  -0.00015   2.06818
   D11       -2.08932   0.00104   0.00000   0.00003   0.00003  -2.08929
   D12       -2.61227   0.00000   0.00000  -0.00019  -0.00019  -2.61245
   D13       -1.98921  -0.00007   0.00000   0.00002   0.00002  -1.98920
   D14       -0.78012   0.00007   0.00000  -0.00109  -0.00109  -0.78121
   D15       -2.14472   0.00000   0.00000   0.00023   0.00023  -2.14449
   D16        2.08826   0.00001   0.00000   0.00032   0.00032   2.08857
   D17       -3.14533  -0.00005   0.00000  -0.00067  -0.00067  -3.14600
   D18        2.04055   0.00004   0.00000   0.00006   0.00006   2.04061
   D19        1.48083   0.00016   0.00000   0.00158   0.00158   1.48241
   D20        2.77324   0.00002   0.00000  -0.00028  -0.00028   2.77296
   D21       -0.18245  -0.00001   0.00000  -0.00014  -0.00014  -0.18258
   D22        0.12062  -0.00001   0.00000  -0.00098  -0.00098   0.11964
   D23        3.12267   0.00002   0.00000   0.00016   0.00016   3.12283
   D24        3.15072   0.00000   0.00000  -0.00009  -0.00009   3.15064
   D25       -3.14998  -0.00000   0.00000  -0.00034  -0.00034  -3.15032
   D26        2.08884  -0.00000   0.00000  -0.00002  -0.00002   2.08882
   D27       -2.08658   0.00000   0.00000   0.00001   0.00001  -2.08656
         Item               Value     Threshold  Converged?
 Maximum Force            0.002090     0.000450     NO 
 RMS     Force            0.000429     0.000300     NO 
 Maximum Displacement     0.001584     0.001800     YES
 RMS     Displacement     0.000305     0.001200     YES
 Predicted change in Energy=-6.661673D-07
 GradGradGradGradGradGradGradGradGradGradGradGradGradGradGradGradGradGrad

 ---------------------------------------------------------------------------------------------------
                            Z-MATRIX (ANGSTROMS AND DEGREES)
   CD    Cent   Atom    N1       Length/X        N2       Alpha/Y        N3        Beta/Z          J
 ---------------------------------------------------------------------------------------------------
      1      1  C 
      2      2  C        1   1.397970(     1)
      3      3  C        1   1.367404(     2)      2  116.959(    27)
      4      4  H        1   1.081359(     3)      2  120.997(    28)      3  168.228(    52)      0
      5      5  C        3   1.480590(     4)      1  117.502(    29)      2    0.756(    53)      0
      6      6  H        2   1.084376(     5)      1  118.986(    30)      3 -161.939(    54)      0
      7      7  C        2   1.497194(     6)      1  120.669(    31)      6 -159.491(    55)      0
      8      8  H        3   1.081667(     7)      1  121.270(    32)      5  174.915(    56)      0
      9      9  C        5   1.590177(     8)      3  109.846(    33)      1   71.304(    57)      0
     10     10  H        5   1.088698(     9)      3  111.376(    34)      9  118.498(    58)      0
     11     11  C        5   1.539856(    10)      3  108.972(    35)      9 -119.708(    59)      0
     12     12  H        7   1.091119(    11)      2  110.955(    36)      1 -149.682(    60)      0
     13     13  H        7   1.096843(    12)      2  106.419(    37)     12 -113.973(    61)      0
     14     14  C        9   1.492714(    13)      5  115.820(    38)      3  -44.760(    62)      0
     15     15  H        9   1.088330(    14)      5  107.002(    39)     14 -122.870(    63)      0
     16     16  H        9   1.090459(    15)      5  106.718(    40)     14  119.666(    64)      0
     17     17  H       11   1.089892(    16)      5  109.547(    41)      3 -180.253(    65)      0
     18     18  H       11   1.090259(    17)      5  109.162(    42)     17  116.918(    66)      0
     19     19  N       14   1.366641(    18)      9  119.791(    43)      5   84.936(    67)      0
     20     20  C       14   1.470549(    19)      9  120.095(    44)     19  158.879(    68)      0
     21     21  O       19   1.252088(    20)     14  113.908(    45)      9  -10.461(    69)      0
     22     22  O       20   1.212633(    21)     14  124.229(    46)      9    6.855(    70)      0
     23     23  O       20   1.361414(    22)     14  114.214(    47)     22  178.925(    71)      0
     24     24  C       23   1.427624(    23)     20  114.660(    48)     14  180.518(    72)      0
     25     25  H       24   1.089002(    24)     23  105.484(    49)     20 -180.500(    73)      0
     26     26  H       24   1.091232(    25)     23  111.129(    50)     25  119.681(    74)      0
     27     27  H       24   1.090404(    26)     23  111.272(    51)     25 -119.551(    75)      0
 ---------------------------------------------------------------------------------------------------
                         Z-Matrix orientation:                         
 ---------------------------------------------------------------------
 Center     Atomic      Atomic             Coordinates (Angstroms)
 Number     Number       Type             X           Y           Z
 ---------------------------------------------------------------------
      1          6           0        0.000000    0.000000    0.000000
      2          6           0        0.000000    0.000000    1.397970
      3          6           0        1.218813    0.000000   -0.619908
      4          1           0       -0.907441   -0.189104   -0.556892
      5          6           0        2.423542   -0.017321    0.240601
      6          1           0       -0.901810   -0.294080    1.923448
      7          6           0        1.006844    0.802895    2.161655
      8          1           0        1.301321   -0.069787   -1.696163
      9          6           0        2.575640   -1.443247    0.927816
     10          1           0        3.328154    0.156708   -0.339618
     11          6           0        2.275445    1.059844    1.330985
     12          1           0        1.239168    0.330281    3.117270
     13          1           0        0.517015    1.749728    2.419803
     14          6           0        1.326261   -2.025358    1.500876
     15          1           0        3.328070   -1.342066    1.707607
     16          1           0        2.933045   -2.126530    0.156786
     17          1           0        3.156059    1.052204    1.973110
     18          1           0        2.231791    2.042167    0.860027
     19          7           0        0.473811   -2.728525    0.696767
     20          6           0        1.218981   -2.260900    2.948468
     21          8           0        0.738693   -2.640084   -0.523782
     22          8           0        2.045515   -1.903815    3.760756
     23          8           0        0.082023   -2.907483    3.326229
     24          6           0       -0.037392   -3.130813    4.731211
     25          1           0       -0.990046   -3.641308    4.864513
     26          1           0        0.781310   -3.749633    5.102122
     27          1           0       -0.032767   -2.190380    5.283067
 ---------------------------------------------------------------------
                    Distance matrix (angstroms):
                    1          2          3          4          5
     1  C    0.000000
     2  C    1.397970   0.000000
     3  C    1.367404   2.357401   0.000000
     4  H    1.081359   2.163491   2.135577   0.000000
     5  C    2.435518   2.685770   1.480590   3.429424   0.000000
     6  H    2.144620   1.084376   3.324483   2.482566   3.737183
     7  C    2.516173   1.497194   2.902872   3.469733   2.523933
     8  H    2.138989   3.357375   1.081667   2.488133   2.239015
     9  C    3.094790   2.989636   2.513840   3.988619   1.590177
    10  H    3.349106   3.757709   2.133645   4.255239   1.088698
    11  C    2.841204   2.511057   2.458806   3.905728   1.539856
    12  H    3.370756   2.144905   3.751800   4.286859   3.130303
    13  H    3.030561   2.091171   3.576858   3.827383   3.392083
    14  C    2.848450   2.423145   2.934509   3.549036   2.612380
    15  H    3.974055   3.601814   3.415762   4.939314   2.173758
    16  H    3.626218   3.829545   2.839713   4.360308   2.171492
    17  H    3.867946   3.376186   3.403498   4.945077   2.163805
    18  H    3.144994   3.072575   2.717863   4.103780   2.159154
    19  N    2.855667   2.856752   3.119858   3.150901   3.370485
    20  C    3.910377   3.000271   4.224332   4.593643   3.717144
    21  O    2.791068   3.347961   2.685107   2.952652   3.209655
    22  O    4.685288   3.659426   4.847490   5.504749   4.011640
    23  O    4.418595   3.489752   5.031675   4.842236   4.832893
    24  C    5.673424   4.573170   6.325703   6.113482   5.992963
    25  H    6.156525   5.124084   6.943850   6.427765   6.794588
    26  H    6.379800   5.328315   6.855129   6.895918   6.345192
    27  H    5.719234   4.460137   6.419450   6.235005   6.015156
                    6          7          8          9         10
     6  H    0.000000
     7  C    2.214285   0.000000
     8  H    4.243309   3.966239   0.000000
     9  C    3.795329   3.004768   3.224213   0.000000
    10  H    4.818430   3.473097   2.449402   2.175436   0.000000
    11  C    3.504150   1.537980   3.374702   2.553063   2.171352
    12  H    2.529590   1.091119   4.830431   3.118536   4.042780
    13  H    2.537043   1.096843   4.568035   4.081550   4.249073
    14  C    2.853102   2.921929   3.747791   1.492714   3.486603
    15  H    4.363112   3.192978   4.160776   1.088330   2.537213
    16  H    4.602724   4.038722   3.213430   1.090459   2.369747
    17  H    4.275658   2.171826   4.261747   2.767093   2.486009
    18  H    4.050724   2.174977   3.443869   3.502990   2.489200
    19  N    3.053457   3.860175   3.671482   2.474471   4.188787
    20  C    3.068680   3.170318   5.136181   2.567511   4.594012
    21  O    3.766154   4.374653   2.880530   2.629435   3.815923
    22  O    3.828011   3.310928   5.804778   2.918681   4.764869
    23  O    3.124995   3.997303   5.896069   3.756926   5.776250
    24  C    4.083847   4.813222   7.243836   4.913412   6.917225
    25  H    4.456633   5.571710   7.813360   5.748318   7.755949
    26  H    4.987756   5.424272   7.747797   5.095475   7.166481
    27  H    3.954521   4.447888   7.415279   5.131296   6.958390
                   11         12         13         14         15
    11  C    0.000000
    12  H    2.190193   0.000000
    13  H    2.180261   1.738619   0.000000
    14  C    3.232380   2.858208   3.968700   0.000000
    15  H    2.649347   3.024468   4.238920   2.125291   0.000000
    16  H    3.458925   4.203523   5.097432   2.097275   1.782266
    17  H    1.089892   2.346219   2.765977   3.611447   2.415080
    18  H    1.090259   3.001833   2.336424   4.216091   3.656945
    19  N    4.242625   3.975036   4.798487   1.366641   3.330294
    20  C    3.841836   2.596752   4.105774   1.470549   2.613857
    21  O    4.414888   4.725549   5.290018   2.195988   3.656340
    22  O    3.839261   2.460783   4.181249   2.374691   2.485142
    23  O    4.952957   3.444672   4.764498   2.378695   3.950606
    24  C    5.871316   4.026609   5.428596   3.676499   4.864990
    25  H    6.726818   4.878091   6.108282   4.392110   5.822258
    26  H    6.291660   4.560151   6.124350   4.029773   4.879047
    27  H    5.613444   3.558403   4.901530   4.022333   4.979837
                   16         17         18         19         20
    16  H    0.000000
    17  H    3.667849   0.000000
    18  H    4.285363   1.753069   0.000000
    19  N    2.588785   4.808058   5.086910   0.000000
    20  C    3.278652   3.959830   4.889146   2.417460   0.000000
    21  O    2.354165   5.070614   5.105658   1.252088   3.525760
    22  O    3.718320   3.628641   4.900989   3.540964   1.212633
    23  O    4.334003   5.192278   5.933185   2.664507   1.361414
    24  C    5.545939   5.941623   6.847990   4.086551   2.348062
    25  H    6.312518   6.897786   7.662769   4.510671   3.233660
    26  H    5.632119   6.203853   7.324221   4.532590   2.654451
    27  H    5.922742   5.624836   6.527324   4.645468   2.649943
                   21         22         23         24         25
    21  O    0.000000
    22  O    4.539509   0.000000
    23  O    3.914755   2.247546   0.000000
    24  C    5.334611   2.604958   1.427624   0.000000
    25  H    5.746713   3.667668   2.013491   1.089002   0.000000
    26  H    5.734432   2.608548   2.086148   1.091232   1.790502
    27  H    5.875107   2.592066   2.087253   1.090404   1.787949
                   26         27
    26  H    0.000000
    27  H    1.768257   0.000000
 Symmetry turned off by external request.
 Stoichiometry    C10H13NO3
 Framework group  C1[X(C10H13NO3)]
 Deg. of freedom    75
 Full point group                 C1      NOp   1
 Rotational constants (GHZ):           1.1486771           0.6065422           0.5207866
 Standard basis: def2TZVP (5D, 7F)
 The following finite field(s) will be applied:
 An electric field of             -0.0038 -0.0064  0.0010
   512 basis functions,   818 primitive gaussians,   582 cartesian basis functions
    52 alpha electrons       52 beta electrons
       nuclear repulsion energy       958.8185496524 Hartrees.
 NAtoms=   27 NActive=   27 NUniq=   27 SFac= 1.00D+00 NAtFMM=   60 NAOKFM=F Big=F
 Integral buffers will be    131072 words long.
 Raffenetti 2 integral format.
 Two-electron integral symmetry is turned off.
 One-electron integrals computed using PRISM.
   1 Symmetry operations used in ECPInt.
 ECPInt:  NShTT=   21321 NPrTT=   64608 LenC2=   20341 LenP2D=   46780.
 LDataN:  DoStor=T MaxTD1= 6 Len=  172
 NBasis=   512 RedAO= T EigKep=  2.09D-05  NBF=   512
 NBsUse=   512 1.00D-06 EigRej= -1.00D+00 NBFU=   512
 The nuclear repulsion energy is now       959.8833742813 hartrees.
 Initial guess from the checkpoint file:  "checkpoint.chk"
 B after Tr=    -0.000707   -0.000444    0.000744
[...]
 .02088021,-0.07763023,0.03356232,-0.00130994,-0.00079836,0.00063815,-0
 .00041807,-0.00031314,-0.00110782,-0.00022071,-0.00021968,-0.00005072,
 0.00004635,0.00019391,-0.00027054,0.01642205,-0.00039241,-0.01591808,0
 .19306775,0.32000047,-0.00244694,-0.00288849,0.00366768,-0.00442073,0.
 02304206,-0.00061865,0.00407456,0.00105960,0.00224696,-0.00016816,-0.0
 0053371,0.00035457,0.00159519,-0.00332324,0.00241354,0.00100025,-0.002
 55828,0.00082484,0.00079089,-0.00488905,-0.00350709,-0.00020844,0.0001
 4525,-0.00056990,0.01120673,0.00806131,-0.01153633,-0.00022499,-0.0005
 6590,-0.00006283,-0.00177286,0.00167175,-0.00062640,0.00030541,-0.0039
 5817,0.00181044,-0.00231749,-0.00097501,-0.00023820,0.02963322,0.02166
 664,-0.18686382,-0.00287950,-0.00089372,-0.00040585,-0.00039199,-0.000
 01318,0.00057307,-0.00073518,-0.00085689,-0.00028733,0.00022438,0.0004
 7318,-0.00019099,-0.01021030,-0.01245528,-0.05517169,0.18235019,0.0392
 9376,0.75869408,-0.00029150,0.00112992,-0.00357972,0.00224864,-0.00260
 640,0.00313070,-0.00211031,0.00544947,0.00211835,0.00023512,0.00119166
 ,0.00008005,0.00152976,0.00116392,-0.00092201,0.00023551,-0.00019922,0
 .00003144,-0.00102653,0.00038307,-0.00007392,-0.00013400,-0.00092865,-
 0.00001417,-0.00615162,0.00524138,-0.00626524,-0.00000277,0.00040866,-
 0.00034574,-0.00042462,-0.00000973,-0.00026358,-0.00012387,-0.00024739
 ,0.00003141,0.00018954,0.00007074,0.00004802,0.02007859,0.00887916,-0.
 02746170,0.00153948,-0.00130678,-0.00202913,0.00092676,-0.00177966,-0.
 00313364,0.00015876,-0.00024158,-0.00003283,0.00003284,-0.00010380,0.0
 0007639,-0.09925820,-0.03275723,0.11593236,0.00060151,-0.01065861,-0.0
 0791961,0.08110278,0.01145470,-0.00737651,-0.01664875,0.00246092,-0.00
 462001,0.00979158,-0.00346374,0.01162645,0.00102732,-0.00103688,0.0007
 2751,0.00027162,-0.00327145,0.00154524,-0.00295337,0.00042347,-0.00091
 487,0.00013377,0.00002641,-0.00089656,-0.00151165,0.00005042,-0.001502
 23,-0.00021142,0.00183988,-0.00831172,0.00168640,-0.00011883,-0.000448
 30,0.00023129,0.00046393,-0.00017378,-0.00005629,-0.00060943,-0.000102
 82,0.00014544,-0.00084068,0.00014539,-0.00011244,0.01384764,0.02033241
 ,-0.02797330,0.00112067,-0.00024243,-0.00136529,0.00083358,0.00001809,
 -0.00051270,-0.00011418,-0.00019416,0.00029848,-0.00002584,-0.00028840
 ,-0.00010720,-0.03896648,-0.05469392,0.03757055,-0.00827435,0.00172303
 ,-0.00180915,0.02284118,0.04378970,-0.00991296,0.00119504,0.01492081,-
 0.01056958,0.02259149,-0.01505529,0.00425880,-0.00750038,-0.00533040,0
 .00172833,-0.00207196,0.00091196,0.00195020,-0.00413836,0.00515925,0.0
 0016066,-0.00134372,-0.00026576,0.00298569,-0.00589745,-0.00131716,-0.
 00011638,0.00154585,0.00084811,0.00896948,0.00851950,-0.00190551,-0.00
 024195,-0.00046994,0.00007761,-0.00056423,0.00086029,-0.00147673,0.000
 28561,0.00097363,0.00054881,-0.00154475,-0.00086867,-0.00004153,-0.030
 47536,-0.05839948,-0.13264688,0.00197724,0.00130115,-0.00017775,-0.003
 84960,-0.00055175,0.00158353,-0.00010664,-0.00006107,-0.00039122,-0.00
 006226,0.00057483,0.00042835,0.11374542,0.04624134,-0.43983860,-0.0100
 7103,-0.00913856,0.02403552,-0.07095469,0.00341634,0.56390150,0.001209
 90,0.00060764,-0.00119610,0.00084240,-0.00474369,0.00077942,-0.0014149
 8,-0.00044434,-0.00019853,0.00007651,0.00022321,-0.00001050,0.00047410
 ,0.00106489,-0.00035575,0.00023157,0.00006706,0.00005995,0.00006950,0.
 00055518,0.00002897,0.00014972,-0.00006572,0.00015996,-0.00367058,-0.0
 0165470,0.00205368,0.00003960,0.00016714,-0.00004499,-0.00013465,-0.00
 023256,-0.00019725,-0.00105349,0.00093807,-0.00009953,0.00048541,-0.00
 008579,0.00036453,-0.00194567,-0.00499290,-0.02639098,0.00264292,0.000
 81774,0.00083210,0.00065248,0.00000983,0.00016460,0.00042642,0.0003787
 3,0.00006681,0.00012455,-0.00014137,0.00009117,0.00487522,0.00170030,0
 .00250720,-0.34637964,-0.11546713,-0.25396090,0.00073187,0.00066542,-0
 .00346188,0.42020953,-0.00062406,0.00106326,0.00125295,-0.00151186,-0.
 00432532,-0.00256762,0.00038344,-0.00075564,-0.00076162,0.00005145,0.0
 0002001,0.00004075,-0.00046096,0.00090839,-0.00076174,0.00018179,0.000
 02205,-0.00005618,0.00101095,0.00019110,0.00096252,0.00009247,-0.00004
 312,0.00011846,-0.00219119,-0.00093198,0.00161980,0.00002496,0.0001087
 4,0.00009491,0.00098302,-0.00042237,-0.00007434,-0.00036625,0.00074424
 ,0.00082382,0.00082958,-0.00008582,0.00040744,-0.00474750,0.01847517,-
 0.01010701,0.00130416,-0.00030603,0.00048330,0.00040599,-0.00002885,0.
 00043359,0.00033821,0.00039975,-0.00005108,-0.00010572,-0.00019194,0.0
 0026102,-0.00275712,0.00384458,0.00395173,-0.11645151,-0.12943823,-0.1
 0106606,0.00299469,0.00001857,-0.00095393,0.17223222,0.11289965,0.0014
 3775,0.00114551,-0.00186743,0.00122185,-0.00839911,0.00042278,-0.00197
 654,-0.00046579,-0.00111157,0.00008024,0.00022261,-0.00005857,-0.00087
 931,0.00025246,-0.00056875,-0.00033131,0.00094565,-0.00027188,-0.00068
 992,0.00158315,0.00024004,0.00006737,-0.00002472,0.00024299,-0.0023679
 5,-0.00226916,0.00108742,0.00009109,0.00022730,0.00005883,0.00074081,-
 0.00060996,0.00022177,-0.00023111,0.00148514,-0.00052787,0.00089100,0.
 00012654,0.00042653,-0.04274208,-0.01363343,-0.04914315,0.00011679,0.0
 0030776,-0.00200239,-0.00053606,0.00019839,-0.00063838,0.00030483,0.00
 040244,0.00003017,-0.00016374,-0.00011500,0.00016891,0.00606817,0.0092
 8971,0.00250186,-0.25466026,-0.10322723,-0.37336612,0.00032555,-0.0021
 9225,-0.01048240,0.31075741,0.12455102,0.40880954,0.00040895,-0.000363
 87,0.00060514,-0.00236703,0.00373108,0.00072531,0.00000706,0.00009535,
 0.00023214,-0.00002099,-0.00003625,0.00022916,0.00065625,-0.00050776,0
 .00090316,0.00096356,-0.00090697,0.00029953,0.00052737,-0.00098519,-0.
 00129336,0.00007688,0.00004525,-0.00007907,0.00205112,0.00097506,-0.00
 065941,-0.00001474,-0.00012418,0.00004184,-0.00025098,0.00033303,-0.00
 034286,-0.00092247,0.00066061,0.00028950,-0.00016661,-0.00045095,0.000
 29378,-0.00514413,-0.01078588,0.02086629,0.00081690,0.00002497,-0.0008
 9829,0.00021949,-0.00011029,0.00053109,0.00015638,0.00018497,-0.000196
 99,0.00012435,-0.00000510,0.00010406,-0.00167322,-0.00370470,-0.008242
 09,-0.16253514,-0.05499349,0.00940678,-0.00060194,0.00060372,0.0061648
 0,-0.07788238,-0.05322318,-0.02070569,0.31925679,-0.00014526,-0.000567
 44,-0.00003947,-0.00059125,0.00135323,0.00085520,0.00010055,0.00019825
 ,0.00022063,-0.00000151,0.00003878,0.00008344,0.00034916,-0.00006321,0
 .00021837,-0.00018184,0.00005278,-0.00009137,0.00014588,0.00008910,0.0
 0014840,0.00000751,0.00011434,-0.00003111,0.00058729,0.00245026,0.0009
 2281,-0.00000099,-0.00007689,-0.00001904,-0.00006800,0.00014852,-0.000
 12995,-0.00019748,0.00061619,-0.00032583,-0.00003765,-0.00005996,-0.00
 008362,-0.01107149,-0.00071148,0.01356285,0.00044643,0.00016290,-0.000
 61647,-0.00049810,-0.00039275,0.00052798,0.00004877,0.00004431,-0.0000
 3740,0.00007414,-0.00005464,0.00005164,-0.00338370,0.00064941,-0.00440
 728,-0.05649911,-0.09597851,0.01313938,0.00086756,-0.00050256,0.004258
 80,-0.05473539,0.00071058,-0.01119059,0.13614924,0.15252018,0.00013298
 ,0.00085306,-0.00012017,0.00144556,-0.00397260,-0.00096548,0.00014196,
 -0.00021572,-0.00039341,-0.00000724,-0.00005138,-0.00010327,0.00046536
 ,0.00042465,-0.00133895,-0.00017510,0.00019239,-0.00012978,-0.00036832
 ,0.00112151,0.00076263,0.00000518,-0.00012664,0.00010752,-0.00378703,-
 0.00153764,-0.00475972,-0.00004926,0.00059494,-0.00015275,0.00021059,-
 0.00039252,0.00012793,0.00019882,-0.00004286,-0.00027320,0.00038247,0.
 00036551,-0.00005529,0.03643815,0.02452337,-0.02037614,-0.00017795,0.0
 0009957,0.00050404,0.00110508,0.00064609,-0.00089602,0.00007732,0.0000
 2954,0.00010368,-0.00009226,0.00000909,0.00002311,0.00253280,0.0021015
 9,-0.00170710,0.03307612,0.02672595,-0.12760098,0.00158677,0.00083819,
 -0.00402509,-0.02256761,-0.01291114,0.02428368,-0.04217523,-0.06180657
 ,0.41908726,0.00019306,0.00010756,-0.00019295,0.00023964,-0.00045917,0
 .00008483,-0.00024765,0.00005485,-0.00007068,0.00000540,0.00000522,-0.
 00002570,-0.00030158,-0.00002531,0.00014021,0.00010324,-0.00008166,-0.
 00000506,-0.00007601,0.00009850,0.00002431,0.00000581,-0.00001716,0.00
 001455,0.00047973,-0.00036258,0.00092493,0.00002957,-0.00008527,0.0000
 3701,0.00002562,0.00000905,0.00005023,0.00005194,-0.00012478,-0.000012
 04,0.00004041,0.00005013,-0.00000268,-0.00365759,-0.00351902,-0.001409
 88,-0.00000818,-0.00004656,0.00001591,-0.00012064,-0.00006027,-0.00000
 513,-0.00000594,-0.00000818,0.00001540,-0.00000228,-0.00000410,-0.0000
 2549,-0.00034184,0.00025031,-0.00086782,-0.00916142,-0.01044328,0.0454
 2977,0.00055713,0.00014876,-0.00057927,-0.00036385,0.00270523,0.002114
 94,-0.08060378,-0.00691826,-0.01361269,0.60048544,0.00010236,0.0000590
 2,0.00008150,-0.00026172,0.00017205,-0.00015549,0.00001277,-0.00008082
 ,-0.00019703,-0.00000075,-0.00001956,-0.00003009,-0.00013033,0.0001540
 5,-0.00010268,0.00014789,-0.00002853,0.00012443,0.00012858,-0.00022675
 ,0.00013314,0.00001702,0.00001365,0.00000809,-0.00013642,0.00063967,0.
 00068183,0.00003278,-0.00001735,-0.00004127,-0.00003519,-0.00000277,0.
 00000047,-0.00013622,-0.00008851,-0.00004792,-0.00002141,-0.00001732,-
 0.00001670,-0.00433919,0.00185775,-0.00052328,-0.00002080,0.00005233,0
 .00001266,-0.00023287,-0.00012163,0.00008076,0.00000463,-0.00001042,0.
 00003413,0.00002682,-0.00000140,-0.00004938,0.00037357,-0.00043274,-0.
 00011002,-0.00954462,-0.00768819,0.02668907,0.00036408,0.00038909,-0.0
 0049997,0.00494909,-0.00353233,0.00143153,-0.00959934,-0.06958225,0.00
 714243,0.01324005,0.57904247,-0.00049394,-0.00042412,0.00035994,-0.000
 30083,0.00175405,-0.00011999,0.00031758,0.00002697,0.00016113,0.000003
 07,0.00002423,0.00002873,0.00023664,-0.00012315,0.00028869,-0.00025091
 ,0.00025597,-0.00004507,0.00024852,-0.00048776,-0.00017067,-0.00001488
 ,0.00008461,-0.00004160,0.00000547,0.00022199,0.00043672,-0.00004444,-
 0.00011178,0.00002933,-0.00011339,0.00011317,-0.00017174,-0.00017278,0
 .00042015,0.00013734,-0.00013039,-0.00020037,0.00011609,-0.00138377,-0
 .00180384,0.00504272,0.00020499,0.00001667,-0.00023743,-0.00007667,-0.
 00007628,0.00025519,-0.00002309,0.00003190,-0.00005228,0.00003732,-0.0
 0001307,0.00004301,0.00013245,-0.00057590,-0.00096061,0.03678930,0.022
 75602,-0.02855540,-0.00078966,-0.00015103,0.00149996,-0.01431850,-0.00
 755817,-0.00507999,0.01007372,0.02043355,-0.19597718,0.00996928,0.0220
 5586,0.44160856,-0.00005911,-0.00003673,0.00006319,-0.00005844,0.00019
 171,-0.00002768,0.00004434,-0.00000431,0.00002707,0.00000160,0.0000019
 7,0.00001143,0.00002950,-0.00000524,0.00004224,-0.00001282,-0.00000754
 ,-0.00000642,0.00001610,-0.00002543,-0.00004277,0.00000016,0.00000543,
 -0.00000478,0.00008203,0.00006395,0.00006460,-0.00000332,-0.00001513,0
 .00000658,-0.00000366,0.00001306,-0.00001952,-0.00001997,0.00005498,0.
 00001951,-0.00001067,-0.00002128,0.00000989,-0.00002898,-0.00018568,0.
 00027286,0.00005821,0.00001198,-0.00003415,-0.00000927,-0.00002521,0.0
 0003775,0.00000374,0.00000927,-0.00001000,0.00000310,-0.00000461,0.000
 01184,-0.00001548,-0.00011498,-0.00031669,0.00079947,0.00041965,-0.001
 79961,-0.00009388,0.00001574,0.00043099,0.00026918,-0.00044637,0.00187
 039,-0.00134951,-0.00148503,0.00421248,-0.25509692,-0.10787573,0.02282
 767,0.27255530,-0.00000569,-0.00001902,0.00002361,-0.00010121,0.000132
 28,0.00001101,0.00002039,0.00001520,0.00002018,-0.00000120,0.00000403,
 0.00001700,-0.00000548,0.00001067,0.00002843,-0.00000884,-0.00002412,0
 .00000256,-0.00000034,0.00000219,-0.00007510,0.00000228,-0.00000023,-0
 .00000316,0.00006540,0.00001735,0.00009569,0.00000116,-0.00001432,0.00
 000582,0.00000872,0.00000220,0.00000366,0.00000831,0.00003749,-0.00000
 188,-0.00001245,-0.00001965,0.00000339,-0.00031618,-0.00004884,0.00015
 888,0.00004225,0.00000387,-0.00002210,-0.00001324,-0.00001820,0.000036
 28,0.00000615,0.00000595,-0.00000856,-0.00000158,-0.00000356,0.0000099
 0,0.00001292,-0.00010571,-0.00016929,0.00080205,0.00070398,-0.00012830
 ,-0.00004176,-0.00000831,0.00023545,-0.00029445,0.00052816,0.00078045,
 -0.00548682,-0.00286773,0.00464754,-0.10635940,-0.10966944,0.01093376,
 0.12067219,0.11134760,0.00000774,0.00003087,-0.00000192,0.00005788,-0.
 00020696,-0.00002585,0.00001452,-0.00000805,-0.00001060,-0.00000133,0.
 00000076,-0.00000834,0.00006370,0.00001584,-0.00009099,-0.00000251,0.0
 0002605,-0.00000095,-0.00002660,0.00005918,0.00004102,-0.00000015,-0.0
 0000567,0.00000421,-0.00022540,-0.00007125,-0.00042615,-0.00000748,0.0
 0004536,-0.00001098,0.00001189,-0.00002266,0.00000340,0.00001444,-0.00
 000879,-0.00002193,0.00001855,0.00001948,-0.00000606,0.00170410,0.0009
 6298,-0.00003729,-0.00001589,0.00000719,0.00003091,0.00008445,0.000053
 96,-0.00005377,0.00000298,0.00000095,0.00000363,-0.00000635,0.00000165
 ,0.00000357,-0.00002489,0.00007735,0.00038996,-0.00494719,-0.00171189,
 -0.00713885,0.00000776,-0.00003319,-0.00023550,0.00007029,-0.00027887,
 0.00320784,0.03844039,0.02240201,-0.02018920,0.01304477,0.00607201,-0.
 04501188,-0.02801708,-0.01665041,0.06336328,0.00002878,0.00000337,-0.0
 0000870,-0.00006626,0.00000925,0.00004722,-0.00001135,-0.00001367,0.00
 000447,-0.00000165,-0.00000503,0.00000307,0.00001272,-0.00001065,-0.00
 000753,0.00001621,-0.00001331,0.00000764,0.00001499,0.00000690,0.00003
 086,0.00000072,0.00000121,-0.00000166,-0.00002496,0.00001428,-0.000017
 10,0.00000301,0.00000848,-0.00000911,-0.00000710,-0.00000220,0.0000063
 1,-0.00000540,-0.00000847,-0.00003337,-0.00001411,0.00000490,-0.000019
 41,-0.00016725,0.00059780,0.00004240,-0.00002211,-0.00000034,0.0000173
 0,0.00000085,0.00000332,-0.00002438,0.00000047,-0.00000935,0.00000469,
 0.00000192,0.00000465,-0.00000640,0.00000669,-0.00000205,0.00010764,0.
 00022951,-0.00156563,0.00130774,0.00007273,-0.00001572,-0.00008730,0.0
 0004944,-0.00036716,0.00061959,0.00833609,-0.00491284,-0.00217546,-0.2
 0244738,0.11556429,-0.06068651,-0.01853294,0.01591506,-0.00690455,0.21
 222563,-0.00006291,-0.00003037,0.00002769,0.00004184,0.00008777,-0.000
 02425,0.00004897,-0.00000189,0.00001024,0.00000110,-0.00000117,0.00000
 144,-0.00001176,-0.00001456,0.00001616,-0.00005077,0.00002214,-0.00003
 403,-0.00004568,0.00000024,-0.00005356,-0.00000634,0.00000599,-0.00000
 243,0.00004816,0.00002288,0.00003610,-0.00000318,-0.00000573,0.0000070
 5,0.00001024,0.00000262,0.00001066,0.00006725,-0.00004345,0.00003792,-
 0.00000206,0.00000322,-0.00000206,-0.00024589,-0.00022458,0.00013735,-
 0.00003158,-0.00000983,0.00001192,-0.00002166,-0.00000188,0.00001757,-
 0.00001159,-0.00000623,-0.00000273,-0.00000907,0.00000299,0.00000652,-
 0.00000831,-0.00001661,-0.00008851,0.00499070,0.00250190,0.00133759,-0
 .00008771,-0.00002832,0.00005634,-0.00126973,0.00002591,-0.00242294,-0
 .00127816,-0.00169983,0.00865940,0.11150173,-0.13445724,0.04330026,-0.
 01202896,0.01054336,-0.00592506,-0.12434517,0.13914119,0.00009321,0.00
 009042,-0.00006900,0.00010259,-0.00037099,-0.00000042,-0.00008811,0.00
 000756,-0.00002536,0.00000129,-0.00000240,-0.00000546,-0.00003563,0.00
 000758,-0.00003739,0.00005522,-0.00007503,-0.00000303,-0.00004101,0.00
 008610,0.00002892,0.00000261,-0.00001782,0.00000980,-0.00008054,-0.000
 18993,-0.00005788,0.00000449,0.00001954,-0.00000002,0.00002681,-0.0000
 2299,0.00002757,0.00002472,-0.00003145,-0.00001325,0.00003489,0.000036
 61,-0.00000500,0.00040231,-0.00024358,-0.00081129,-0.00000120,0.000009
 38,0.00003893,0.00004432,0.00002864,-0.00008067,0.00000533,0.00000323,
 0.00000987,-0.00000641,-0.00000145,-0.00000433,-0.00000904,0.00016448,
 0.00017771,-0.00801307,-0.00307444,0.00125832,0.00023724,0.00000714,-0
 .00049087,0.00243633,0.00096076,0.00145042,-0.02059922,0.02545041,-0.0
 2978254,-0.05475333,0.04094063,-0.06966250,0.00160769,-0.00304911,0.00
 254331,0.06746248,-0.05276056,0.08826947,-0.00003351,-0.00003045,-0.00
 003794,0.00011441,-0.00000605,0.00006087,0.00000637,-0.00000532,0.0000
 3440,0.00000099,-0.00000217,-0.00000705,-0.00000766,-0.00001214,0.0000
 0560,-0.00003465,0.00002272,-0.00004142,0.00000215,-0.00002333,0.00004
 620,-0.00000657,0.00000341,-0.00000204,0.00003477,0.00000745,-0.000002
 84,-0.00000199,-0.00000081,-0.00000095,-0.00000839,0.00001382,0.000001
 52,0.00002711,-0.00005092,0.00004117,-0.00000084,0.00001957,-0.0000101
 8,0.00000178,-0.00035581,-0.00003734,-0.00003900,-0.00000718,0.0000285
 2,-0.00000487,0.00000283,-0.00001011,-0.00001613,-0.00000974,0.0000057
 7,0.00000080,0.00000341,-0.00000794,-0.00004272,0.00007162,-0.00004640
 ,0.00269632,0.00191105,0.00213159,-0.00002179,-0.00005884,-0.00005936,
 -0.00071510,-0.00028527,-0.00142382,-0.00006824,0.00195136,0.00317651,
 -0.04978192,-0.00262933,-0.00204624,0.00143223,-0.02490822,-0.01336402
 ,0.00030075,0.02281053,0.01108601,0.04616569,0.00003179,0.00002262,-0.
 00003974,0.00007292,-0.00001637,0.00005784,-0.00000567,0.00001432,0.00
 004007,-0.00000046,-0.00000266,0.00000068,0.00000290,0.00000414,-0.000
 00998,0.00003021,-0.00004139,0.00002221,-0.00001394,0.00000142,-0.0000
 4849,-0.00000093,-0.00001499,-0.00000084,0.00003169,-0.00004141,-0.000
 05304,-0.00000067,0.00000083,0.00000068,-0.00002603,0.00000490,-0.0000
 0986,-0.00004052,-0.00005503,0.00008850,0.00000628,-0.00000968,0.00001
 281,0.00055573,-0.00039398,0.00010298,-0.00000031,-0.00000533,0.000005
 58,0.00002236,0.00001079,0.00000204,-0.00000064,-0.00000240,-0.0000027
 6,0.00000164,0.00000427,-0.00000283,-0.00009143,-0.00001751,-0.0001750
 8,-0.00193980,0.00044416,0.00033483,-0.00001699,-0.00001058,0.00012521
 ,-0.00024875,0.00010148,0.00160054,-0.00024114,0.01340841,0.00208225,0
 .00034358,-0.25640281,-0.11090367,0.00082230,-0.01055519,-0.00485284,-
 0.00086192,-0.01581851,-0.00797273,0.00156779,0.26937049,-0.00003390,0
 .00008170,0.00004006,0.00013716,-0.00042578,-0.00018069,0.00004321,-0.
 00004374,-0.00009437,0.00000319,-0.00000627,-0.00000664,-0.00007402,0.
 00008103,-0.00011492,-0.00005360,0.00000671,-0.00006363,-0.00012718,0.
 00016760,0.00002126,0.00000026,-0.00000255,0.00001606,-0.00020838,-0.0
 0003480,0.00003555,0.00000463,0.00002797,0.00000063,0.00007684,-0.0000
 5310,0.00005295,0.00013469,-0.00001367,-0.00001958,0.00006242,0.000049
 38,-0.00001292,-0.00014719,0.00086062,-0.00051622,0.00000185,0.0000171
 4,0.00003447,-0.00001105,0.00001415,-0.00002057,0.00000420,0.00000589,
 0.00001367,-0.00002342,-0.00000649,0.00001221,0.00002722,-0.00007097,-
 0.00009750,-0.00767083,-0.00518083,0.00086138,0.00017960,0.00021991,-0
 .00023472,0.00243009,0.00118570,0.00196574,0.00598553,-0.02349676,-0.0
 3615358,-0.00030342,-0.10371471,-0.10392106,-0.00123746,0.00309430,0.0
 0367910,0.00032008,0.00764192,0.00723469,0.00047950,0.11959566,0.12746
 863\\0.00009863,-0.00339501,-0.00002028,-0.00009319,0.00042624,0.00000
 712,-0.00000183,0.00295223,0.00001460,-0.00000011,0.00000258,-0.000000
 24,-0.00000171,0.00000929,0.00000338,0.00000008,0.00000014,-0.00000015
 ,-0.00000608,-0.00000084,0.00000527,-0.00000068,-0.00000480,-0.0000004
 9,-0.00000071,-0.00000561,-0.00000665,0.00000013,-0.00000034,0.,0.0000
 0364,0.00000549,-0.00000766,-0.00000051,0.00000098,0.00000011,-0.00000
 072,-0.00000006,0.00000097,0.00000466,0.00000388,0.00001108,-0.0000006
 6,0.00000068,0.,-0.00000038,0.00000046,0.00000002,0.00000087,0.0000002
 2,-0.00000049,-0.00000033,-0.00000012,-0.00000042,-0.00000428,0.000001
 94,-0.00001193,-0.00000046,0.00000116,-0.00000059,0.00000280,0.0000033
 8,0.00000605,0.00000059,-0.00000151,0.00000033,0.00000054,-0.00000094,
 0.,0.00000038,0.00000026,-0.00000061,-0.00000053,0.00000044,0.00000006
 ,-0.00000003,0.,0.00000023,-0.00000012,-0.00000013,0.00000027\\\@


 A MAN SHOULD NEVER BE ASHAMED TO OWN HE HAS BEEN IN THE WRONG
 WHICH IS BUT SAYING IN OTHER WORDS,
 THAT HE IS WISER TODAY THAN HE WAS YESTERDAY.

                          -- JONATHAN SWIFT
 Job cpu time:       0 days  9 hours 17 minutes 24.8 seconds.
 Elapsed time:       0 days  0 hours 46 minutes 28.3 seconds.
 File lengths (MBytes):  RWF=    555 Int=      0 D2E=      0 Chk=     48 Scr=      1
 Normal termination of Gaussian 16 at Fri Jun 10 08:41:21 2022.
