 Entering Gaussian System, Link 0=g16
 Input=ts.gjf
 Output=ts.out
 Initial command:
 /software/gaussian/g16-a03/l1.exe "/local_scratch/11174360/Gau-1047.inp" -scrdir="/local_scratch/11174360/"
 Entering Link 1 = /software/gaussian/g16-a03/l1.exe PID=      1048.
  
 Copyright (c) 1988,1990,1992,1993,1995,1998,2003,2009,2016,
            Gaussian, Inc.  All Rights Reserved.
  
 This is part of the Gaussian(R) 16 program.  It is based on
 the Gaussian(R) 09 system (copyright 2009, Gaussian, Inc.),
 the Gaussian(R) 03 system (copyright 2003, Gaussian, Inc.),
 the Gaussian(R) 98 system (copyright 1998, Gaussian, Inc.),
 the Gaussian(R) 94 system (copyright 1995, Gaussian, Inc.),
 the Gaussian 92(TM) system (copyright 1992, Gaussian, Inc.),
 the Gaussian 90(TM) system (copyright 1990, Gaussian, Inc.),
 the Gaussian 88(TM) system (copyright 1988, Gaussian, Inc.),
 the Gaussian 86(TM) system (copyright 1986, Carnegie Mellon
 University), and the Gaussian 82(TM) system (copyright 1983,
 Carnegie Mellon University). Gaussian is a federally registered
 trademark of Gaussian, Inc.
  
 This software contains proprietary and confidential information,
 including trade secrets, belonging to Gaussian, Inc.
  
 This software is provided under written license and may be
 used, copied, transmitted, or stored only in accord with that
 written license.
  
 The following legend is applicable only to US Government
 contracts under FAR:
  
                    RESTRICTED RIGHTS LEGEND
  
 Use, reproduction and disclosure by the US Government is
 subject to restrictions as set forth in subparagraphs (a)
 and (c) of the Commercial Computer Software - Restricted
 Rights clause in FAR 52.227-19.
  
 Gaussian, Inc.
 340 Quinnipiac St., Bldg. 40, Wallingford CT 06492
  
  
 ---------------------------------------------------------------
 Warning -- This program may not be used in any manner that
 competes with the business of Gaussian, Inc. or will provide
 assistance to any competitor of Gaussian, Inc.  The licensee
 of this program is prohibited from giving any competitor of
 Gaussian, Inc. access to this program.  By using this program,
 the user acknowledges that Gaussian, Inc. is engaged in the
 business of creating and licensing software in the field of
 computational chemistry and represents and warrants to the
 licensee that it is not a competitor of Gaussian, Inc. and that
 it will not use this program in any manner prohibited above.
 ---------------------------------------------------------------
  

 Cite this work as:
 Gaussian 16, Revision A.03,
 M. J. Frisch, G. W. Trucks, H. B. Schlegel, G. E. Scuseria, 
 M. A. Robb, J. R. Cheeseman, G. Scalmani, V. Barone, 
 G. A. Petersson, H. Nakatsuji, X. Li, M. Caricato, A. V. Marenich, 
 J. Bloino, B. G. Janesko, R. Gomperts, B. Mennucci, H. P. Hratchian, 
 J. V. Ortiz, A. F. Izmaylov, J. L. Sonnenberg, D. Williams-Young, 
 F. Ding, F. Lipparini, F. Egidi, J. Goings, B. Peng, A. Petrone, 
 T. Henderson, D. Ranasinghe, V. G. Zakrzewski, J. Gao, N. Rega, 
 G. Zheng, W. Liang, M. Hada, M. Ehara, K. Toyota, R. Fukuda, 
 J. Hasegawa, M. Ishida, T. Nakajima, Y. Honda, O. Kitao, H. Nakai, 
 T. Vreven, K. Throssell, J. A. Montgomery, Jr., J. E. Peralta, 
 F. Ogliaro, M. J. Bearpark, J. J. Heyd, E. N. Brothers, K. N. Kudin, 
 V. N. Staroverov, T. A. Keith, R. Kobayashi, J. Normand, 
 K. Raghavachari, A. P. Rendell, J. C. Burant, S. S. Iyengar, 
 J. Tomasi, M. Cossi, J. M. Millam, M. Klene, C. Adamo, R. Cammi, 
 J. W. Ochterski, R. L. Martin, K. Morokuma, O. Farkas, 
 J. B. Foresman, and D. J. Fox, Gaussian, Inc., Wallingford CT, 2016.
 
 ******************************************
 Gaussian 16:  ES64L-G16RevA.03 25-Dec-2016
                10-Jun-2022 
 ******************************************
 %nprocshared=12
 Will use up to   12 processors via shared memory.
 %chk=checkpoint.chk
 %mem=12GB
 --------------------------------------------------------------------
 # Opt=(TS, CalcFC, noeigentest) B3LYP/Def2TZVP freq=noraman pop=none
 --------------------------------------------------------------------
 1/5=1,10=4,11=1,18=20,26=3,38=1/1,3;
 2/9=110,12=2,17=6,18=5,40=1/2;
 3/5=44,7=101,11=2,25=1,30=1,71=2,74=-5,140=1/1,2,3;
 4//1;
 5/5=2,38=5/2;
 8/6=4,10=90,11=11/1;
 11/6=1,8=1,9=11,15=111,16=1/1,2,10;
 10/6=1,13=1/2;
 7/10=1,18=20,25=1/1,2,3,16;
 1/5=1,10=4,11=1,18=20,26=3/3(2);
 2/9=110/2;
 99//99;
 2/9=110/2;
 3/5=44,7=101,11=2,25=1,30=1,71=1,74=-5/1,2,3;
 4/5=5,16=3,69=1/1;
 5/5=2,38=5/2;
 7//1,2,3,16;
 1/5=1,11=1,18=20,26=3/3(-5);
 2/9=110/2;
 99/9=1/99;
 ------------
 ts_initalOpt
 ------------
 Symbolic Z-matrix:
 Charge =  0 Multiplicity = 1
 6                     0.55613   1.06493   0.0049 
 6                    -0.82209   0.8724   -0.00412 
 6                    -1.05491  -0.50344  -0.01586 
 7                     0.09077  -1.21435  -0.08037 
 6                     1.13906  -0.2082   -0.02102 
 1                     2.14709  -0.49924  -0.27404 
 1                     1.08487   2.00476   0.02358 
 1                    -1.57714   1.64354   0.02465 
 1                    -2.00184  -1.01771   0.05247 
 1                     0.80251  -0.98507   0.95249 
 

 GradGradGradGradGradGradGradGradGradGradGradGradGradGradGradGradGradGrad
 Berny optimization.
 Initialization pass.
                           ----------------------------
                           !    Initial Parameters    !
                           ! (Angstroms and Degrees)  !
 --------------------------                            --------------------------
 ! Name  Definition              Value          Derivative Info.                !
 --------------------------------------------------------------------------------
 ! R1    R(1,2)                  1.3916         calculate D2E/DX2 analytically  !
 ! R2    R(1,5)                  1.4005         calculate D2E/DX2 analytically  !
 ! R3    R(1,7)                  1.0785         calculate D2E/DX2 analytically  !
 ! R4    R(2,3)                  1.3955         calculate D2E/DX2 analytically  !
 ! R5    R(2,8)                  1.0796         calculate D2E/DX2 analytically  !
 ! R6    R(3,4)                  1.3499         calculate D2E/DX2 analytically  !
 ! R7    R(3,9)                  1.0797         calculate D2E/DX2 analytically  !
 ! R8    R(4,5)                  1.4542         calculate D2E/DX2 analytically  !
 ! R9    R(5,6)                  1.0793         calculate D2E/DX2 analytically  !
 ! R10   R(5,10)                 1.2902         calculate D2E/DX2 analytically  !
 ! A1    A(2,1,5)              106.6391         calculate D2E/DX2 analytically  !
 ! A2    A(2,1,7)              127.3147         calculate D2E/DX2 analytically  !
 ! A3    A(5,1,7)              126.0457         calculate D2E/DX2 analytically  !
 ! A4    A(1,2,3)              107.5593         calculate D2E/DX2 analytically  !
 ! A5    A(1,2,8)              126.4157         calculate D2E/DX2 analytically  !
 ! A6    A(3,2,8)              125.9986         calculate D2E/DX2 analytically  !
 ! A7    A(2,3,4)              112.2126         calculate D2E/DX2 analytically  !
 ! A8    A(2,3,9)              127.98           calculate D2E/DX2 analytically  !
 ! A9    A(4,3,9)              119.7712         calculate D2E/DX2 analytically  !
 ! A10   A(3,4,5)              104.2112         calculate D2E/DX2 analytically  !
 ! A11   A(1,5,4)              109.2485         calculate D2E/DX2 analytically  !
 ! A12   A(1,5,6)              129.6607         calculate D2E/DX2 analytically  !
 ! A13   A(1,5,10)             115.141          calculate D2E/DX2 analytically  !
 ! A14   A(4,5,6)              118.4983         calculate D2E/DX2 analytically  !
 ! A15   A(4,5,10)              54.9798         calculate D2E/DX2 analytically  !
 ! A16   A(6,5,10)             104.9609         calculate D2E/DX2 analytically  !
 ! D1    D(5,1,2,3)              0.8303         calculate D2E/DX2 analytically  !
 ! D2    D(5,1,2,8)            179.0461         calculate D2E/DX2 analytically  !
 ! D3    D(7,1,2,3)           -179.4237         calculate D2E/DX2 analytically  !
 ! D4    D(7,1,2,8)             -1.2079         calculate D2E/DX2 analytically  !
 ! D5    D(2,1,5,4)              1.4022         calculate D2E/DX2 analytically  !
 ! D6    D(2,1,5,6)            162.4832         calculate D2E/DX2 analytically  !
 ! D7    D(2,1,5,10)           -58.095          calculate D2E/DX2 analytically  !
 ! D8    D(7,1,5,4)           -178.3479         calculate D2E/DX2 analytically  !
 ! D9    D(7,1,5,6)            -17.267          calculate D2E/DX2 analytically  !
 ! D10   D(7,1,5,10)           122.1548         calculate D2E/DX2 analytically  !
 ! D11   D(1,2,3,4)             -2.9994         calculate D2E/DX2 analytically  !
 ! D12   D(1,2,3,9)            174.7804         calculate D2E/DX2 analytically  !
 ! D13   D(8,2,3,4)            178.7753         calculate D2E/DX2 analytically  !
 ! D14   D(8,2,3,9)             -3.4448         calculate D2E/DX2 analytically  !
 ! D15   D(2,3,4,5)              3.7089         calculate D2E/DX2 analytically  !
 ! D16   D(9,3,4,5)           -174.2751         calculate D2E/DX2 analytically  !
 ! D17   D(3,4,5,1)             -3.1145         calculate D2E/DX2 analytically  !
 ! D18   D(3,4,5,6)           -166.6142         calculate D2E/DX2 analytically  !
 ! D19   D(3,4,5,10)           104.6318         calculate D2E/DX2 analytically  !
 --------------------------------------------------------------------------------
 Trust Radius=3.00D-01 FncErr=1.00D-07 GrdErr=1.00D-06 EigMax=2.50D+02 EigMin=1.00D-04
 Number of steps in this run=     55 maximum allowed number of steps=    100.
 Search for a saddle point of order  1.
 GradGradGradGradGradGradGradGradGradGradGradGradGradGradGradGradGradGrad

                          Input orientation:                          
 ---------------------------------------------------------------------
 Center     Atomic      Atomic             Coordinates (Angstroms)
 Number     Number       Type             X           Y           Z
 ---------------------------------------------------------------------
      1          6           0        0.556127    1.064930    0.004904
      2          6           0       -0.822089    0.872402   -0.004122
      3          6           0       -1.054910   -0.503444   -0.015857
      4          7           0        0.090767   -1.214345   -0.080367
      5          6           0        1.139063   -0.208198   -0.021020
      6          1           0        2.147090   -0.499236   -0.274042
      7          1           0        1.084867    2.004763    0.023577
      8          1           0       -1.577142    1.643535    0.024648
      9          1           0       -2.001843   -1.017709    0.052466
     10          1           0        0.802512   -0.985068    0.952486
 ---------------------------------------------------------------------
                    Distance matrix (angstroms):
                    1          2          3          4          5
     1  C    0.000000
     2  C    1.391628   0.000000
     3  C    2.248481   1.395455   0.000000
     4  N    2.327859   2.278954   1.349858   0.000000
     5  C    1.400479   2.239218   2.213756   1.454228   0.000000
     6  H    2.248464   3.281809   3.212395   2.185716   1.079278
     7  H    1.078518   2.217992   3.297166   3.370711   2.214074
     8  H    2.210432   1.079620   2.209952   3.310654   3.287669
     9  H    3.298918   2.228798   1.079731   2.106022   3.244380
    10  H    2.271807   2.646625   2.149341   1.275121   1.290158
                    6          7          8          9         10
     6  H    0.000000
     7  H    2.736221   0.000000
     8  H    4.307039   2.686406   0.000000
     9  H    4.193932   4.320179   2.695063   0.000000
    10  H    1.883691   3.143515   3.665132   2.945422   0.000000
 Stoichiometry    C4H5N
 Framework group  C1[X(C4H5N)]
 Deg. of freedom    24
 Full point group                 C1      NOp   1
 Largest Abelian subgroup         C1      NOp   1
 Largest concise Abelian subgroup C1      NOp   1
                         Standard orientation:                         
 ---------------------------------------------------------------------
 Center     Atomic      Atomic             Coordinates (Angstroms)
 Number     Number       Type             X           Y           Z
 ---------------------------------------------------------------------
      1          6           0        0.556135    1.064926    0.004904
      2          6           0       -0.822083    0.872407   -0.004122
      3          6           0       -1.054914   -0.503437   -0.015857
      4          7           0        0.090759   -1.214346   -0.080367
      5          6           0        1.139062   -0.208206   -0.021020
      6          1           0        2.147087   -0.499251   -0.274042
      7          1           0        1.084881    2.004755    0.023577
      8          1           0       -1.577130    1.643546    0.024648
      9          1           0       -2.001850   -1.017695    0.052466
     10          1           0        0.802505   -0.985074    0.952486
 ---------------------------------------------------------------------
 Rotational constants (GHZ):           9.1999159           8.8525116           4.5996345
 Standard basis: def2TZVP (5D, 7F)
 There are   210 symmetry adapted cartesian basis functions of A   symmetry.
 There are   185 symmetry adapted basis functions of A   symmetry.
   185 basis functions,   295 primitive gaussians,   210 cartesian basis functions
    18 alpha electrons       18 beta electrons
       nuclear repulsion energy       160.5895571875 Hartrees.
 NAtoms=   10 NActive=   10 NUniq=   10 SFac= 1.00D+00 NAtFMM=   60 NAOKFM=F Big=F
 Integral buffers will be    131072 words long.
 Raffenetti 2 integral format.
 Two-electron integral symmetry is turned on.
 One-electron integrals computed using PRISM.
   1 Symmetry operations used in ECPInt.
 ECPInt:  NShTT=    2850 NPrTT=    8640 LenC2=    2843 LenP2D=    7477.
 LDataN:  DoStor=T MaxTD1= 6 Len=  172
 NBasis=   185 RedAO= T EigKep=  5.73D-05  NBF=   185
 NBsUse=   185 1.00D-06 EigRej= -1.00D+00 NBFU=   185
 ExpMin= 9.52D-02 ExpMax= 1.97D+04 ExpMxC= 6.73D+02 IAcc=3 IRadAn=         5 AccDes= 0.00D+00
 Harris functional with IExCor=  402 and IRadAn=       5 diagonalized for initial guess.
 HarFok:  IExCor=  402 AccDes= 0.00D+00 IRadAn=         5 IDoV= 1 UseB2=F ITyADJ=14
 ICtDFT=  3500011 ScaDFX=  1.000000  1.000000  1.000000  1.000000
 FoFCou: FMM=F IPFlag=           0 FMFlag=      100000 FMFlg1=           0
         NFxFlg=           0 DoJE=T BraDBF=F KetDBF=T FulRan=T
         wScrn=  0.000000 ICntrl=       500 IOpCl=  0 I1Cent=   200000004 NGrid=           0
         NMat0=    1 NMatS0=      1 NMatT0=    0 NMatD0=    1 NMtDS0=    0 NMtDT0=    0
 Petite list used in FoFCou.
 Keep R1 ints in memory in canonical form, NReq=160464531.
 Requested convergence on RMS density matrix=1.00D-08 within 128 cycles.
 Requested convergence on MAX density matrix=1.00D-06.
 Requested convergence on             energy=1.00D-06.
 No special actions if energy rises.
 Integral accuracy reduced to 1.0D-05 until final iterations.
 Initial convergence to 1.0D-05 achieved.  Increase integral accuracy.
 SCF Done:  E(RB3LYP) =  -210.175709852     A.U. after   13 cycles
            NFock= 13  Conv=0.89D-08     -V/T= 2.0051
 DoSCS=F DFT=T ScalE2(SS,OS)=  1.000000  1.000000
 Range of M.O.s used for correlation:     1   185
 NBasis=   185 NAE=    18 NBE=    18 NFC=     0 NFV=     0
 NROrb=    185 NOA=    18 NOB=    18 NVA=   167 NVB=   167

 **** Warning!!: The largest alpha MO coefficient is  0.26105754D+02

   1 Symmetry operations used in ECPInt.
 ECPInt:  NShTT=    2850 NPrTT=    8640 LenC2=    2843 LenP2D=    7477.
 LDataN:  DoStor=T MaxTD1= 7 Len=  274
 Symmetrizing basis deriv contribution to polar:
 IMax=3 JMax=2 DiffMx= 0.00D+00
 G2DrvN: will do    11 centers at a time, making    1 passes.
 Calling FoFCou, ICntrl=  3107 FMM=F I1Cent=   0 AccDes= 0.00D+00.
 End of G2Drv F.D. properties file   721 does not exist.
 End of G2Drv F.D. properties file   722 does not exist.
 End of G2Drv F.D. properties file   788 does not exist.
          IDoAtm=1111111111
          Differentiating once with respect to nuclear coordinates.
 Keep R1 ints in memory in canonical form, NReq=160432337.
          There are    33 degrees of freedom in the 1st order CPHF.  IDoFFX=6 NUNeed=     0.
     27 vectors produced by pass  0 Test12= 9.11D-15 3.03D-09 XBig12= 1.10D-01 1.21D-01.
 AX will form    27 AO Fock derivatives at one time.
     27 vectors produced by pass  1 Test12= 9.11D-15 3.03D-09 XBig12= 2.40D-02 5.29D-02.
     27 vectors produced by pass  2 Test12= 9.11D-15 3.03D-09 XBig12= 2.67D-04 3.25D-03.
     27 vectors produced by pass  3 Test12= 9.11D-15 3.03D-09 XBig12= 9.87D-07 1.52D-04.
     27 vectors produced by pass  4 Test12= 9.11D-15 3.03D-09 XBig12= 2.53D-09 8.39D-06.
     25 vectors produced by pass  5 Test12= 9.11D-15 3.03D-09 XBig12= 5.08D-12 3.74D-07.
      8 vectors produced by pass  6 Test12= 9.11D-15 3.03D-09 XBig12= 7.97D-15 1.75D-08.
 InvSVY:  IOpt=1 It=  1 EMax= 2.11D-15
 Solved reduced A of dimension   168 with    27 vectors.
 End of Minotr F.D. properties file   721 does not exist.
 End of Minotr F.D. properties file   722 does not exist.
 End of Minotr F.D. properties file   788 does not exist.
   1 Symmetry operations used in ECPInt.
 ECPInt:  NShTT=    2850 NPrTT=    8640 LenC2=    2843 LenP2D=    7477.
 LDataN:  DoStor=T MaxTD1= 8 Len=  415
 Calling FoFJK, ICntrl=    100147 FMM=F ISym2X=0 I1Cent= 0 IOpClX= 0 NMat=1 NMatS=1 NMatT=0.
 ***** Axes restored to original set *****
 -------------------------------------------------------------------
 Center     Atomic                   Forces (Hartrees/Bohr)
 Number     Number              X              Y              Z
 -------------------------------------------------------------------
      1        6           0.000007228   -0.000004997   -0.000015017
      2        6          -0.000005890   -0.000015155   -0.000021253
      3        6           0.000008018    0.000007203    0.000015487
      4        7          -0.000030689    0.000002109   -0.000007606
      5        6          -0.000024351    0.000014741    0.000048403
      6        1           0.000000412   -0.000000188    0.000013899
      7        1          -0.000000539   -0.000000667    0.000000647
      8        1          -0.000001299   -0.000002248    0.000003194
      9        1          -0.000001349    0.000005843   -0.000003078
     10        1           0.000048459   -0.000006640   -0.000034676
 -------------------------------------------------------------------
 Cartesian Forces:  Max     0.000048459 RMS     0.000017686
 FormGI is forming the generalized inverse of G from B-inverse, IUseBI=4.

 GradGradGradGradGradGradGradGradGradGradGradGradGradGradGradGradGradGrad
 Berny optimization.
 Internal  Forces:  Max     0.000041785 RMS     0.000012766
 Search for a saddle point.
 Step number   1 out of a maximum of   55
 All quantities printed in internal units (Hartrees-Bohrs-Radians)
 Swapping is turned off.
 Second derivative matrix not updated -- analytic derivatives used.
 ITU=  0
     Eigenvalues ---   -0.14964   0.01132   0.01547   0.02072   0.02699
     Eigenvalues ---    0.04231   0.05429   0.06642   0.08706   0.09654
     Eigenvalues ---    0.10463   0.11335   0.17171   0.21985   0.23798
     Eigenvalues ---    0.28012   0.35189   0.36637   0.36741   0.36902
     Eigenvalues ---    0.37581   0.41897   0.45091   0.51457
 Eigenvectors required to have negative eigenvalues:
                          R10       A15       D7        D10       R8
   1                    0.51809  -0.48604   0.38440   0.34655  -0.15699
                          D8        R6        D3        R2        D5
   1                   -0.15589   0.14741   0.13312  -0.12467  -0.11804
 RFO step:  Lambda0=3.244472843D-09 Lambda=-7.59472081D-08.
 Linear search not attempted -- option 19 set.
 Iteration  1 RMS(Cart)=  0.00018838 RMS(Int)=  0.00000005
 Iteration  2 RMS(Cart)=  0.00000005 RMS(Int)=  0.00000001
 Variable       Old X    -DE/DX   Delta X   Delta X   Delta X     New X
                                 (Linear)    (Quad)   (Total)
    R1        2.62980   0.00000   0.00000   0.00002   0.00002   2.62981
    R2        2.64652  -0.00001   0.00000  -0.00006  -0.00006   2.64646
    R3        2.03810  -0.00000   0.00000  -0.00000  -0.00000   2.03810
    R4        2.63703  -0.00002   0.00000  -0.00004  -0.00004   2.63698
    R5        2.04019  -0.00000   0.00000  -0.00000  -0.00000   2.04019
    R6        2.55086  -0.00000   0.00000  -0.00002  -0.00002   2.55084
    R7        2.04040  -0.00000   0.00000  -0.00000  -0.00000   2.04039
    R8        2.74809   0.00002   0.00000   0.00003   0.00003   2.74812
    R9        2.03954  -0.00000   0.00000   0.00000   0.00000   2.03954
   R10        2.43805  -0.00003   0.00000  -0.00005  -0.00005   2.43800
    A1        1.86120   0.00001   0.00000  -0.00002  -0.00002   1.86119
    A2        2.22206  -0.00000   0.00000   0.00001   0.00001   2.22207
    A3        2.19991  -0.00000   0.00000   0.00000   0.00000   2.19991
    A4        1.87726   0.00000   0.00000   0.00001   0.00001   1.87727
    A5        2.20637  -0.00000   0.00000   0.00001   0.00001   2.20638
    A6        2.19909  -0.00000   0.00000  -0.00002  -0.00002   2.19907
    A7        1.95848   0.00000   0.00000   0.00000   0.00000   1.95848
    A8        2.23367  -0.00001   0.00000  -0.00005  -0.00005   2.23362
    A9        2.09040   0.00001   0.00000   0.00006   0.00006   2.09046
   A10        1.81883   0.00000   0.00000  -0.00003  -0.00003   1.81880
   A11        1.90675  -0.00001   0.00000   0.00001   0.00001   1.90676
   A12        2.26301  -0.00000   0.00000  -0.00003  -0.00003   2.26298
   A13        2.00959   0.00004   0.00000   0.00060   0.00060   2.01018
   A14        2.06819   0.00001   0.00000  -0.00001  -0.00001   2.06818
   A15        0.95958   0.00001   0.00000  -0.00006  -0.00006   0.95952
   A16        1.83191  -0.00003   0.00000  -0.00046  -0.00046   1.83146
    D1        0.01449   0.00000   0.00000   0.00009   0.00009   0.01458
    D2        3.12494  -0.00000   0.00000  -0.00003  -0.00003   3.12492
    D3       -3.13153   0.00000   0.00000   0.00008   0.00008  -3.13146
    D4       -0.02108  -0.00000   0.00000  -0.00004  -0.00004  -0.02112
    D5        0.02447   0.00001   0.00000   0.00007   0.00007   0.02454
    D6        2.83587   0.00000   0.00000  -0.00000  -0.00000   2.83586
    D7       -1.01395  -0.00000   0.00000   0.00006   0.00006  -1.01389
    D8       -3.11276   0.00001   0.00000   0.00008   0.00008  -3.11268
    D9       -0.30137  -0.00000   0.00000   0.00001   0.00001  -0.30136
   D10        2.13200  -0.00000   0.00000   0.00006   0.00006   2.13207
   D11       -0.05235  -0.00001   0.00000  -0.00023  -0.00023  -0.05258
   D12        3.05049   0.00000   0.00000   0.00008   0.00008   3.05058
   D13        3.12022  -0.00001   0.00000  -0.00012  -0.00012   3.12010
   D14       -0.06012   0.00001   0.00000   0.00019   0.00019  -0.05993
   D15        0.06473   0.00001   0.00000   0.00026   0.00026   0.06499
   D16       -3.04167   0.00000   0.00000  -0.00002  -0.00002  -3.04169
   D17       -0.05436  -0.00001   0.00000  -0.00020  -0.00020  -0.05456
   D18       -2.90797  -0.00000   0.00000  -0.00013  -0.00013  -2.90810
   D19        1.82617   0.00004   0.00000   0.00051   0.00051   1.82668
         Item               Value     Threshold  Converged?
 Maximum Force            0.000042     0.000450     YES
 RMS     Force            0.000013     0.000300     YES
 Maximum Displacement     0.000821     0.001800     YES
 RMS     Displacement     0.000188     0.001200     YES
 Predicted change in Energy=-3.635137D-08
 Optimization completed.
    -- Stationary point found.
                           ----------------------------
                           !   Optimized Parameters   !
                           ! (Angstroms and Degrees)  !
 --------------------------                            --------------------------
 ! Name  Definition              Value          Derivative Info.                !
 --------------------------------------------------------------------------------
 ! R1    R(1,2)                  1.3916         -DE/DX =    0.0                 !
 ! R2    R(1,5)                  1.4005         -DE/DX =    0.0                 !
 ! R3    R(1,7)                  1.0785         -DE/DX =    0.0                 !
 ! R4    R(2,3)                  1.3955         -DE/DX =    0.0                 !
 ! R5    R(2,8)                  1.0796         -DE/DX =    0.0                 !
 ! R6    R(3,4)                  1.3499         -DE/DX =    0.0                 !
 ! R7    R(3,9)                  1.0797         -DE/DX =    0.0                 !
 ! R8    R(4,5)                  1.4542         -DE/DX =    0.0                 !
 ! R9    R(5,6)                  1.0793         -DE/DX =    0.0                 !
 ! R10   R(5,10)                 1.2902         -DE/DX =    0.0                 !
 ! A1    A(2,1,5)              106.6391         -DE/DX =    0.0                 !
 ! A2    A(2,1,7)              127.3147         -DE/DX =    0.0                 !
 ! A3    A(5,1,7)              126.0457         -DE/DX =    0.0                 !
 ! A4    A(1,2,3)              107.5593         -DE/DX =    0.0                 !
 ! A5    A(1,2,8)              126.4157         -DE/DX =    0.0                 !
 ! A6    A(3,2,8)              125.9986         -DE/DX =    0.0                 !
 ! A7    A(2,3,4)              112.2126         -DE/DX =    0.0                 !
 ! A8    A(2,3,9)              127.98           -DE/DX =    0.0                 !
 ! A9    A(4,3,9)              119.7712         -DE/DX =    0.0                 !
 ! A10   A(3,4,5)              104.2112         -DE/DX =    0.0                 !
 ! A11   A(1,5,4)              109.2485         -DE/DX =    0.0                 !
 ! A12   A(1,5,6)              129.6607         -DE/DX =    0.0                 !
 ! A13   A(1,5,10)             115.141          -DE/DX =    0.0                 !
 ! A14   A(4,5,6)              118.4983         -DE/DX =    0.0                 !
 ! A15   A(4,5,10)              54.9798         -DE/DX =    0.0                 !
 ! A16   A(6,5,10)             104.9609         -DE/DX =    0.0                 !
 ! D1    D(5,1,2,3)              0.8303         -DE/DX =    0.0                 !
 ! D2    D(5,1,2,8)            179.0461         -DE/DX =    0.0                 !
 ! D3    D(7,1,2,3)           -179.4237         -DE/DX =    0.0                 !
 ! D4    D(7,1,2,8)             -1.2079         -DE/DX =    0.0                 !
 ! D5    D(2,1,5,4)              1.4022         -DE/DX =    0.0                 !
 ! D6    D(2,1,5,6)            162.4832         -DE/DX =    0.0                 !
 ! D7    D(2,1,5,10)           -58.095          -DE/DX =    0.0                 !
 ! D8    D(7,1,5,4)           -178.3479         -DE/DX =    0.0                 !
 ! D9    D(7,1,5,6)            -17.267          -DE/DX =    0.0                 !
 ! D10   D(7,1,5,10)           122.1548         -DE/DX =    0.0                 !
 ! D11   D(1,2,3,4)             -2.9994         -DE/DX =    0.0                 !
 ! D12   D(1,2,3,9)            174.7804         -DE/DX =    0.0                 !
 ! D13   D(8,2,3,4)            178.7753         -DE/DX =    0.0                 !
 ! D14   D(8,2,3,9)             -3.4448         -DE/DX =    0.0                 !
 ! D15   D(2,3,4,5)              3.7089         -DE/DX =    0.0                 !
 ! D16   D(9,3,4,5)           -174.2751         -DE/DX =    0.0                 !
 ! D17   D(3,4,5,1)             -3.1145         -DE/DX =    0.0                 !
 ! D18   D(3,4,5,6)           -166.6142         -DE/DX =    0.0                 !
 ! D19   D(3,4,5,10)           104.6318         -DE/DX =    0.0                 !
 --------------------------------------------------------------------------------
 GradGradGradGradGradGradGradGradGradGradGradGradGradGradGradGradGradGrad

                          Input orientation:                          
 ---------------------------------------------------------------------
 Center     Atomic      Atomic             Coordinates (Angstroms)
 Number     Number       Type             X           Y           Z
 ---------------------------------------------------------------------
      1          6           0        0.556127    1.064930    0.004904
      2          6           0       -0.822089    0.872402   -0.004122
      3          6           0       -1.054910   -0.503444   -0.015857
      4          7           0        0.090767   -1.214345   -0.080367
      5          6           0        1.139063   -0.208198   -0.021020
      6          1           0        2.147090   -0.499236   -0.274042
      7          1           0        1.084867    2.004763    0.023577
      8          1           0       -1.577142    1.643535    0.024648
      9          1           0       -2.001843   -1.017709    0.052466
     10          1           0        0.802512   -0.985068    0.952486
 ---------------------------------------------------------------------
                    Distance matrix (angstroms):
                    1          2          3          4          5
     1  C    0.000000
     2  C    1.391628   0.000000
     3  C    2.248481   1.395455   0.000000
     4  N    2.327859   2.278954   1.349858   0.000000
     5  C    1.400479   2.239218   2.213756   1.454228   0.000000
     6  H    2.248464   3.281809   3.212395   2.185716   1.079278
     7  H    1.078518   2.217992   3.297166   3.370711   2.214074
     8  H    2.210432   1.079620   2.209952   3.310654   3.287669
     9  H    3.298918   2.228798   1.079731   2.106022   3.244380
    10  H    2.271807   2.646625   2.149341   1.275121   1.290158
                    6          7          8          9         10
     6  H    0.000000
     7  H    2.736221   0.000000
     8  H    4.307039   2.686406   0.000000
     9  H    4.193932   4.320179   2.695063   0.000000
    10  H    1.883691   3.143515   3.665132   2.945422   0.000000
 Stoichiometry    C4H5N
 Framework group  C1[X(C4H5N)]
 Deg. of freedom    24
 Full point group                 C1      NOp   1
 Largest Abelian subgroup         C1      NOp   1
 Largest concise Abelian subgroup C1      NOp   1
                         Standard orientation:                         
 ---------------------------------------------------------------------
 Center     Atomic      Atomic             Coordinates (Angstroms)
 Number     Number       Type             X           Y           Z
 ---------------------------------------------------------------------
      1          6           0        0.556135    1.064926    0.004904
      2          6           0       -0.822083    0.872407   -0.004122
      3          6           0       -1.054914   -0.503437   -0.015857
      4          7           0        0.090759   -1.214346   -0.080367
      5          6           0        1.139062   -0.208206   -0.021020
      6          1           0        2.147087   -0.499251   -0.274042
      7          1           0        1.084881    2.004755    0.023577
      8          1           0       -1.577130    1.643546    0.024648
      9          1           0       -2.001850   -1.017695    0.052466
     10          1           0        0.802505   -0.985074    0.952486
 ---------------------------------------------------------------------
 Rotational constants (GHZ):           9.1999159           8.8525116           4.5996345
 1\1\GINC-BHC0107\FTS\RB3LYP\def2TZVP\C4H5N1\DHANAWAY\10-Jun-2022\0\\# 
 Opt=(TS, CalcFC, noeigentest) B3LYP/Def2TZVP freq=noraman pop=none\\ts
 _initalOpt\\0,1\C,0.556127,1.06493,0.004904\C,-0.822089,0.872402,-0.00
 4122\C,-1.05491,-0.503444,-0.015857\N,0.090767,-1.214345,-0.080367\C,1
 .139063,-0.208198,-0.02102\H,2.14709,-0.499236,-0.274042\H,1.084867,2.
 004763,0.023577\H,-1.577142,1.643535,0.024648\H,-2.001843,-1.017709,0.
 052466\H,0.802512,-0.985068,0.952486\\Version=ES64L-G16RevA.03\HF=-210
 .1757099\RMSD=8.868e-09\RMSF=1.769e-05\Dipole=0.1526942,0.4885346,0.27
 37803\Polar=0.,0.,0.,0.,0.,0.\PG=C01 [X(C4H5N1)]\\@


 ALMOST ANYTHING IS EASIER TO GET INTO THAN OUT OF.

                         -- AGNES ALLEN'S LAW FROM
                PAUL DICKSON'S "THE OFFICIAL RULES"
 Job cpu time:       0 days  0 hours 18 minutes 33.8 seconds.
 Elapsed time:       0 days  0 hours  1 minutes 36.6 seconds.
 File lengths (MBytes):  RWF=     35 Int=      0 D2E=      0 Chk=     32 Scr=      1
 Normal termination of Gaussian 16 at Fri Jun 10 21:51:43 2022.
 Link1:  Proceeding to internal job step number  2.
 --------------------------------------------------------------------
 #N Geom=AllCheck Guess=TCheck SCRF=Check GenChk RB3LYP/def2TZVP Freq
 --------------------------------------------------------------------
 1/5=1,10=4,11=1,29=7,30=1,38=1,40=1/1,3;
 2/12=2,40=1/2;
 3/5=44,7=101,11=2,14=-4,25=1,30=1,70=2,71=2,74=-5,116=1,140=1/1,2,3;
 4/5=101/1;
 5/5=2,38=6,98=1/2;
 8/6=4,10=90,11=11/1;
 11/6=1,8=1,9=11,15=111,16=1/1,2,10;
 10/6=1/2;
 7/8=1,10=1,25=1/1,2,3,16;
 1/5=1,10=4,11=1,30=1/3;
 99//99;
 Structure from the checkpoint file:  "checkpoint.chk"
 ------------
 ts_initalOpt
 ------------
 Charge =  0 Multiplicity = 1
 Redundant internal coordinates found in file.  (old form).
 C,0,0.556127,1.06493,0.004904
 C,0,-0.822089,0.872402,-0.004122
 C,0,-1.05491,-0.503444,-0.015857
 N,0,0.090767,-1.214345,-0.080367
 C,0,1.139063,-0.208198,-0.02102
 H,0,2.14709,-0.499236,-0.274042
 H,0,1.084867,2.004763,0.023577
 H,0,-1.577142,1.643535,0.024648
 H,0,-2.001843,-1.017709,0.052466
 H,0,0.802512,-0.985068,0.952486
 Recover connectivity data from disk.

 GradGradGradGradGradGradGradGradGradGradGradGradGradGradGradGradGradGrad
 Berny optimization.
 Initialization pass.
                           ----------------------------
                           !    Initial Parameters    !
                           ! (Angstroms and Degrees)  !
 --------------------------                            --------------------------
 ! Name  Definition              Value          Derivative Info.                !
 --------------------------------------------------------------------------------
 ! R1    R(1,2)                  1.3916         calculate D2E/DX2 analytically  !
 ! R2    R(1,5)                  1.4005         calculate D2E/DX2 analytically  !
 ! R3    R(1,7)                  1.0785         calculate D2E/DX2 analytically  !
 ! R4    R(2,3)                  1.3955         calculate D2E/DX2 analytically  !
 ! R5    R(2,8)                  1.0796         calculate D2E/DX2 analytically  !
 ! R6    R(3,4)                  1.3499         calculate D2E/DX2 analytically  !
 ! R7    R(3,9)                  1.0797         calculate D2E/DX2 analytically  !
 ! R8    R(4,5)                  1.4542         calculate D2E/DX2 analytically  !
 ! R9    R(5,6)                  1.0793         calculate D2E/DX2 analytically  !
 ! R10   R(5,10)                 1.2902         calculate D2E/DX2 analytically  !
 ! A1    A(2,1,5)              106.6391         calculate D2E/DX2 analytically  !
 ! A2    A(2,1,7)              127.3147         calculate D2E/DX2 analytically  !
 ! A3    A(5,1,7)              126.0457         calculate D2E/DX2 analytically  !
 ! A4    A(1,2,3)              107.5593         calculate D2E/DX2 analytically  !
 ! A5    A(1,2,8)              126.4157         calculate D2E/DX2 analytically  !
 ! A6    A(3,2,8)              125.9986         calculate D2E/DX2 analytically  !
 ! A7    A(2,3,4)              112.2126         calculate D2E/DX2 analytically  !
 ! A8    A(2,3,9)              127.98           calculate D2E/DX2 analytically  !
 ! A9    A(4,3,9)              119.7712         calculate D2E/DX2 analytically  !
 ! A10   A(3,4,5)              104.2112         calculate D2E/DX2 analytically  !
 ! A11   A(1,5,4)              109.2485         calculate D2E/DX2 analytically  !
 ! A12   A(1,5,6)              129.6607         calculate D2E/DX2 analytically  !
 ! A13   A(1,5,10)             115.141          calculate D2E/DX2 analytically  !
 ! A14   A(4,5,6)              118.4983         calculate D2E/DX2 analytically  !
 ! A15   A(4,5,10)              54.9798         calculate D2E/DX2 analytically  !
 ! A16   A(6,5,10)             104.9609         calculate D2E/DX2 analytically  !
 ! D1    D(5,1,2,3)              0.8303         calculate D2E/DX2 analytically  !
 ! D2    D(5,1,2,8)            179.0461         calculate D2E/DX2 analytically  !
 ! D3    D(7,1,2,3)           -179.4237         calculate D2E/DX2 analytically  !
 ! D4    D(7,1,2,8)             -1.2079         calculate D2E/DX2 analytically  !
 ! D5    D(2,1,5,4)              1.4022         calculate D2E/DX2 analytically  !
 ! D6    D(2,1,5,6)            162.4832         calculate D2E/DX2 analytically  !
 ! D7    D(2,1,5,10)           -58.095          calculate D2E/DX2 analytically  !
 ! D8    D(7,1,5,4)           -178.3479         calculate D2E/DX2 analytically  !
 ! D9    D(7,1,5,6)            -17.267          calculate D2E/DX2 analytically  !
 ! D10   D(7,1,5,10)           122.1548         calculate D2E/DX2 analytically  !
 ! D11   D(1,2,3,4)             -2.9994         calculate D2E/DX2 analytically  !
 ! D12   D(1,2,3,9)            174.7804         calculate D2E/DX2 analytically  !
 ! D13   D(8,2,3,4)            178.7753         calculate D2E/DX2 analytically  !
 ! D14   D(8,2,3,9)             -3.4448         calculate D2E/DX2 analytically  !
 ! D15   D(2,3,4,5)              3.7089         calculate D2E/DX2 analytically  !
 ! D16   D(9,3,4,5)           -174.2751         calculate D2E/DX2 analytically  !
 ! D17   D(3,4,5,1)             -3.1145         calculate D2E/DX2 analytically  !
 ! D18   D(3,4,5,6)           -166.6142         calculate D2E/DX2 analytically  !
 ! D19   D(3,4,5,10)           104.6318         calculate D2E/DX2 analytically  !
 --------------------------------------------------------------------------------
 Trust Radius=3.00D-01 FncErr=1.00D-07 GrdErr=1.00D-07 EigMax=2.50D+02 EigMin=1.00D-04
 Number of steps in this run=      2 maximum allowed number of steps=      2.
 Search for a saddle point of order  1.
 GradGradGradGradGradGradGradGradGradGradGradGradGradGradGradGradGradGrad

                          Input orientation:                          
 ---------------------------------------------------------------------
 Center     Atomic      Atomic             Coordinates (Angstroms)
 Number     Number       Type             X           Y           Z
 ---------------------------------------------------------------------
      1          6           0        0.556127    1.064930    0.004904
      2          6           0       -0.822089    0.872402   -0.004122
      3          6           0       -1.054910   -0.503444   -0.015857
      4          7           0        0.090767   -1.214345   -0.080367
      5          6           0        1.139063   -0.208198   -0.021020
      6          1           0        2.147090   -0.499236   -0.274042
      7          1           0        1.084867    2.004763    0.023577
      8          1           0       -1.577142    1.643535    0.024648
      9          1           0       -2.001843   -1.017709    0.052466
     10          1           0        0.802512   -0.985068    0.952486
 ---------------------------------------------------------------------
                    Distance matrix (angstroms):
                    1          2          3          4          5
     1  C    0.000000
     2  C    1.391628   0.000000
     3  C    2.248481   1.395455   0.000000
     4  N    2.327859   2.278954   1.349858   0.000000
     5  C    1.400479   2.239218   2.213756   1.454228   0.000000
     6  H    2.248464   3.281809   3.212395   2.185716   1.079278
     7  H    1.078518   2.217992   3.297166   3.370711   2.214074
     8  H    2.210432   1.079620   2.209952   3.310654   3.287669
     9  H    3.298918   2.228798   1.079731   2.106022   3.244380
    10  H    2.271807   2.646625   2.149341   1.275121   1.290158
                    6          7          8          9         10
     6  H    0.000000
     7  H    2.736221   0.000000
     8  H    4.307039   2.686406   0.000000
     9  H    4.193932   4.320179   2.695063   0.000000
    10  H    1.883691   3.143515   3.665132   2.945422   0.000000
 Stoichiometry    C4H5N
 Framework group  C1[X(C4H5N)]
 Deg. of freedom    24
 Full point group                 C1      NOp   1
 Largest Abelian subgroup         C1      NOp   1
 Largest concise Abelian subgroup C1      NOp   1
                         Standard orientation:                         
 ---------------------------------------------------------------------
 Center     Atomic      Atomic             Coordinates (Angstroms)
 Number     Number       Type             X           Y           Z
 ---------------------------------------------------------------------
      1          6           0        0.556135    1.064926    0.004904
      2          6           0       -0.822083    0.872407   -0.004122
      3          6           0       -1.054914   -0.503437   -0.015857
      4          7           0        0.090759   -1.214346   -0.080367
      5          6           0        1.139062   -0.208206   -0.021020
      6          1           0        2.147087   -0.499251   -0.274042
      7          1           0        1.084881    2.004755    0.023577
      8          1           0       -1.577130    1.643546    0.024648
      9          1           0       -2.001850   -1.017695    0.052466
     10          1           0        0.802505   -0.985074    0.952486
 ---------------------------------------------------------------------
 Rotational constants (GHZ):           9.1999159           8.8525116           4.5996345
 Standard basis: def2TZVP (5D, 7F)
 There are   210 symmetry adapted cartesian basis functions of A   symmetry.
 There are   185 symmetry adapted basis functions of A   symmetry.
   185 basis functions,   295 primitive gaussians,   210 cartesian basis functions
    18 alpha electrons       18 beta electrons
       nuclear repulsion energy       160.5895571875 Hartrees.
 NAtoms=   10 NActive=   10 NUniq=   10 SFac= 1.00D+00 NAtFMM=   60 NAOKFM=F Big=F
 Integral buffers will be    131072 words long.
 Raffenetti 2 integral format.
 Two-electron integral symmetry is turned on.
 One-electron integrals computed using PRISM.
   1 Symmetry operations used in ECPInt.
 ECPInt:  NShTT=    2850 NPrTT=    8640 LenC2=    2843 LenP2D=    7477.
 LDataN:  DoStor=T MaxTD1= 6 Len=  172
 NBasis=   185 RedAO= T EigKep=  5.73D-05  NBF=   185
 NBsUse=   185 1.00D-06 EigRej= -1.00D+00 NBFU=   185
 Initial guess from the checkpoint file:  "checkpoint.chk"
 B after Tr=     0.000000    0.000000   -0.000000
         Rot=    1.000000    0.000000   -0.000000    0.000000 Ang=   0.00 deg.
 Keep R1 ints in memory in canonical form, NReq=160464531.
 Requested convergence on RMS density matrix=1.00D-08 within 128 cycles.
 Requested convergence on MAX density matrix=1.00D-06.
 Requested convergence on             energy=1.00D-06.
 No special actions if energy rises.
 SCF Done:  E(RB3LYP) =  -210.175709852     A.U. after    1 cycles
            NFock=  1  Conv=0.51D-08     -V/T= 2.0051
 DoSCS=F DFT=T ScalE2(SS,OS)=  1.000000  1.000000
 Range of M.O.s used for correlation:     1   185
 NBasis=   185 NAE=    18 NBE=    18 NFC=     0 NFV=     0
 NROrb=    185 NOA=    18 NOB=    18 NVA=   167 NVB=   167

 **** Warning!!: The largest alpha MO coefficient is  0.26105770D+02

   1 Symmetry operations used in ECPInt.
 ECPInt:  NShTT=    2850 NPrTT=    8640 LenC2=    2843 LenP2D=    7477.
 LDataN:  DoStor=T MaxTD1= 7 Len=  274
 Symmetrizing basis deriv contribution to polar:
 IMax=3 JMax=2 DiffMx= 0.00D+00
 G2DrvN: will do    11 centers at a time, making    1 passes.
 Calling FoFCou, ICntrl=  3107 FMM=F I1Cent=   0 AccDes= 0.00D+00.
 End of G2Drv F.D. properties file   721 does not exist.
 End of G2Drv F.D. properties file   722 does not exist.
 End of G2Drv F.D. properties file   788 does not exist.
          IDoAtm=1111111111
          Differentiating once with respect to electric field.
                with respect to dipole field.
          Differentiating once with respect to nuclear coordinates.
 Keep R1 ints in memory in canonical form, NReq=160432337.
          There are    33 degrees of freedom in the 1st order CPHF.  IDoFFX=6 NUNeed=     3.
     30 vectors produced by pass  0 Test12= 9.11D-15 3.03D-09 XBig12= 6.47D+01 4.40D+00.
 AX will form    30 AO Fock derivatives at one time.
     30 vectors produced by pass  1 Test12= 9.11D-15 3.03D-09 XBig12= 1.61D+01 6.50D-01.
     30 vectors produced by pass  2 Test12= 9.11D-15 3.03D-09 XBig12= 1.53D-01 7.09D-02.
     30 vectors produced by pass  3 Test12= 9.11D-15 3.03D-09 XBig12= 6.91D-04 4.00D-03.
     30 vectors produced by pass  4 Test12= 9.11D-15 3.03D-09 XBig12= 1.30D-06 1.15D-04.
     24 vectors produced by pass  5 Test12= 9.11D-15 3.03D-09 XBig12= 2.99D-09 7.48D-06.
      7 vectors produced by pass  6 Test12= 9.11D-15 3.03D-09 XBig12= 5.03D-12 3.28D-07.
      2 vectors produced by pass  7 Test12= 9.11D-15 3.03D-09 XBig12= 5.96D-15 8.04D-09.
 InvSVY:  IOpt=1 It=  1 EMax= 7.99D-15
 Solved reduced A of dimension   183 with    33 vectors.
 Isotropic polarizability for W=    0.000000       50.56 Bohr**3.
 End of Minotr F.D. properties file   721 does not exist.
 End of Minotr F.D. properties file   722 does not exist.
 End of Minotr F.D. properties file   788 does not exist.
   1 Symmetry operations used in ECPInt.
 ECPInt:  NShTT=    2850 NPrTT=    8640 LenC2=    2843 LenP2D=    7477.
 LDataN:  DoStor=T MaxTD1= 8 Len=  415
 Calling FoFJK, ICntrl=    100127 FMM=F ISym2X=0 I1Cent= 0 IOpClX= 0 NMat=1 NMatS=1 NMatT=0.
 Full mass-weighted force constant matrix:
 Low frequencies ----1496.1194   -6.0540   -0.0007   -0.0007   -0.0006    6.4009
 Low frequencies ---    9.7434  588.1547  640.4438
 ******    1 imaginary frequencies (negative Signs) ****** 
 Diagonal vibrational polarizability:
        1.2780819       3.1176292       5.2369097
 Harmonic frequencies (cm**-1), IR intensities (KM/Mole), Raman scattering
 activities (A**4/AMU), depolarization ratios for plane and unpolarized
 incident light, reduced masses (AMU), force constants (mDyne/A),
 and normal coordinates:
                      1                      2                      3
                      A                      A                      A
 Frequencies --  -1496.1194               588.1546               640.4438
 Red. masses --      1.2114                 2.2284                 3.8308
 Frc consts  --      1.5977                 0.4542                 0.9258
 IR Inten    --    109.6634                 2.7781                 3.4909
  Atom  AN      X      Y      Z        X      Y      Z        X      Y      Z
     1   6    -0.03   0.02   0.00     0.01   0.00  -0.19     0.01  -0.00   0.15
     2   6     0.02   0.02  -0.00    -0.00  -0.01   0.21     0.00  -0.00  -0.01
     3   6     0.03  -0.03  -0.01    -0.01   0.00  -0.15    -0.01   0.01  -0.18
     4   7    -0.06  -0.01  -0.05     0.01  -0.01   0.04     0.01  -0.04   0.29
     5   6    -0.00  -0.06   0.06     0.00   0.00   0.05    -0.02   0.01  -0.31
     6   1    -0.03   0.01  -0.16     0.06  -0.10   0.40    -0.05  -0.05  -0.33
     7   1    -0.01   0.01   0.00     0.00   0.01  -0.27     0.03  -0.02   0.54
     8   1     0.01   0.01   0.01     0.01  -0.02   0.56    -0.00  -0.01   0.14
     9   1     0.00  -0.00   0.01    -0.01  -0.01  -0.36    -0.03   0.03  -0.36
    10   1     0.66   0.70   0.17    -0.27   0.30   0.16     0.07   0.43   0.09
                      4                      5                      6
                      A                      A                      A
 Frequencies --    747.9517               847.6759               863.5684
 Red. masses --      1.1436                 1.4474                 1.5429
 Frc consts  --      0.3769                 0.6128                 0.6779
 IR Inten    --     89.5570                 7.8116                17.2476
  Atom  AN      X      Y      Z        X      Y      Z        X      Y      Z
     1   6     0.00   0.01  -0.04    -0.00   0.04   0.05     0.02   0.04   0.10
     2   6     0.00  -0.01  -0.08     0.02   0.02  -0.02     0.02   0.01   0.03
     3   6     0.00   0.00   0.03     0.03   0.01  -0.15     0.03   0.01   0.04
     4   7    -0.01  -0.02  -0.04    -0.01  -0.08   0.03    -0.01  -0.11  -0.04
     5   6     0.00   0.01  -0.03    -0.02   0.03   0.05    -0.07   0.03  -0.11
     6   1     0.11  -0.03   0.44    -0.07   0.14  -0.27     0.14   0.11   0.64
     7   1    -0.01   0.00   0.60     0.05   0.02  -0.39     0.12  -0.01  -0.50
     8   1     0.00  -0.02   0.36    -0.05  -0.06   0.32    -0.05  -0.04  -0.37
     9   1     0.02   0.03   0.44     0.02   0.14   0.75    -0.01   0.08  -0.01
    10   1    -0.18   0.25   0.04    -0.04  -0.12  -0.02    -0.12   0.30   0.01
                      7                      8                      9
                      A                      A                      A
 Frequencies --    881.6969               889.4262               937.1803
 Red. masses --      3.0907                 4.1912                 1.4680
 Frc consts  --      1.4156                 1.9535                 0.7597
 IR Inten    --      6.3518                 3.5124                 1.5544
  Atom  AN      X      Y      Z        X      Y      Z        X      Y      Z
     1   6     0.08   0.24  -0.08    -0.15  -0.09  -0.08    -0.00  -0.03   0.08
     2   6     0.14  -0.06  -0.01    -0.17   0.26   0.01    -0.02  -0.00  -0.14
     3   6     0.03  -0.06   0.06     0.24   0.16   0.03    -0.01   0.02   0.09
     4   7    -0.07  -0.19  -0.00     0.09  -0.21   0.01    -0.03  -0.02  -0.01
     5   6    -0.15   0.10   0.06    -0.05  -0.09   0.03     0.07   0.02   0.00
     6   1    -0.24   0.08  -0.25     0.04   0.32  -0.09     0.07   0.05  -0.03
     7   1     0.10   0.23   0.39     0.22  -0.31   0.32    -0.06   0.01  -0.40
     8   1    -0.07  -0.27   0.08    -0.32   0.11   0.04     0.00  -0.02   0.77
     9   1    -0.16   0.22  -0.48     0.20   0.21  -0.28    -0.06   0.04  -0.44
    10   1     0.05  -0.28  -0.08     0.12  -0.26  -0.04    -0.03   0.05  -0.03
                     10                     11                     12
                      A                      A                      A
 Frequencies --    955.7986              1064.4843              1089.2379
 Red. masses --      2.8770                 1.3734                 1.2547
 Frc consts  --      1.5485                 0.9169                 0.8771
 IR Inten    --     37.9415                 9.6728                 1.6329
  Atom  AN      X      Y      Z        X      Y      Z        X      Y      Z
     1   6    -0.04  -0.03  -0.03     0.00  -0.06  -0.02     0.07  -0.04  -0.01
     2   6    -0.01  -0.02   0.06     0.04   0.04  -0.00    -0.05  -0.05   0.01
     3   6    -0.08   0.06  -0.01    -0.09  -0.07   0.00    -0.04   0.02   0.01
     4   7    -0.13  -0.17   0.00     0.03  -0.03   0.00    -0.02   0.02  -0.01
     5   6     0.30   0.11   0.01    -0.06   0.08   0.01     0.04   0.06   0.02
     6   1     0.32   0.27  -0.11     0.06   0.55  -0.03     0.06   0.28  -0.18
     7   1    -0.51   0.23   0.16     0.25  -0.21   0.05     0.60  -0.34   0.05
     8   1     0.13   0.13  -0.36     0.50   0.49   0.05    -0.39  -0.38  -0.08
     9   1    -0.21   0.30   0.01    -0.01  -0.23  -0.03    -0.10   0.11  -0.00
    10   1    -0.05   0.06  -0.13     0.05   0.02   0.00    -0.12   0.21   0.04
                     13                     14                     15
                      A                      A                      A
 Frequencies --   1135.6267              1173.9243              1254.4157
 Red. masses --      2.2547                 1.1367                 1.7165
 Frc consts  --      1.7132                 0.9230                 1.5914
 IR Inten    --      3.3895                24.3871                 1.3848
  Atom  AN      X      Y      Z        X      Y      Z        X      Y      Z
     1   6    -0.09  -0.15  -0.01     0.00   0.01  -0.02    -0.00   0.04   0.00
     2   6     0.13  -0.15   0.00     0.01   0.00   0.00    -0.07   0.00  -0.00
     3   6     0.07   0.12   0.01    -0.02  -0.01  -0.04    -0.14  -0.02   0.00
     4   7     0.04   0.08  -0.00    -0.05   0.04   0.05     0.17  -0.04  -0.02
     5   6    -0.13   0.01   0.00     0.02  -0.02  -0.03     0.01  -0.02   0.00
     6   1    -0.01   0.45   0.00     0.22   0.24   0.44    -0.06  -0.36   0.06
     7   1    -0.37  -0.01   0.01     0.08  -0.03   0.01     0.15  -0.04  -0.01
     8   1     0.13  -0.18   0.00    -0.14  -0.14   0.11     0.08   0.16   0.02
     9   1    -0.21   0.66  -0.02    -0.04   0.02   0.01    -0.51   0.65   0.03
    10   1     0.01   0.07   0.06     0.63  -0.44  -0.19     0.27  -0.02   0.02
                     16                     17                     18
                      A                      A                      A
 Frequencies --   1312.9008              1429.4941              1482.2424
 Red. masses --      1.9034                 2.8386                 3.1997
 Frc consts  --      1.9330                 3.4175                 4.1419
 IR Inten    --      2.8228                 6.5971                 3.4950
  Atom  AN      X      Y      Z        X      Y      Z        X      Y      Z
     1   6     0.11   0.03  -0.00     0.18  -0.14  -0.01    -0.11  -0.16   0.00
     2   6     0.00   0.06  -0.00    -0.10  -0.09  -0.00     0.24   0.24   0.00
     3   6    -0.15   0.05   0.01    -0.04   0.20  -0.01    -0.11  -0.09   0.00
     4   7     0.10  -0.03  -0.01     0.04  -0.09  -0.01     0.05  -0.03  -0.00
     5   6    -0.03  -0.16   0.00    -0.10   0.18   0.03    -0.00   0.14   0.00
     6   1     0.16   0.58  -0.11    -0.27  -0.40   0.11    -0.16  -0.36   0.04
     7   1    -0.42   0.35   0.01    -0.28   0.11   0.01    -0.20  -0.15  -0.00
     8   1    -0.30  -0.23   0.01    -0.02  -0.00   0.01    -0.52  -0.51  -0.02
     9   1     0.00  -0.24  -0.01     0.28  -0.37   0.04    -0.11  -0.16   0.01
    10   1    -0.09   0.07   0.17     0.51   0.06  -0.14     0.02   0.03  -0.08
                     19                     20                     21
                      A                      A                      A
 Frequencies --   1509.4758              2183.2285              3213.6914
 Red. masses --      3.5110                 1.0725                 1.0880
 Frc consts  --      4.7134                 3.0119                 6.6205
 IR Inten    --      1.2933                14.3463                 1.9216
  Atom  AN      X      Y      Z        X      Y      Z        X      Y      Z
     1   6    -0.25   0.13   0.00    -0.00  -0.01   0.00     0.01   0.02   0.00
     2   6     0.15  -0.14  -0.00    -0.00  -0.00  -0.00     0.04  -0.04  -0.00
     3   6    -0.14   0.26   0.01     0.00   0.01   0.00    -0.05  -0.03   0.00
     4   7     0.07  -0.07  -0.00    -0.02  -0.01  -0.03    -0.00  -0.00   0.00
     5   6     0.06  -0.07   0.00     0.01   0.04  -0.04    -0.01   0.00   0.00
     6   1     0.06  -0.16  -0.02     0.01  -0.03   0.00     0.16  -0.05  -0.04
     7   1     0.46  -0.27  -0.00     0.00  -0.01   0.00    -0.13  -0.24  -0.00
     8   1     0.18  -0.17   0.01    -0.00  -0.00   0.01    -0.47   0.48   0.02
     9   1     0.31  -0.54  -0.00     0.01  -0.01   0.01     0.58   0.32  -0.04
    10   1     0.07  -0.02  -0.01     0.10  -0.28   0.95    -0.00   0.00  -0.00
                     22                     23                     24
                      A                      A                      A
 Frequencies --   3225.6567              3230.2626              3245.4140
 Red. masses --      1.0916                 1.0966                 1.1047
 Frc consts  --      6.6919                 6.7418                 6.8552
 IR Inten    --      2.9230                 6.2906                 1.9808
  Atom  AN      X      Y      Z        X      Y      Z        X      Y      Z
     1   6     0.03   0.04   0.00    -0.00  -0.01  -0.00    -0.03  -0.06  -0.00
     2   6     0.00  -0.01  -0.00    -0.04   0.04   0.00     0.03  -0.03  -0.00
     3   6     0.04   0.02  -0.00    -0.04  -0.03   0.00     0.02   0.01  -0.00
     4   7    -0.00   0.00   0.00     0.00  -0.00  -0.00     0.00   0.00   0.00
     5   6    -0.05   0.02   0.01    -0.04   0.02   0.01    -0.04   0.01   0.01
     6   1     0.63  -0.18  -0.16     0.51  -0.15  -0.13     0.43  -0.13  -0.11
     7   1    -0.28  -0.49  -0.01     0.06   0.11   0.00     0.38   0.67   0.01
     8   1    -0.05   0.05   0.00     0.43  -0.45  -0.02    -0.27   0.27   0.01
     9   1    -0.41  -0.23   0.03     0.47   0.26  -0.03    -0.17  -0.10   0.01
    10   1    -0.01   0.00  -0.01    -0.00   0.00  -0.00    -0.00   0.00  -0.00

 -------------------
 - Thermochemistry -
 -------------------
 Temperature   298.150 Kelvin.  Pressure   1.00000 Atm.
 Atom     1 has atomic number  6 and mass  12.00000
 Atom     2 has atomic number  6 and mass  12.00000
 Atom     3 has atomic number  6 and mass  12.00000
 Atom     4 has atomic number  7 and mass  14.00307
 Atom     5 has atomic number  6 and mass  12.00000
 Atom     6 has atomic number  1 and mass   1.00783
 Atom     7 has atomic number  1 and mass   1.00783
 Atom     8 has atomic number  1 and mass   1.00783
 Atom     9 has atomic number  1 and mass   1.00783
 Atom    10 has atomic number  1 and mass   1.00783
 Molecular mass:    67.04220 amu.
 Principal axes and moments of inertia in atomic units:
                           1         2         3
     Eigenvalues --   196.16931 203.86770 392.36622
           X            0.10805   0.99415   0.00124
           Y            0.99406  -0.10802  -0.01363
           Z            0.01342  -0.00271   0.99991
 This molecule is an asymmetric top.
 Rotational symmetry number  1.
 Rotational temperatures (Kelvin)      0.44153     0.42485     0.22075
 Rotational constants (GHZ):           9.19992     8.85251     4.59963
    1 imaginary frequencies ignored.
 Zero-point vibrational energy     202778.7 (Joules/Mol)
                                   48.46527 (Kcal/Mol)
 Warning -- explicit consideration of   1 degrees of freedom as
           vibrations may cause significant error
 Vibrational temperatures:    846.22   921.46  1076.14  1219.62  1242.48
          (Kelvin)           1268.57  1279.69  1348.39  1375.18  1531.56
                             1567.17  1633.91  1689.02  1804.82  1888.97
                             2056.72  2132.62  2171.80  3141.18  4623.79
                             4641.00  4647.63  4669.43
 
 Zero-point correction=                           0.077234 (Hartree/Particle)
 Thermal correction to Energy=                    0.080935
 Thermal correction to Enthalpy=                  0.081880
 Thermal correction to Gibbs Free Energy=         0.050949
 Sum of electronic and zero-point Energies=           -210.098476
 Sum of electronic and thermal Energies=              -210.094774
 Sum of electronic and thermal Enthalpies=            -210.093830
 Sum of electronic and thermal Free Energies=         -210.124761
 
                     E (Thermal)             CV                S
                      KCal/Mol        Cal/Mol-Kelvin    Cal/Mol-Kelvin
 Total                   50.788             13.395             65.099
 Electronic               0.000              0.000              0.000
 Translational            0.889              2.981             38.526
 Rotational               0.889              2.981             24.266
 Vibrational             49.010              7.434              2.307
 Vibration     1          0.945              1.057              0.470
                       Q            Log10(Q)             Ln(Q)
 Total Bot       0.367362D-23        -23.434906        -53.960865
 Total V=0       0.123137D+13         12.090388         27.839147
 Vib (Bot)       0.379697D-35        -35.420563        -81.558861
 Vib (Bot)    1  0.256966D+00         -0.590125         -1.358813
 Vib (V=0)       0.127271D+01          0.104730          0.241151
 Vib (V=0)    1  0.106217D+01          0.026193          0.060311
 Electronic      0.100000D+01          0.000000          0.000000
 Translational   0.215763D+08          7.333976         16.887104
 Rotational      0.448416D+05          4.651681         10.710892
 ***** Axes restored to original set *****
 -------------------------------------------------------------------
 Center     Atomic                   Forces (Hartrees/Bohr)
 Number     Number              X              Y              Z
 -------------------------------------------------------------------
      1        6           0.000007362   -0.000004918   -0.000015001
      2        6          -0.000005925   -0.000015079   -0.000021237
      3        6           0.000007976    0.000006992    0.000015466
      4        7          -0.000030642    0.000002136   -0.000007595
      5        6          -0.000024316    0.000014642    0.000048380
      6        1           0.000000381   -0.000000171    0.000013914
      7        1          -0.000000546   -0.000000658    0.000000644
      8        1          -0.000001366   -0.000002182    0.000003198
      9        1          -0.000001369    0.000005850   -0.000003084
     10        1           0.000048444   -0.000006613   -0.000034686
 -------------------------------------------------------------------
 Cartesian Forces:  Max     0.000048444 RMS     0.000017670
 FormGI is forming the generalized inverse of G from B-inverse, IUseBI=4.

 GradGradGradGradGradGradGradGradGradGradGradGradGradGradGradGradGradGrad
 Berny optimization.
 Internal  Forces:  Max     0.000041757 RMS     0.000012756
 Search for a saddle point.
 Step number   1 out of a maximum of    2
 All quantities printed in internal units (Hartrees-Bohrs-Radians)
 Swapping is turned off.
 Second derivative matrix not updated -- analytic derivatives used.
 ITU=  0
     Eigenvalues ---   -0.14964   0.01132   0.01547   0.02072   0.02699
     Eigenvalues ---    0.04231   0.05429   0.06642   0.08706   0.09654
     Eigenvalues ---    0.10463   0.11335   0.17171   0.21985   0.23798
     Eigenvalues ---    0.28012   0.35189   0.36637   0.36741   0.36903
     Eigenvalues ---    0.37581   0.41897   0.45091   0.51457
 Eigenvectors required to have negative eigenvalues:
                          R10       A15       D7        D10       R8
   1                    0.51809  -0.48604   0.38440   0.34655  -0.15699
                          D8        R6        D3        R2        D5
   1                   -0.15589   0.14741   0.13312  -0.12467  -0.11804
 Angle between quadratic step and forces=  36.66 degrees.
 Linear search not attempted -- option 19 set.
 Iteration  1 RMS(Cart)=  0.00018828 RMS(Int)=  0.00000005
 Iteration  2 RMS(Cart)=  0.00000005 RMS(Int)=  0.00000001
 Variable       Old X    -DE/DX   Delta X   Delta X   Delta X     New X
                                 (Linear)    (Quad)   (Total)
    R1        2.62980   0.00000   0.00000   0.00002   0.00002   2.62981
    R2        2.64652  -0.00001   0.00000  -0.00006  -0.00006   2.64646
    R3        2.03810  -0.00000   0.00000  -0.00000  -0.00000   2.03810
    R4        2.63703  -0.00002   0.00000  -0.00004  -0.00004   2.63699
    R5        2.04019  -0.00000   0.00000  -0.00000  -0.00000   2.04019
    R6        2.55086  -0.00000   0.00000  -0.00002  -0.00002   2.55084
    R7        2.04040  -0.00000   0.00000  -0.00000  -0.00000   2.04039
    R8        2.74809   0.00002   0.00000   0.00003   0.00003   2.74812
    R9        2.03954  -0.00000   0.00000   0.00000   0.00000   2.03954
   R10        2.43805  -0.00003   0.00000  -0.00005  -0.00005   2.43800
    A1        1.86120   0.00001   0.00000  -0.00002  -0.00002   1.86119
    A2        2.22206  -0.00000   0.00000   0.00001   0.00001   2.22207
    A3        2.19991  -0.00000   0.00000   0.00000   0.00000   2.19991
    A4        1.87726   0.00000   0.00000   0.00001   0.00001   1.87727
    A5        2.20637  -0.00000   0.00000   0.00001   0.00001   2.20638
    A6        2.19909  -0.00000   0.00000  -0.00002  -0.00002   2.19907
    A7        1.95848   0.00000   0.00000   0.00000   0.00000   1.95848
    A8        2.23367  -0.00001   0.00000  -0.00005  -0.00005   2.23362
    A9        2.09040   0.00001   0.00000   0.00006   0.00006   2.09046
   A10        1.81883   0.00000   0.00000  -0.00003  -0.00003   1.81880
   A11        1.90675  -0.00001   0.00000   0.00001   0.00001   1.90676
   A12        2.26301  -0.00000   0.00000  -0.00003  -0.00003   2.26298
   A13        2.00959   0.00004   0.00000   0.00060   0.00060   2.01018
   A14        2.06819   0.00001   0.00000  -0.00001  -0.00001   2.06818
   A15        0.95958   0.00001   0.00000  -0.00006  -0.00006   0.95952
   A16        1.83191  -0.00003   0.00000  -0.00046  -0.00046   1.83146
    D1        0.01449   0.00000   0.00000   0.00009   0.00009   0.01458
    D2        3.12494  -0.00000   0.00000  -0.00003  -0.00003   3.12492
    D3       -3.13153   0.00000   0.00000   0.00008   0.00008  -3.13146
    D4       -0.02108  -0.00000   0.00000  -0.00004  -0.00004  -0.02112
    D5        0.02447   0.00001   0.00000   0.00007   0.00007   0.02454
    D6        2.83587   0.00000   0.00000  -0.00000  -0.00000   2.83586
    D7       -1.01395  -0.00000   0.00000   0.00006   0.00006  -1.01389
    D8       -3.11276   0.00001   0.00000   0.00008   0.00008  -3.11268
    D9       -0.30137  -0.00000   0.00000   0.00001   0.00001  -0.30136
   D10        2.13200  -0.00000   0.00000   0.00006   0.00006   2.13207
   D11       -0.05235  -0.00001   0.00000  -0.00023  -0.00023  -0.05258
   D12        3.05049   0.00000   0.00000   0.00008   0.00008   3.05058
   D13        3.12022  -0.00001   0.00000  -0.00012  -0.00012   3.12010
   D14       -0.06012   0.00001   0.00000   0.00019   0.00019  -0.05993
   D15        0.06473   0.00001   0.00000   0.00026   0.00026   0.06499
   D16       -3.04167   0.00000   0.00000  -0.00002  -0.00002  -3.04169
   D17       -0.05436  -0.00001   0.00000  -0.00020  -0.00020  -0.05456
   D18       -2.90797  -0.00000   0.00000  -0.00013  -0.00013  -2.90810
   D19        1.82617   0.00004   0.00000   0.00051   0.00051   1.82668
         Item               Value     Threshold  Converged?
 Maximum Force            0.000042     0.000450     YES
 RMS     Force            0.000013     0.000300     YES
 Maximum Displacement     0.000820     0.001800     YES
 RMS     Displacement     0.000188     0.001200     YES
 Predicted change in Energy=-3.630567D-08
 Optimization completed.
    -- Stationary point found.
                           ----------------------------
                           !   Optimized Parameters   !
                           ! (Angstroms and Degrees)  !
 --------------------------                            --------------------------
 ! Name  Definition              Value          Derivative Info.                !
 --------------------------------------------------------------------------------
 ! R1    R(1,2)                  1.3916         -DE/DX =    0.0                 !
 ! R2    R(1,5)                  1.4005         -DE/DX =    0.0                 !
 ! R3    R(1,7)                  1.0785         -DE/DX =    0.0                 !
 ! R4    R(2,3)                  1.3955         -DE/DX =    0.0                 !
 ! R5    R(2,8)                  1.0796         -DE/DX =    0.0                 !
 ! R6    R(3,4)                  1.3499         -DE/DX =    0.0                 !
 ! R7    R(3,9)                  1.0797         -DE/DX =    0.0                 !
 ! R8    R(4,5)                  1.4542         -DE/DX =    0.0                 !
 ! R9    R(5,6)                  1.0793         -DE/DX =    0.0                 !
 ! R10   R(5,10)                 1.2902         -DE/DX =    0.0                 !
 ! A1    A(2,1,5)              106.6391         -DE/DX =    0.0                 !
 ! A2    A(2,1,7)              127.3147         -DE/DX =    0.0                 !
 ! A3    A(5,1,7)              126.0457         -DE/DX =    0.0                 !
 ! A4    A(1,2,3)              107.5593         -DE/DX =    0.0                 !
 ! A5    A(1,2,8)              126.4157         -DE/DX =    0.0                 !
 ! A6    A(3,2,8)              125.9986         -DE/DX =    0.0                 !
 ! A7    A(2,3,4)              112.2126         -DE/DX =    0.0                 !
 ! A8    A(2,3,9)              127.98           -DE/DX =    0.0                 !
 ! A9    A(4,3,9)              119.7712         -DE/DX =    0.0                 !
 ! A10   A(3,4,5)              104.2112         -DE/DX =    0.0                 !
 ! A11   A(1,5,4)              109.2485         -DE/DX =    0.0                 !
 ! A12   A(1,5,6)              129.6607         -DE/DX =    0.0                 !
 ! A13   A(1,5,10)             115.141          -DE/DX =    0.0                 !
 ! A14   A(4,5,6)              118.4983         -DE/DX =    0.0                 !
 ! A15   A(4,5,10)              54.9798         -DE/DX =    0.0                 !
 ! A16   A(6,5,10)             104.9609         -DE/DX =    0.0                 !
 ! D1    D(5,1,2,3)              0.8303         -DE/DX =    0.0                 !
 ! D2    D(5,1,2,8)            179.0461         -DE/DX =    0.0                 !
 ! D3    D(7,1,2,3)           -179.4237         -DE/DX =    0.0                 !
 ! D4    D(7,1,2,8)             -1.2079         -DE/DX =    0.0                 !
 ! D5    D(2,1,5,4)              1.4022         -DE/DX =    0.0                 !
 ! D6    D(2,1,5,6)            162.4832         -DE/DX =    0.0                 !
 ! D7    D(2,1,5,10)           -58.095          -DE/DX =    0.0                 !
 ! D8    D(7,1,5,4)           -178.3479         -DE/DX =    0.0                 !
 ! D9    D(7,1,5,6)            -17.267          -DE/DX =    0.0                 !
 ! D10   D(7,1,5,10)           122.1548         -DE/DX =    0.0                 !
 ! D11   D(1,2,3,4)             -2.9994         -DE/DX =    0.0                 !
 ! D12   D(1,2,3,9)            174.7804         -DE/DX =    0.0                 !
 ! D13   D(8,2,3,4)            178.7753         -DE/DX =    0.0                 !
 ! D14   D(8,2,3,9)             -3.4448         -DE/DX =    0.0                 !
 ! D15   D(2,3,4,5)              3.7089         -DE/DX =    0.0                 !
 ! D16   D(9,3,4,5)           -174.2751         -DE/DX =    0.0                 !
 ! D17   D(3,4,5,1)             -3.1145         -DE/DX =    0.0                 !
 ! D18   D(3,4,5,6)           -166.6142         -DE/DX =    0.0                 !
 ! D19   D(3,4,5,10)           104.6318         -DE/DX =    0.0                 !
 --------------------------------------------------------------------------------
 GradGradGradGradGradGradGradGradGradGradGradGradGradGradGradGradGradGrad


 ----------------------------------------------------------------------

 Electric dipole moment (input orientation):
 (Debye = 10**-18 statcoulomb cm , SI units = C m)
                  (au)            (Debye)         (10**-30 SI)
   Tot        0.580462D+00      0.147539D+01      0.492136D+01
   x          0.152696D+00      0.388115D+00      0.129461D+01
   y          0.488533D+00      0.124173D+01      0.414195D+01
   z          0.273780D+00      0.695880D+00      0.232121D+01

 Dipole polarizability, Alpha (input orientation).
 (esu units = cm**3 , SI units = C**2 m**2 J**-1)
 Alpha(0;0):
               (au)            (10**-24 esu)      (10**-40 SI)
   iso        0.505642D+02      0.749284D+01      0.833691D+01
   aniso      0.248211D+02      0.367811D+01      0.409244D+01
   xx         0.605946D+02      0.897919D+01      0.999070D+01
   yx        -0.168685D+00     -0.249966D-01     -0.278124D-01
   yy         0.568282D+02      0.842107D+01      0.936970D+01
   zx         0.110013D+01      0.163023D+00      0.181388D+00
   zy        -0.120249D+01     -0.178190D+00     -0.198264D+00
   zz         0.342698D+02      0.507826D+01      0.565032D+01

 ----------------------------------------------------------------------

 Dipole orientation:
     6          0.69632093          0.87790578          1.97454099
     6         -1.72644181          1.09536885          0.97516414
     6         -1.74874456         -0.16833556         -1.33924126
     7          0.54864041         -1.08824494         -1.95785985
     6          2.12093973         -0.49446508          0.21637816
     1          4.14478265         -0.66388799          0.02907929
     1          1.37204099          1.61908281          3.74878006
     1         -3.31972160          2.02010645          1.85190670
     1         -3.34180736         -0.51185830         -2.56698591
     1          1.25177400         -2.70855583         -0.31880152

 Electric dipole moment (dipole orientation):
 (Debye = 10**-18 statcoulomb cm , SI units = C m)
                  (au)            (Debye)         (10**-30 SI)
   Tot        0.580462D+00      0.147539D+01      0.492136D+01
   x          0.000000D+00      0.000000D+00      0.000000D+00
   y          0.000000D+00      0.000000D+00      0.000000D+00
   z          0.580462D+00      0.147539D+01      0.492136D+01

 Dipole polarizability, Alpha (dipole orientation).
 (esu units = cm**3 , SI units = C**2 m**2 J**-1)
 Alpha(0;0):
               (au)            (10**-24 esu)      (10**-40 SI)
   iso        0.505642D+02      0.749284D+01      0.833691D+01
   aniso      0.248211D+02      0.367811D+01      0.409244D+01
   xx         0.580893D+02      0.860794D+01      0.957763D+01
   yx        -0.644858D+01     -0.955582D+00     -0.106323D+01
   yy         0.422892D+02      0.626662D+01      0.697256D+01
   zx         0.438443D+01      0.649705D+00      0.722894D+00
   zy         0.904007D+01      0.133960D+01      0.149051D+01
   zz         0.513140D+02      0.760396D+01      0.846054D+01

 ----------------------------------------------------------------------
 1\1\GINC-BHC0107\Freq\RB3LYP\def2TZVP\C4H5N1\DHANAWAY\10-Jun-2022\0\\#
 N Geom=AllCheck Guess=TCheck SCRF=Check GenChk RB3LYP/def2TZVP Freq\\t
 s_initalOpt\\0,1\C,0.556127,1.06493,0.004904\C,-0.822089,0.872402,-0.0
 04122\C,-1.05491,-0.503444,-0.015857\N,0.090767,-1.214345,-0.080367\C,
 1.139063,-0.208198,-0.02102\H,2.14709,-0.499236,-0.274042\H,1.084867,2
 .004763,0.023577\H,-1.577142,1.643535,0.024648\H,-2.001843,-1.017709,0
 .052466\H,0.802512,-0.985068,0.952486\\Version=ES64L-G16RevA.03\HF=-21
 0.1757099\RMSD=5.134e-09\RMSF=1.767e-05\ZeroPoint=0.0772343\Thermal=0.
 0809354\Dipole=0.1526963,0.4885328,0.2737804\DipoleDeriv=0.0249949,-0.
 0408848,0.0776209,0.0265725,-0.0261957,-0.0453343,0.0983605,-0.0064466
 ,-0.1964303,-0.0089934,-0.0168512,-0.0471068,-0.1110091,0.0489194,-0.0
 153476,0.0294035,0.0279111,-0.1582888,0.042745,0.1328234,-0.0609945,0.
 0688746,0.1221819,0.0456215,-0.0331599,-0.0826922,-0.117705,-0.0430704
 ,-0.2701586,0.1897209,0.1133698,-0.6927359,0.075705,0.1057834,-0.14842
 36,-0.1238354,-0.1276692,0.0616726,-0.1478028,-0.0500492,0.1601816,0.0
 390566,-0.3396845,0.2076202,-0.1569726,0.0217522,0.0029977,0.0329567,0
 .0154535,0.0737981,-0.007049,0.1268508,-0.0518887,0.171647,0.059048,-0
 .060173,-0.0032618,-0.0665184,-0.0182829,0.0000571,-0.0122997,0.003663
 9,0.1686582,0.010698,0.082416,0.0016308,0.0813759,0.0120975,-0.0051875
 ,-0.0035576,-0.0121558,0.1626009,-0.0346791,-0.0450157,0.007775,-0.059
 525,0.0474595,0.0068914,0.0243697,0.0299742,0.156053,0.0551739,0.15317
 37,-0.0505385,-0.0185446,0.2725764,-0.0944132,0.0039339,0.0324374,0.09
 4273\Polar=60.5945956,-0.1686853,56.8281936,1.1001342,-1.2024881,34.26
 97709\PG=C01 [X(C4H5N1)]\NImag=1\\0.63166414,0.11900308,0.76202169,-0.
 00137216,0.01339790,0.12777373,-0.32870319,-0.04823253,-0.00081193,0.7
 0619495,-0.00292693,-0.12357845,-0.00036302,-0.13195419,0.69758764,-0.
 00037560,-0.00180914,-0.06248421,-0.00525022,0.01050014,0.13345016,-0.
 00342458,-0.03341421,0.00025646,-0.12489928,-0.05921209,0.00414359,0.7
 6651468,-0.09401792,-0.00230784,-0.00238944,-0.01448483,-0.30634347,-0
 .00442044,0.11787401,0.63322473,-0.00822416,0.00459651,0.01216812,0.00
 895651,0.00665059,-0.06718312,-0.02034998,-0.01229617,0.14822464,-0.05
 790419,-0.00187862,0.00402346,0.02181406,0.08321741,-0.00423575,-0.235
 62634,0.09131491,0.01210262,0.39328363,-0.00308739,-0.07018391,-0.0042
 3321,0.00920210,-0.06330820,-0.00465102,0.08974626,-0.15383376,-0.0110
 6376,-0.07678056,0.39990705,-0.02951406,0.02456691,0.01216748,0.022317
 32,0.02065497,0.01673748,0.03402545,-0.04308925,-0.08740148,-0.0652382
 3,0.02761448,0.10931441,-0.13274053,0.09466010,0.00790228,-0.04720943,
 0.01421801,0.00092368,-0.09252829,-0.01340377,-0.00033796,-0.12494628,
 -0.01467406,-0.00701376,0.70391173,0.05932804,-0.26856588,-0.00339636,
 0.07693204,0.02941360,0.00259247,0.01755746,-0.05243113,-0.01321006,-0
 .16904037,-0.13220234,-0.08293154,-0.14028231,0.49381868,0.04445079,-0
 .02778321,-0.06751109,-0.02538044,-0.02864933,0.00896544,-0.03153893,0
 .04064987,0.01438722,0.08578853,0.00050969,0.02330328,-0.10031362,0.05
 876107,0.14459485,-0.00237179,-0.00133698,0.00022325,0.00088842,0.0016
 6925,0.00130781,-0.00035952,-0.00522779,0.00108569,-0.01675667,0.00562
 191,0.00291965,-0.30495641,0.07682612,0.07052402,0.32546593,0.02212332
 ,0.00482703,-0.00686163,0.00252954,-0.00581826,0.00035093,-0.00442213,
 -0.00511692,-0.00039774,-0.01883605,0.01037248,0.00981405,0.08330939,-
 0.07953101,-0.02273849,-0.07932981,0.07436831,-0.00756531,0.00409079,-
 0.00065185,0.00315806,0.00473006,0.00361941,0.00264185,-0.00565575,0.0
 0146990,-0.01830431,0.00174265,-0.01159491,0.07524205,-0.03016189,-0.0
 3708551,-0.07479486,0.02088696,0.04435902,-0.12818797,-0.12471792,-0.0
 0334881,-0.00331571,-0.02547347,-0.00040008,-0.00608620,-0.00121460,0.
 00001020,-0.00136880,0.00473288,-0.00069231,0.01204152,0.01103820,0.00
 092917,-0.00021897,-0.00074451,0.00002671,0.12516627,-0.12465607,-0.28
 039066,-0.00416347,0.00249298,0.00426589,-0.00010095,0.00165796,-0.000
 18698,0.00003894,0.00109624,-0.00385534,0.00036857,-0.01617119,-0.0111
 8873,-0.00084780,0.00055338,0.00011853,0.00006577,0.13630373,0.2914542
 5,-0.00203165,-0.00624438,-0.02956114,0.00000732,-0.00010323,0.0007217
 5,-0.00050728,0.00038076,0.00517132,-0.00034889,-0.00039918,0.00573854
 ,-0.00048785,0.00150155,-0.00118144,-0.00043123,0.00047166,-0.00165073
 ,0.00315286,0.00497105,0.02238648,-0.00915000,0.02208923,0.00066235,-0
 .19966450,0.14348129,0.00494449,0.00933715,-0.00536202,-0.00018721,0.0
 0104523,-0.00326950,0.00035720,-0.00555540,0.00012141,0.00025586,-0.00
 009483,0.00122917,-0.00021350,0.00077716,-0.00062959,-0.00009055,0.203
 98573,-0.00642932,0.00966805,0.00026718,0.14342274,-0.20713404,-0.0061
 6075,0.02214786,-0.00647038,-0.00063762,0.00262540,-0.00625979,0.00100
 869,-0.00316252,-0.00074462,-0.00081688,0.00000609,0.00064060,0.000072
 99,0.00088900,-0.00008666,0.00004100,-0.15782916,0.21090068,-0.0008165
 7,0.00015563,0.00082382,0.00557789,-0.00623155,-0.03519422,-0.00103054
 ,0.00071578,-0.00102448,0.00132083,0.00224730,0.00759020,-0.00125513,-
 0.00097433,0.00597564,0.00015343,0.00069038,0.00080259,0.00003326,0.00
 004882,-0.00287946,-0.00573511,0.00675478,0.02515665,0.00045291,0.0007
 1385,0.00025681,0.00336902,0.00205376,0.00005020,-0.27004478,-0.123035
 50,0.01543774,-0.02435328,-0.01089202,0.00009205,-0.00263135,0.0033323
 2,0.00206780,-0.00075480,-0.00102905,-0.00064750,0.00029501,-0.0000277
 7,0.00006161,-0.00019799,-0.00070530,-0.00007147,0.29357647,-0.0008234
 1,-0.00556010,-0.00010600,-0.02366006,-0.00238544,0.00188721,-0.127627
 11,-0.13091305,0.01029014,0.01770690,0.01272715,-0.00121886,0.00436173
 ,-0.00198179,-0.00014931,0.00066480,0.00095021,0.00031074,-0.00137734,
 0.00033106,-0.00019765,0.00073130,0.00023963,-0.00011299,0.12947906,0.
 12600361,0.00181205,-0.00151633,0.00459269,-0.00207766,-0.00202452,0.0
 0154159,0.01699297,0.01247742,-0.03135017,0.00371503,0.00151050,-0.005
 13864,-0.00081850,0.00192645,0.00381840,-0.00046690,-0.00115294,0.0017
 2729,-0.00004725,-0.00004116,0.00075229,0.00001679,0.00004230,-0.00198
 536,-0.01820073,-0.01013521,0.02461772,0.03036521,-0.02688600,-0.00779
 170,-0.02847432,-0.02507303,-0.00110814,-0.04288283,0.04755750,-0.0084
 9345,0.04481264,-0.00059964,0.04274669,-0.00538555,0.06418709,-0.04678
 317,-0.00084134,-0.00482986,0.02045681,0.00089769,-0.00061968,0.000675
 64,-0.00048254,-0.00096479,0.00182341,0.00028880,0.00054413,-0.0009258
 0,0.00170224,0.03148660,-0.02592995,0.00784806,-0.01624779,-0.02269925
 ,0.00181153,-0.02430801,0.02437881,0.01602918,0.07057474,0.00663664,0.
 04321197,-0.00885539,0.02341322,-0.01893560,0.00055304,-0.00081096,0.0
 0391770,0.00056402,-0.00046137,-0.00042158,-0.00056213,-0.00075346,-0.
 00329381,0.00011064,0.00058872,-0.00108651,-0.05331573,-0.00436239,0.0
 0363666,-0.00945468,0.00268244,-0.00649685,-0.00516410,-0.00017429,-0.
 00463359,0.01362722,0.00553804,-0.01882329,-0.01327745,-0.07071638,0.0
 2615881,0.06589265,-0.09526680,-0.00052086,-0.00106318,-0.00099521,0.0
 0033625,-0.00033976,0.00050239,-0.00001032,-0.00057168,0.00073461,0.00
 095349,-0.00056807,0.00142418,-0.00060030,-0.04908094,0.15627101\\-0.0
 0000736,0.00000492,0.00001500,0.00000592,0.00001508,0.00002124,-0.0000
 0798,-0.00000699,-0.00001547,0.00003064,-0.00000214,0.00000760,0.00002
 432,-0.00001464,-0.00004838,-0.00000038,0.00000017,-0.00001391,0.00000
 055,0.00000066,-0.00000064,0.00000137,0.00000218,-0.00000320,0.0000013
 7,-0.00000585,0.00000308,-0.00004844,0.00000661,0.00003469\\\@


 IN-LAWS ARE LIKE SEEDS. YOU DON'T NEED THEM
 BUT THEY COME WITH THE TOMATO.
 Job cpu time:       0 days  0 hours 17 minutes 49.0 seconds.
 Elapsed time:       0 days  0 hours  1 minutes 30.1 seconds.
 File lengths (MBytes):  RWF=     35 Int=      0 D2E=      0 Chk=     32 Scr=      1
 Normal termination of Gaussian 16 at Fri Jun 10 21:53:13 2022.
