 Entering Gaussian System, Link 0=g16
 Input=ts.gjf
 Output=ts.out
 Initial command:
 /software/gaussian/g16-a03/l1.exe "/local_scratch/11171616/Gau-22058.inp" -scrdir="/local_scratch/11171616/"
 Entering Link 1 = /software/gaussian/g16-a03/l1.exe PID=     22059.
  
 Copyright (c) 1988,1990,1992,1993,1995,1998,2003,2009,2016,
            Gaussian, Inc.  All Rights Reserved.
  
 This is part of the Gaussian(R) 16 program.  It is based on
 the Gaussian(R) 09 system (copyright 2009, Gaussian, Inc.),
 the Gaussian(R) 03 system (copyright 2003, Gaussian, Inc.),
 the Gaussian(R) 98 system (copyright 1998, Gaussian, Inc.),
 the Gaussian(R) 94 system (copyright 1995, Gaussian, Inc.),
 the Gaussian 92(TM) system (copyright 1992, Gaussian, Inc.),
 the Gaussian 90(TM) system (copyright 1990, Gaussian, Inc.),
 the Gaussian 88(TM) system (copyright 1988, Gaussian, Inc.),
 the Gaussian 86(TM) system (copyright 1986, Carnegie Mellon
 University), and the Gaussian 82(TM) system (copyright 1983,
 Carnegie Mellon University). Gaussian is a federally registered
 trademark of Gaussian, Inc.
  
 This software contains proprietary and confidential information,
 including trade secrets, belonging to Gaussian, Inc.
  
 This software is provided under written license and may be
 used, copied, transmitted, or stored only in accord with that
 written license.
  
 The following legend is applicable only to US Government
 contracts under FAR:
  
                    RESTRICTED RIGHTS LEGEND
  
 Use, reproduction and disclosure by the US Government is
 subject to restrictions as set forth in subparagraphs (a)
 and (c) of the Commercial Computer Software - Restricted
 Rights clause in FAR 52.227-19.
  
 Gaussian, Inc.
 340 Quinnipiac St., Bldg. 40, Wallingford CT 06492
  
  
 ---------------------------------------------------------------
 Warning -- This program may not be used in any manner that
 competes with the business of Gaussian, Inc. or will provide
 assistance to any competitor of Gaussian, Inc.  The licensee
 of this program is prohibited from giving any competitor of
 Gaussian, Inc. access to this program.  By using this program,
 the user acknowledges that Gaussian, Inc. is engaged in the
 business of creating and licensing software in the field of
 computational chemistry and represents and warrants to the
 licensee that it is not a competitor of Gaussian, Inc. and that
 it will not use this program in any manner prohibited above.
 ---------------------------------------------------------------
  

 Cite this work as:
 Gaussian 16, Revision A.03,
 M. J. Frisch, G. W. Trucks, H. B. Schlegel, G. E. Scuseria, 
 M. A. Robb, J. R. Cheeseman, G. Scalmani, V. Barone, 
 G. A. Petersson, H. Nakatsuji, X. Li, M. Caricato, A. V. Marenich, 
 J. Bloino, B. G. Janesko, R. Gomperts, B. Mennucci, H. P. Hratchian, 
 J. V. Ortiz, A. F. Izmaylov, J. L. Sonnenberg, D. Williams-Young, 
 F. Ding, F. Lipparini, F. Egidi, J. Goings, B. Peng, A. Petrone, 
 T. Henderson, D. Ranasinghe, V. G. Zakrzewski, J. Gao, N. Rega, 
 G. Zheng, W. Liang, M. Hada, M. Ehara, K. Toyota, R. Fukuda, 
 J. Hasegawa, M. Ishida, T. Nakajima, Y. Honda, O. Kitao, H. Nakai, 
 T. Vreven, K. Throssell, J. A. Montgomery, Jr., J. E. Peralta, 
 F. Ogliaro, M. J. Bearpark, J. J. Heyd, E. N. Brothers, K. N. Kudin, 
 V. N. Staroverov, T. A. Keith, R. Kobayashi, J. Normand, 
 K. Raghavachari, A. P. Rendell, J. C. Burant, S. S. Iyengar, 
 J. Tomasi, M. Cossi, J. M. Millam, M. Klene, C. Adamo, R. Cammi, 
 J. W. Ochterski, R. L. Martin, K. Morokuma, O. Farkas, 
 J. B. Foresman, and D. J. Fox, Gaussian, Inc., Wallingford CT, 2016.
 
 ******************************************
 Gaussian 16:  ES64L-G16RevA.03 25-Dec-2016
                10-Jun-2022 
 ******************************************
 %nprocshared=12
 Will use up to   12 processors via shared memory.
 %chk=checkpoint.chk
 %mem=12GB
 --------------------------------------------------------------------
 # Opt=(TS, CalcFC, noeigentest) B3LYP/Def2TZVP freq=noraman pop=none
 --------------------------------------------------------------------
 1/5=1,10=4,11=1,18=20,26=3,38=1/1,3;
 2/9=110,12=2,17=6,18=5,40=1/2;
 3/5=44,7=101,11=2,25=1,30=1,71=2,74=-5,140=1/1,2,3;
 4//1;
 5/5=2,38=5/2;
 8/6=4,10=90,11=11/1;
 11/6=1,8=1,9=11,15=111,16=1/1,2,10;
 10/6=1,13=1/2;
 7/10=1,18=20,25=1/1,2,3,16;
 1/5=1,10=4,11=1,18=20,26=3/3(2);
 2/9=110/2;
 99//99;
 2/9=110/2;
 3/5=44,7=101,11=2,25=1,30=1,71=1,74=-5/1,2,3;
 4/5=5,16=3,69=1/1;
 5/5=2,38=5/2;
 7//1,2,3,16;
 1/5=1,11=1,18=20,26=3/3(-5);
 2/9=110/2;
 99/9=1/99;
 ------------
 ts_initalOpt
 ------------
 Symbolic Z-matrix:
 Charge =  0 Multiplicity = 1
 6                    -2.11975   0.00031   0.15115 
 6                    -1.24006  -0.00169  -0.94394 
 1                    -1.11724   0.001     1.0729 
 1                    -2.67371  -0.91014   0.35775 
 1                    -2.67304   0.91178   0.35504 
 7                     0.54639   0.00005   0.06663 
 1                    -1.06106   0.90597  -1.50769 
 1                    -1.06133  -0.91163  -1.5041 
 8                     0.10895   0.00104   1.33485 
 6                     1.27648   1.22554  -0.2616 
 1                     2.20615   1.28149   0.3116 
 1                     0.65033   2.07628  -0.0041 
 1                     1.50332   1.24369  -1.32902 
 6                     1.27767  -1.22526  -0.25957 
 1                     0.65303  -2.07615   0.00102 
 1                     2.20829  -1.27857   0.31236 
 1                     1.50295  -1.24579  -1.32729 
 
 Add virtual bond connecting atoms O9         and H3         Dist= 2.37D+00.
 Add virtual bond connecting atoms H3         and C1         Dist= 2.57D+00.

 GradGradGradGradGradGradGradGradGradGradGradGradGradGradGradGradGradGrad
 Berny optimization.
 Initialization pass.
                           ----------------------------
                           !    Initial Parameters    !
                           ! (Angstroms and Degrees)  !
 --------------------------                            --------------------------
 ! Name  Definition              Value          Derivative Info.                !
 --------------------------------------------------------------------------------
 ! R1    R(1,2)                  1.4047         calculate D2E/DX2 analytically  !
 ! R2    R(1,3)                  1.3619         calculate D2E/DX2 analytically  !
 ! R3    R(1,4)                  1.0856         calculate D2E/DX2 analytically  !
 ! R4    R(1,5)                  1.0856         calculate D2E/DX2 analytically  !
 ! R5    R(2,7)                  1.0834         calculate D2E/DX2 analytically  !
 ! R6    R(2,8)                  1.0834         calculate D2E/DX2 analytically  !
 ! R7    R(3,9)                  1.2539         calculate D2E/DX2 analytically  !
 ! R8    R(6,9)                  1.3415         calculate D2E/DX2 analytically  !
 ! R9    R(6,10)                 1.4638         calculate D2E/DX2 analytically  !
 ! R10   R(6,14)                 1.4638         calculate D2E/DX2 analytically  !
 ! R11   R(10,11)                1.0936         calculate D2E/DX2 analytically  !
 ! R12   R(10,12)                1.0873         calculate D2E/DX2 analytically  !
 ! R13   R(10,13)                1.0914         calculate D2E/DX2 analytically  !
 ! R14   R(14,15)                1.0872         calculate D2E/DX2 analytically  !
 ! R15   R(14,16)                1.0936         calculate D2E/DX2 analytically  !
 ! R16   R(14,17)                1.0914         calculate D2E/DX2 analytically  !
 ! A1    A(2,1,3)               93.8217         calculate D2E/DX2 analytically  !
 ! A2    A(2,1,4)              117.8233         calculate D2E/DX2 analytically  !
 ! A3    A(2,1,5)              117.8274         calculate D2E/DX2 analytically  !
 ! A4    A(3,1,4)              104.3154         calculate D2E/DX2 analytically  !
 ! A5    A(3,1,5)              104.3383         calculate D2E/DX2 analytically  !
 ! A6    A(4,1,5)              114.1011         calculate D2E/DX2 analytically  !
 ! A7    A(1,2,7)              120.5284         calculate D2E/DX2 analytically  !
 ! A8    A(1,2,8)              120.505          calculate D2E/DX2 analytically  !
 ! A9    A(7,2,8)              114.0397         calculate D2E/DX2 analytically  !
 ! A10   A(1,3,9)              149.4622         calculate D2E/DX2 analytically  !
 ! A11   A(9,6,10)             111.9626         calculate D2E/DX2 analytically  !
 ! A12   A(9,6,14)             111.974          calculate D2E/DX2 analytically  !
 ! A13   A(10,6,14)            113.6838         calculate D2E/DX2 analytically  !
 ! A14   A(3,9,6)               96.9718         calculate D2E/DX2 analytically  !
 ! A15   A(6,10,11)            110.4452         calculate D2E/DX2 analytically  !
 ! A16   A(6,10,12)            108.3455         calculate D2E/DX2 analytically  !
 ! A17   A(6,10,13)            109.6875         calculate D2E/DX2 analytically  !
 ! A18   A(11,10,12)           108.9903         calculate D2E/DX2 analytically  !
 ! A19   A(11,10,13)           109.5775         calculate D2E/DX2 analytically  !
 ! A20   A(12,10,13)           109.7741         calculate D2E/DX2 analytically  !
 ! A21   A(6,14,15)            108.342          calculate D2E/DX2 analytically  !
 ! A22   A(6,14,16)            110.4502         calculate D2E/DX2 analytically  !
 ! A23   A(6,14,17)            109.6868         calculate D2E/DX2 analytically  !
 ! A24   A(15,14,16)           108.99           calculate D2E/DX2 analytically  !
 ! A25   A(15,14,17)           109.7756         calculate D2E/DX2 analytically  !
 ! A26   A(16,14,17)           109.5756         calculate D2E/DX2 analytically  !
 ! D1    D(3,1,2,7)           -103.202          calculate D2E/DX2 analytically  !
 ! D2    D(3,1,2,8)            103.1168         calculate D2E/DX2 analytically  !
 ! D3    D(4,1,2,7)            148.4094         calculate D2E/DX2 analytically  !
 ! D4    D(4,1,2,8)             -5.2717         calculate D2E/DX2 analytically  !
 ! D5    D(5,1,2,7)              5.214          calculate D2E/DX2 analytically  !
 ! D6    D(5,1,2,8)           -148.4671         calculate D2E/DX2 analytically  !
 ! D7    D(2,1,3,9)              0.0347         calculate D2E/DX2 analytically  !
 ! D8    D(4,1,3,9)            120.0229         calculate D2E/DX2 analytically  !
 ! D9    D(5,1,3,9)           -119.9632         calculate D2E/DX2 analytically  !
 ! D10   D(1,3,9,6)              0.0111         calculate D2E/DX2 analytically  !
 ! D11   D(10,6,9,3)           115.4475         calculate D2E/DX2 analytically  !
 ! D12   D(14,6,9,3)          -115.5195         calculate D2E/DX2 analytically  !
 ! D13   D(9,6,10,11)           66.3231         calculate D2E/DX2 analytically  !
 ! D14   D(9,6,10,12)          -52.9845         calculate D2E/DX2 analytically  !
 ! D15   D(9,6,10,13)         -172.7998         calculate D2E/DX2 analytically  !
 ! D16   D(14,6,10,11)         -61.8077         calculate D2E/DX2 analytically  !
 ! D17   D(14,6,10,12)         178.8846         calculate D2E/DX2 analytically  !
 ! D18   D(14,6,10,13)          59.0694         calculate D2E/DX2 analytically  !
 ! D19   D(9,6,14,15)           52.8897         calculate D2E/DX2 analytically  !
 ! D20   D(9,6,14,16)          -66.4183         calculate D2E/DX2 analytically  !
 ! D21   D(9,6,14,17)          172.7042         calculate D2E/DX2 analytically  !
 ! D22   D(10,6,14,15)        -178.9853         calculate D2E/DX2 analytically  !
 ! D23   D(10,6,14,16)          61.7067         calculate D2E/DX2 analytically  !
 ! D24   D(10,6,14,17)         -59.1708         calculate D2E/DX2 analytically  !
 --------------------------------------------------------------------------------
 Trust Radius=3.00D-01 FncErr=1.00D-07 GrdErr=1.00D-06 EigMax=2.50D+02 EigMin=1.00D-04
 Number of steps in this run=     76 maximum allowed number of steps=    102.
 Search for a saddle point of order  1.
 GradGradGradGradGradGradGradGradGradGradGradGradGradGradGradGradGradGrad

                          Input orientation:                          
 ---------------------------------------------------------------------
 Center     Atomic      Atomic             Coordinates (Angstroms)
 Number     Number       Type             X           Y           Z
 ---------------------------------------------------------------------
      1          6           0       -2.119754    0.000311    0.151153
      2          6           0       -1.240064   -0.001691   -0.943941
      3          1           0       -1.117237    0.000996    1.072904
      4          1           0       -2.673714   -0.910143    0.357746
      5          1           0       -2.673043    0.911780    0.355043
      6          7           0        0.546392    0.000053    0.066628
      7          1           0       -1.061057    0.905967   -1.507690
      8          1           0       -1.061325   -0.911628   -1.504095
      9          8           0        0.108949    0.001036    1.334854
     10          6           0        1.276478    1.225544   -0.261595
     11          1           0        2.206146    1.281493    0.311599
     12          1           0        0.650330    2.076279   -0.004098
     13          1           0        1.503316    1.243690   -1.329023
     14          6           0        1.277672   -1.225261   -0.259568
     15          1           0        0.653026   -2.076150    0.001021
     16          1           0        2.208289   -1.278567    0.312355
     17          1           0        1.502949   -1.245793   -1.327285
 ---------------------------------------------------------------------
                    Distance matrix (angstroms):
                    1          2          3          4          5
     1  C    0.000000
     2  C    1.404667   0.000000
     3  H    1.361861   2.020583   0.000000
     4  H    1.085578   2.138931   1.940166   0.000000
     5  H    1.085576   2.138976   1.940460   1.821925   0.000000
     6  N    2.667486   2.052481   1.944287   3.358912   3.358451
     7  H    2.166290   1.083374   2.735250   3.062478   2.463393
     8  H    2.166045   1.083377   2.734398   2.462976   3.062490
     9  O    2.523542   2.648160   1.253854   3.086778   3.086902
    10  C    3.633999   2.881785   3.001712   4.533074   4.009664
    11  H    4.514486   3.885782   3.641996   5.349620   4.893369
    12  H    3.465128   2.962238   2.931045   4.483181   3.539753
    13  H    4.106525   3.037334   3.765746   4.993172   4.515331
    14  C    3.635000   2.881750   3.002462   4.011711   4.533524
    15  H    3.467353   2.963127   2.932115   3.543166   4.485063
    16  H    4.515913   3.885850   3.643465   4.896095   5.350406
    17  H    4.106401   3.036258   3.765736   4.516249   4.992420
                    6          7          8          9         10
     6  N    0.000000
     7  H    2.425500   0.000000
     8  H    2.425508   1.817599   0.000000
     9  O    1.341549   3.204352   3.203456   0.000000
    10  C    1.463757   2.668136   3.402445   2.326197   0.000000
    11  H    2.111133   3.758384   4.333923   2.661739   1.093602
    12  H    2.080029   2.561106   3.755974   2.528343   1.087252
    13  H    2.100042   2.592680   3.354613   3.253412   1.091415
    14  C    1.463752   3.401411   2.667981   2.326349   2.450806
    15  H    2.079975   3.755970   2.561344   2.527812   3.370288
    16  H    2.111197   4.332825   3.758259   2.662727   2.732812
    17  H    2.100030   3.352125   2.591993   3.253429   2.700832
                   11         12         13         14         15
    11  H    0.000000
    12  H    1.775363   0.000000
    13  H    1.785228   1.782194   0.000000
    14  C    2.733516   3.370310   2.700068   0.000000
    15  H    3.712466   4.152433   3.676051   1.087245   0.000000
    16  H    2.560061   3.712462   3.090775   1.093611   1.775362
    17  H    3.093154   3.676132   2.489484   1.091417   1.782206
                   16         17
    16  H    0.000000
    17  H    1.785217   0.000000
 Stoichiometry    C4H11NO
 Framework group  C1[X(C4H11NO)]
 Deg. of freedom    45
 Full point group                 C1      NOp   1
 Largest Abelian subgroup         C1      NOp   1
 Largest concise Abelian subgroup C1      NOp   1
                         Standard orientation:                         
 ---------------------------------------------------------------------
 Center     Atomic      Atomic             Coordinates (Angstroms)
 Number     Number       Type             X           Y           Z
 ---------------------------------------------------------------------
      1          6           0       -2.119754    0.000311    0.151153
      2          6           0       -1.240064   -0.001691   -0.943941
      3          1           0       -1.117237    0.000996    1.072904
      4          1           0       -2.673714   -0.910143    0.357746
      5          1           0       -2.673043    0.911780    0.355043
      6          7           0        0.546392    0.000053    0.066628
      7          1           0       -1.061057    0.905967   -1.507690
      8          1           0       -1.061325   -0.911628   -1.504095
      9          8           0        0.108949    0.001036    1.334854
     10          6           0        1.276478    1.225544   -0.261595
     11          1           0        2.206146    1.281493    0.311599
     12          1           0        0.650330    2.076279   -0.004098
     13          1           0        1.503316    1.243690   -1.329023
     14          6           0        1.277672   -1.225261   -0.259568
     15          1           0        0.653026   -2.076150    0.001021
     16          1           0        2.208289   -1.278567    0.312355
     17          1           0        1.502949   -1.245793   -1.327285
 ---------------------------------------------------------------------
 Rotational constants (GHZ):           4.8036666           2.5290477           2.4821660
 Standard basis: def2TZVP (5D, 7F)
 There are   282 symmetry adapted cartesian basis functions of A   symmetry.
 There are   252 symmetry adapted basis functions of A   symmetry.
   252 basis functions,   394 primitive gaussians,   282 cartesian basis functions
    25 alpha electrons       25 beta electrons
       nuclear repulsion energy       269.1548133613 Hartrees.
 NAtoms=   17 NActive=   17 NUniq=   17 SFac= 1.00D+00 NAtFMM=   60 NAOKFM=F Big=F
 Integral buffers will be    131072 words long.
 Raffenetti 2 integral format.
 Two-electron integral symmetry is turned on.
 One-electron integrals computed using PRISM.
   1 Symmetry operations used in ECPInt.
 ECPInt:  NShTT=    6105 NPrTT=   17556 LenC2=    6059 LenP2D=   14551.
 LDataN:  DoStor=T MaxTD1= 6 Len=  172
 NBasis=   252 RedAO= T EigKep=  1.86D-04  NBF=   252
 NBsUse=   252 1.00D-06 EigRej= -1.00D+00 NBFU=   252
 ExpMin= 9.52D-02 ExpMax= 2.70D+04 ExpMxC= 9.22D+02 IAcc=3 IRadAn=         5 AccDes= 0.00D+00
 Harris functional with IExCor=  402 and IRadAn=       5 diagonalized for initial guess.
 HarFok:  IExCor=  402 AccDes= 0.00D+00 IRadAn=         5 IDoV= 1 UseB2=F ITyADJ=14
 ICtDFT=  3500011 ScaDFX=  1.000000  1.000000  1.000000  1.000000
 FoFCou: FMM=F IPFlag=           0 FMFlag=      100000 FMFlg1=           0
         NFxFlg=           0 DoJE=T BraDBF=F KetDBF=T FulRan=T
         wScrn=  0.000000 ICntrl=       500 IOpCl=  0 I1Cent=   200000004 NGrid=           0
         NMat0=    1 NMatS0=      1 NMatT0=    0 NMatD0=    1 NMtDS0=    0 NMtDT0=    0
 Petite list used in FoFCou.
 Requested convergence on RMS density matrix=1.00D-08 within 128 cycles.
 Requested convergence on MAX density matrix=1.00D-06.
 Requested convergence on             energy=1.00D-06.
 No special actions if energy rises.
 Integral accuracy reduced to 1.0D-05 until final iterations.
 Initial convergence to 1.0D-05 achieved.  Increase integral accuracy.
 SCF Done:  E(RB3LYP) =  -289.018861712     A.U. after   13 cycles
            NFock= 13  Conv=0.81D-08     -V/T= 2.0052
 DoSCS=F DFT=T ScalE2(SS,OS)=  1.000000  1.000000
 Range of M.O.s used for correlation:     1   252
 NBasis=   252 NAE=    25 NBE=    25 NFC=     0 NFV=     0
 NROrb=    252 NOA=    25 NOB=    25 NVA=   227 NVB=   227

 **** Warning!!: The largest alpha MO coefficient is  0.19520329D+02

   1 Symmetry operations used in ECPInt.
 ECPInt:  NShTT=    6105 NPrTT=   17556 LenC2=    6059 LenP2D=   14551.
 LDataN:  DoStor=T MaxTD1= 7 Len=  274
 Symmetrizing basis deriv contribution to polar:
 IMax=3 JMax=2 DiffMx= 0.00D+00
 G2DrvN: will do    18 centers at a time, making    1 passes.
 Calling FoFCou, ICntrl=  3107 FMM=F I1Cent=   0 AccDes= 0.00D+00.
 End of G2Drv F.D. properties file   721 does not exist.
 End of G2Drv F.D. properties file   722 does not exist.
 End of G2Drv F.D. properties file   788 does not exist.
          IDoAtm=11111111111111111
          Differentiating once with respect to nuclear coordinates.
 Keep R1 ints in memory in canonical form, NReq=521444664.
          There are    54 degrees of freedom in the 1st order CPHF.  IDoFFX=6 NUNeed=     0.
     48 vectors produced by pass  0 Test12= 1.05D-14 1.85D-09 XBig12= 1.43D-01 1.67D-01.
 AX will form    48 AO Fock derivatives at one time.
     48 vectors produced by pass  1 Test12= 1.05D-14 1.85D-09 XBig12= 1.25D-02 4.50D-02.
     48 vectors produced by pass  2 Test12= 1.05D-14 1.85D-09 XBig12= 1.62D-04 2.60D-03.
     48 vectors produced by pass  3 Test12= 1.05D-14 1.85D-09 XBig12= 6.71D-07 1.29D-04.
     48 vectors produced by pass  4 Test12= 1.05D-14 1.85D-09 XBig12= 1.32D-09 6.30D-06.
     34 vectors produced by pass  5 Test12= 1.05D-14 1.85D-09 XBig12= 1.51D-12 2.50D-07.
      7 vectors produced by pass  6 Test12= 1.05D-14 1.85D-09 XBig12= 1.65D-15 7.73D-09.
 InvSVY:  IOpt=1 It=  1 EMax= 5.55D-16
 Solved reduced A of dimension   281 with    54 vectors.
 End of Minotr F.D. properties file   721 does not exist.
 End of Minotr F.D. properties file   722 does not exist.
 End of Minotr F.D. properties file   788 does not exist.
   1 Symmetry operations used in ECPInt.
 ECPInt:  NShTT=    6105 NPrTT=   17556 LenC2=    6059 LenP2D=   14551.
 LDataN:  DoStor=T MaxTD1= 8 Len=  415
 Calling FoFJK, ICntrl=    100147 FMM=F ISym2X=0 I1Cent= 0 IOpClX= 0 NMat=1 NMatS=1 NMatT=0.
 ***** Axes restored to original set *****
 -------------------------------------------------------------------
 Center     Atomic                   Forces (Hartrees/Bohr)
 Number     Number              X              Y              Z
 -------------------------------------------------------------------
      1        6           0.000039716   -0.000003551    0.000027765
      2        6          -0.000026687   -0.000008241   -0.000015273
      3        1          -0.000053969    0.000005020    0.000000228
      4        1          -0.000000900    0.000001361   -0.000002876
      5        1          -0.000000973   -0.000000946   -0.000002410
      6        7           0.000018187    0.000000282    0.000036180
      7        1          -0.000003949    0.000007793    0.000009787
      8        1           0.000002045    0.000000307   -0.000003541
      9        8           0.000012044   -0.000001128   -0.000041741
     10        6           0.000007465    0.000004680   -0.000012124
     11        1           0.000002816   -0.000000540   -0.000001874
     12        1           0.000000326   -0.000000342    0.000001819
     13        1          -0.000001931    0.000000723   -0.000000592
     14        6           0.000006949   -0.000005952    0.000004986
     15        1          -0.000002236    0.000000175   -0.000002714
     16        1          -0.000000247   -0.000001855    0.000001535
     17        1           0.000001345    0.000002214    0.000000844
 -------------------------------------------------------------------
 Cartesian Forces:  Max     0.000053969 RMS     0.000014299
 FormGI is forming the generalized inverse of G from B-inverse, IUseBI=4.

 GradGradGradGradGradGradGradGradGradGradGradGradGradGradGradGradGradGrad
 Berny optimization.
 Internal  Forces:  Max     0.000110568 RMS     0.000019503
 Search for a saddle point.
 Step number   1 out of a maximum of   76
 All quantities printed in internal units (Hartrees-Bohrs-Radians)
 Swapping is turned off.
 Second derivative matrix not updated -- analytic derivatives used.
 ITU=  0
     Eigenvalues ---   -0.06650   0.00322   0.00347   0.00451   0.01148
     Eigenvalues ---    0.02350   0.03204   0.03422   0.03839   0.05709
     Eigenvalues ---    0.06000   0.06045   0.06086   0.06107   0.07487
     Eigenvalues ---    0.08840   0.09150   0.10992   0.12643   0.13194
     Eigenvalues ---    0.13890   0.14861   0.15301   0.16500   0.16657
     Eigenvalues ---    0.17390   0.19927   0.21132   0.30894   0.31810
     Eigenvalues ---    0.32942   0.33466   0.33844   0.33902   0.34655
     Eigenvalues ---    0.34812   0.34954   0.35191   0.35213   0.35517
     Eigenvalues ---    0.36390   0.41932   0.52010   0.70554   0.88390
 Eigenvectors required to have negative eigenvalues:
                          R7        R2        A10       D3        D6
   1                   -0.62573   0.55915   0.25474   0.22568  -0.22537
                          R1        A14       D1        D2        A4
   1                   -0.17672   0.14025   0.12625  -0.12609  -0.09327
 RFO step:  Lambda0=1.943998018D-10 Lambda=-1.45451025D-07.
 Linear search not attempted -- option 19 set.
 Iteration  1 RMS(Cart)=  0.00092431 RMS(Int)=  0.00000034
 Iteration  2 RMS(Cart)=  0.00000052 RMS(Int)=  0.00000002
 Variable       Old X    -DE/DX   Delta X   Delta X   Delta X     New X
                                 (Linear)    (Quad)   (Total)
    R1        2.65444  -0.00001   0.00000  -0.00011  -0.00011   2.65433
    R2        2.57354  -0.00001   0.00000  -0.00041  -0.00041   2.57314
    R3        2.05144  -0.00000   0.00000   0.00001   0.00001   2.05145
    R4        2.05144  -0.00000   0.00000   0.00001   0.00001   2.05145
    R5        2.04728   0.00000   0.00000  -0.00001  -0.00001   2.04727
    R6        2.04729   0.00000   0.00000  -0.00002  -0.00002   2.04727
    R7        2.36944   0.00004   0.00000   0.00021   0.00021   2.36965
    R8        2.53516  -0.00002   0.00000  -0.00014  -0.00014   2.53502
    R9        2.76610   0.00001   0.00000  -0.00001  -0.00001   2.76609
   R10        2.76609   0.00001   0.00000   0.00000   0.00000   2.76609
   R11        2.06661   0.00000   0.00000   0.00003   0.00003   2.06664
   R12        2.05461   0.00000   0.00000  -0.00000  -0.00000   2.05461
   R13        2.06248  -0.00000   0.00000  -0.00000  -0.00000   2.06247
   R14        2.05459   0.00000   0.00000   0.00001   0.00001   2.05461
   R15        2.06663   0.00000   0.00000   0.00001   0.00001   2.06664
   R16        2.06248  -0.00000   0.00000  -0.00001  -0.00001   2.06247
    A1        1.63750   0.00005   0.00000   0.00034   0.00034   1.63784
    A2        2.05640  -0.00000   0.00000   0.00002   0.00002   2.05642
    A3        2.05648  -0.00002   0.00000  -0.00006  -0.00006   2.05642
    A4        1.82065  -0.00001   0.00000   0.00008   0.00008   1.82073
    A5        1.82105  -0.00002   0.00000  -0.00032  -0.00032   1.82073
    A6        1.99144   0.00000   0.00000  -0.00002  -0.00002   1.99141
    A7        2.10362  -0.00002   0.00000  -0.00013  -0.00013   2.10348
    A8        2.10321   0.00001   0.00000   0.00028   0.00028   2.10349
    A9        1.99037   0.00001   0.00000   0.00017   0.00017   1.99054
   A10        2.60861   0.00007   0.00000   0.00009   0.00009   2.60870
   A11        1.95412   0.00002   0.00000   0.00018   0.00018   1.95429
   A12        1.95432  -0.00001   0.00000  -0.00002  -0.00002   1.95429
   A13        1.98416  -0.00001   0.00000   0.00004   0.00004   1.98419
   A14        1.69248   0.00011   0.00000   0.00023   0.00023   1.69271
   A15        1.92763   0.00000   0.00000   0.00008   0.00008   1.92771
   A16        1.89099  -0.00000   0.00000  -0.00002  -0.00002   1.89096
   A17        1.91441  -0.00000   0.00000  -0.00002  -0.00002   1.91439
   A18        1.90224   0.00000   0.00000  -0.00001  -0.00001   1.90223
   A19        1.91249  -0.00000   0.00000  -0.00003  -0.00003   1.91246
   A20        1.91592   0.00000   0.00000   0.00000   0.00000   1.91592
   A21        1.89092  -0.00000   0.00000   0.00004   0.00004   1.89096
   A22        1.92772   0.00000   0.00000  -0.00001  -0.00001   1.92771
   A23        1.91440  -0.00000   0.00000  -0.00000  -0.00000   1.91439
   A24        1.90223   0.00000   0.00000  -0.00001  -0.00001   1.90223
   A25        1.91595   0.00000   0.00000  -0.00002  -0.00002   1.91592
   A26        1.91245   0.00000   0.00000   0.00000   0.00000   1.91246
    D1       -1.80121   0.00001   0.00000   0.00117   0.00117  -1.80005
    D2        1.79973   0.00000   0.00000   0.00032   0.00032   1.80005
    D3        2.59023  -0.00001   0.00000   0.00087   0.00087   2.59110
    D4       -0.09201  -0.00001   0.00000   0.00003   0.00003  -0.09198
    D5        0.09100   0.00001   0.00000   0.00098   0.00098   0.09199
    D6       -2.59124   0.00001   0.00000   0.00014   0.00014  -2.59110
    D7        0.00060  -0.00002   0.00000  -0.00061  -0.00061  -0.00000
    D8        2.09480  -0.00000   0.00000  -0.00046  -0.00046   2.09434
    D9       -2.09375  -0.00001   0.00000  -0.00059  -0.00059  -2.09434
   D10        0.00019  -0.00003   0.00000  -0.00020  -0.00020  -0.00000
   D11        2.01494   0.00000   0.00000   0.00054   0.00054   2.01548
   D12       -2.01620   0.00000   0.00000   0.00072   0.00072  -2.01547
   D13        1.15756  -0.00000   0.00000   0.00087   0.00087   1.15842
   D14       -0.92475  -0.00000   0.00000   0.00085   0.00085  -0.92390
   D15       -3.01592  -0.00000   0.00000   0.00087   0.00087  -3.01506
   D16       -1.07875   0.00001   0.00000   0.00071   0.00071  -1.07804
   D17        3.12213   0.00001   0.00000   0.00070   0.00070   3.12282
   D18        1.03096   0.00001   0.00000   0.00071   0.00071   1.03167
   D19        0.92310   0.00000   0.00000   0.00080   0.00080   0.92390
   D20       -1.15922  -0.00000   0.00000   0.00079   0.00079  -1.15842
   D21        3.01426  -0.00000   0.00000   0.00080   0.00080   3.01505
   D22       -3.12388   0.00001   0.00000   0.00106   0.00106  -3.12282
   D23        1.07698   0.00001   0.00000   0.00105   0.00105   1.07804
   D24       -1.03273   0.00001   0.00000   0.00105   0.00105  -1.03167
         Item               Value     Threshold  Converged?
 Maximum Force            0.000111     0.000450     YES
 RMS     Force            0.000020     0.000300     YES
 Maximum Displacement     0.002509     0.001800     NO 
 RMS     Displacement     0.000924     0.001200     YES
 Predicted change in Energy=-7.262831D-08
 GradGradGradGradGradGradGradGradGradGradGradGradGradGradGradGradGradGrad

                          Input orientation:                          
 ---------------------------------------------------------------------
 Center     Atomic      Atomic             Coordinates (Angstroms)
 Number     Number       Type             X           Y           Z
 ---------------------------------------------------------------------
      1          6           0       -2.119839   -0.000290    0.151200
      2          6           0       -1.240654   -0.001337   -0.944227
      3          1           0       -1.117400    0.001059    1.072719
      4          1           0       -2.673164   -0.911155    0.357698
      5          1           0       -2.673652    0.910761    0.355563
      6          7           0        0.546614    0.000321    0.066648
      7          1           0       -1.061918    0.906898   -1.507122
      8          1           0       -1.061433   -0.910791   -1.504997
      9          8           0        0.108893    0.001695    1.334699
     10          6           0        1.276964    1.225544   -0.261969
     11          1           0        2.207008    1.281217    0.310675
     12          1           0        0.651252    2.076490   -0.004115
     13          1           0        1.503198    1.243606   -1.329525
     14          6           0        1.277609   -1.225287   -0.259089
     15          1           0        0.652343   -2.075952    0.000767
     16          1           0        2.207681   -1.279123    0.313683
     17          1           0        1.503850   -1.245741   -1.326600
 ---------------------------------------------------------------------
                    Distance matrix (angstroms):
                    1          2          3          4          5
     1  C    0.000000
     2  C    1.404610   0.000000
     3  H    1.361647   2.020710   0.000000
     4  H    1.085581   2.138893   1.940050   0.000000
     5  H    1.085581   2.138893   1.940048   1.821917   0.000000
     6  N    2.667793   2.053339   1.944511   3.358939   3.358941
     7  H    2.166153   1.083369   2.734813   3.062513   2.463188
     8  H    2.166154   1.083369   2.734816   2.463191   3.062513
     9  O    2.523474   2.648546   1.253966   3.086693   3.086692
    10  C    3.634783   2.882554   3.002288   4.533540   4.010960
    11  H    4.515450   3.886656   3.642966   5.350213   4.894904
    12  H    3.466422   2.963188   2.931742   4.484270   3.541649
    13  H    4.106851   3.037608   3.765931   4.993167   4.516236
    14  C    3.634777   2.882554   3.002283   4.010949   4.533537
    15  H    3.466410   2.963187   2.931731   3.541631   4.484258
    16  H    4.515445   3.886655   3.642961   4.894894   5.350211
    17  H    4.106844   3.037607   3.765926   4.516222   4.993165
                    6          7          8          9         10
     6  N    0.000000
     7  H    2.426110   0.000000
     8  H    2.426109   1.817690   0.000000
     9  O    1.341475   3.204082   3.204086   0.000000
    10  C    1.463752   2.668766   3.402520   2.326273   0.000000
    11  H    2.111196   3.759039   4.334081   2.662308   1.093618
    12  H    2.080008   2.561625   3.756298   2.528112   1.087250
    13  H    2.100026   2.593209   3.354035   3.253386   1.091414
    14  C    1.463753   3.402526   2.668765   2.326272   2.450832
    15  H    2.080007   3.756303   2.561631   2.528108   3.370320
    16  H    2.111196   4.334085   3.759038   2.662307   2.733307
    17  H    2.100027   3.354044   2.593202   3.253385   2.700401
                   11         12         13         14         15
    11  H    0.000000
    12  H    1.775367   0.000000
    13  H    1.785221   1.782195   0.000000
    14  C    2.733308   3.370321   2.700399   0.000000
    15  H    3.712628   4.152445   3.676016   1.087250   0.000000
    16  H    2.560342   3.712628   3.092020   1.093618   1.775367
    17  H    3.092025   3.676018   2.489349   1.091414   1.782195
                   16         17
    16  H    0.000000
    17  H    1.785223   0.000000
 Stoichiometry    C4H11NO
 Framework group  C1[X(C4H11NO)]
 Deg. of freedom    45
 Full point group                 C1      NOp   1
 Largest Abelian subgroup         C1      NOp   1
 Largest concise Abelian subgroup C1      NOp   1
                         Standard orientation:                         
 ---------------------------------------------------------------------
 Center     Atomic      Atomic             Coordinates (Angstroms)
 Number     Number       Type             X           Y           Z
 ---------------------------------------------------------------------
      1          6           0       -2.119820   -0.000001    0.151407
      2          6           0       -1.240726    0.000009   -0.944094
      3          1           0       -1.117306   -0.000006    1.072844
      4          1           0       -2.673371   -0.910962    0.356876
      5          1           0       -2.673374    0.910955    0.356890
      6          7           0        0.546626   -0.000000    0.066636
      7          1           0       -1.061794    0.908861   -1.505931
      8          1           0       -1.061792   -0.908830   -1.505950
      9          8           0        0.109010   -0.000005    1.334724
     10          6           0        1.277275    1.225415   -0.260596
     11          1           0        2.207380    1.280165    0.312036
     12          1           0        0.651810    2.076223   -0.001687
     13          1           0        1.503426    1.244676   -1.328148
     14          6           0        1.277267   -1.225417   -0.260607
     15          1           0        0.651797   -2.076222   -0.001703
     16          1           0        2.207372   -1.280177    0.312024
     17          1           0        1.503416   -1.244673   -1.328160
 ---------------------------------------------------------------------
 Rotational constants (GHZ):           4.8036063           2.5284776           2.4816002
 Standard basis: def2TZVP (5D, 7F)
 There are   282 symmetry adapted cartesian basis functions of A   symmetry.
 There are   252 symmetry adapted basis functions of A   symmetry.
   252 basis functions,   394 primitive gaussians,   282 cartesian basis functions
    25 alpha electrons       25 beta electrons
       nuclear repulsion energy       269.1407917141 Hartrees.
 NAtoms=   17 NActive=   17 NUniq=   17 SFac= 1.00D+00 NAtFMM=   60 NAOKFM=F Big=F
 Integral buffers will be    131072 words long.
 Raffenetti 2 integral format.
 Two-electron integral symmetry is turned on.
 One-electron integrals computed using PRISM.
   1 Symmetry operations used in ECPInt.
 ECPInt:  NShTT=    6105 NPrTT=   17556 LenC2=    6059 LenP2D=   14552.
 LDataN:  DoStor=T MaxTD1= 6 Len=  172
 NBasis=   252 RedAO= T EigKep=  1.86D-04  NBF=   252
 NBsUse=   252 1.00D-06 EigRej= -1.00D+00 NBFU=   252
 Initial guess from the checkpoint file:  "checkpoint.chk"
 B after Tr=    -0.000000    0.000000   -0.000000
         Rot=    1.000000   -0.000519   -0.000040    0.000125 Ang=  -0.06 deg.
 Requested convergence on RMS density matrix=1.00D-08 within 128 cycles.
 Requested convergence on MAX density matrix=1.00D-06.
 Requested convergence on             energy=1.00D-06.
 No special actions if energy rises.
 SCF Done:  E(RB3LYP) =  -289.018861788     A.U. after    7 cycles
            NFock=  7  Conv=0.59D-08     -V/T= 2.0052
   1 Symmetry operations used in ECPInt.
 ECPInt:  NShTT=    6105 NPrTT=   17556 LenC2=    6059 LenP2D=   14552.
 LDataN:  DoStor=T MaxTD1= 7 Len=  274
 Calling FoFJK, ICntrl=      2127 FMM=F ISym2X=0 I1Cent= 0 IOpClX= 0 NMat=1 NMatS=1 NMatT=0.
 ***** Axes restored to original set *****
 -------------------------------------------------------------------
 Center     Atomic                   Forces (Hartrees/Bohr)
 Number     Number              X              Y              Z
 -------------------------------------------------------------------
      1        6           0.000000115   -0.000000029    0.000000683
      2        6          -0.000000221    0.000000019    0.000000370
      3        1           0.000000397    0.000000047    0.000000399
      4        1           0.000000179    0.000000009    0.000000890
      5        1           0.000000146    0.000000024    0.000000916
      6        7           0.000000114    0.000000017   -0.000000407
      7        1          -0.000000410   -0.000000074    0.000000378
      8        1          -0.000000477    0.000000029    0.000000431
      9        8           0.000000524    0.000000022    0.000000106
     10        6           0.000000113    0.000000049   -0.000000394
     11        1           0.000000108   -0.000000053   -0.000000718
     12        1           0.000000005   -0.000000042   -0.000000223
     13        1          -0.000000431    0.000000026   -0.000000540
     14        6          -0.000000182    0.000000044   -0.000000487
     15        1           0.000000129   -0.000000064   -0.000000222
     16        1           0.000000221   -0.000000061   -0.000000771
     17        1          -0.000000332    0.000000039   -0.000000411
 -------------------------------------------------------------------
 Cartesian Forces:  Max     0.000000916 RMS     0.000000353

 GradGradGradGradGradGradGradGradGradGradGradGradGradGradGradGradGradGrad
 Berny optimization.
 FormGI is forming the generalized inverse of G from B-inverse, IUseBI=4.
 Internal  Forces:  Max     0.000000228 RMS     0.000000071
 Search for a saddle point.
 Step number   2 out of a maximum of   76
 All quantities printed in internal units (Hartrees-Bohrs-Radians)
 Swapping is turned off.
 Update second derivatives using D2CorX and points    1    2
 ITU=  0  0
     Eigenvalues ---   -0.06650   0.00322   0.00346   0.00451   0.01150
     Eigenvalues ---    0.02350   0.03204   0.03422   0.03839   0.05709
     Eigenvalues ---    0.06000   0.06045   0.06086   0.06107   0.07487
     Eigenvalues ---    0.08840   0.09150   0.10992   0.12643   0.13194
     Eigenvalues ---    0.13890   0.14861   0.15301   0.16500   0.16657
     Eigenvalues ---    0.17391   0.19927   0.21132   0.30894   0.31810
     Eigenvalues ---    0.32942   0.33466   0.33844   0.33902   0.34655
     Eigenvalues ---    0.34812   0.34954   0.35191   0.35213   0.35517
     Eigenvalues ---    0.36390   0.41932   0.52011   0.70554   0.88390
 Eigenvectors required to have negative eigenvalues:
                          R7        R2        A10       D3        D6
   1                    0.62574  -0.55916  -0.25474  -0.22565   0.22539
                          R1        A14       D1        D2        A4
   1                    0.17672  -0.14024  -0.12622   0.12611   0.09328
 RFO step:  Lambda0=2.286365541D-14 Lambda= 0.00000000D+00.
 Linear search not attempted -- option 19 set.
 Iteration  1 RMS(Cart)=  0.00000442 RMS(Int)=  0.00000000
 Iteration  2 RMS(Cart)=  0.00000000 RMS(Int)=  0.00000000
 Variable       Old X    -DE/DX   Delta X   Delta X   Delta X     New X
                                 (Linear)    (Quad)   (Total)
    R1        2.65433  -0.00000   0.00000  -0.00000  -0.00000   2.65433
    R2        2.57314  -0.00000   0.00000   0.00000   0.00000   2.57314
    R3        2.05145  -0.00000   0.00000  -0.00000  -0.00000   2.05145
    R4        2.05145   0.00000   0.00000   0.00000   0.00000   2.05145
    R5        2.04727  -0.00000   0.00000  -0.00000  -0.00000   2.04727
    R6        2.04727  -0.00000   0.00000  -0.00000  -0.00000   2.04727
    R7        2.36965   0.00000   0.00000  -0.00000  -0.00000   2.36965
    R8        2.53502   0.00000   0.00000   0.00000   0.00000   2.53502
    R9        2.76609  -0.00000   0.00000   0.00000   0.00000   2.76609
   R10        2.76609   0.00000   0.00000  -0.00000  -0.00000   2.76609
   R11        2.06664  -0.00000   0.00000  -0.00000  -0.00000   2.06664
   R12        2.05461  -0.00000   0.00000   0.00000   0.00000   2.05461
   R13        2.06247   0.00000   0.00000   0.00000   0.00000   2.06247
   R14        2.05461   0.00000   0.00000   0.00000   0.00000   2.05461
   R15        2.06664   0.00000   0.00000   0.00000   0.00000   2.06664
   R16        2.06247  -0.00000   0.00000  -0.00000  -0.00000   2.06247
    A1        1.63784  -0.00000   0.00000  -0.00000  -0.00000   1.63784
    A2        2.05642  -0.00000   0.00000  -0.00000  -0.00000   2.05642
    A3        2.05642   0.00000   0.00000   0.00000   0.00000   2.05642
    A4        1.82073   0.00000   0.00000  -0.00000  -0.00000   1.82073
    A5        1.82073   0.00000   0.00000   0.00000   0.00000   1.82073
    A6        1.99141  -0.00000   0.00000  -0.00000  -0.00000   1.99141
    A7        2.10348   0.00000   0.00000   0.00000   0.00000   2.10348
    A8        2.10349  -0.00000   0.00000  -0.00000  -0.00000   2.10348
    A9        1.99054   0.00000   0.00000   0.00000   0.00000   1.99054
   A10        2.60870  -0.00000   0.00000  -0.00000  -0.00000   2.60870
   A11        1.95429  -0.00000   0.00000  -0.00000  -0.00000   1.95429
   A12        1.95429   0.00000   0.00000   0.00000   0.00000   1.95429
   A13        1.98419   0.00000   0.00000   0.00000   0.00000   1.98419
   A14        1.69271  -0.00000   0.00000  -0.00000  -0.00000   1.69271
   A15        1.92771  -0.00000   0.00000  -0.00000  -0.00000   1.92771
   A16        1.89096  -0.00000   0.00000  -0.00000  -0.00000   1.89096
   A17        1.91439   0.00000   0.00000   0.00000   0.00000   1.91439
   A18        1.90223   0.00000   0.00000   0.00000   0.00000   1.90223
   A19        1.91246   0.00000   0.00000   0.00000   0.00000   1.91246
   A20        1.91592   0.00000   0.00000  -0.00000  -0.00000   1.91592
   A21        1.89096   0.00000   0.00000   0.00000   0.00000   1.89096
   A22        1.92771   0.00000   0.00000   0.00000   0.00000   1.92771
   A23        1.91439  -0.00000   0.00000  -0.00000  -0.00000   1.91439
   A24        1.90223  -0.00000   0.00000  -0.00000  -0.00000   1.90223
   A25        1.91592  -0.00000   0.00000   0.00000   0.00000   1.91592
   A26        1.91246  -0.00000   0.00000  -0.00000  -0.00000   1.91246
    D1       -1.80005   0.00000   0.00000  -0.00000  -0.00000  -1.80005
    D2        1.80005  -0.00000   0.00000  -0.00000  -0.00000   1.80005
    D3        2.59110   0.00000   0.00000  -0.00000  -0.00000   2.59110
    D4       -0.09198   0.00000   0.00000  -0.00000  -0.00000  -0.09198
    D5        0.09199  -0.00000   0.00000  -0.00000  -0.00000   0.09198
    D6       -2.59110  -0.00000   0.00000  -0.00000  -0.00000  -2.59110
    D7       -0.00000   0.00000   0.00000   0.00000   0.00000  -0.00000
    D8        2.09434   0.00000   0.00000   0.00000   0.00000   2.09434
    D9       -2.09434   0.00000   0.00000   0.00000   0.00000  -2.09434
   D10       -0.00000   0.00000   0.00000   0.00000   0.00000   0.00000
   D11        2.01548  -0.00000   0.00000  -0.00000  -0.00000   2.01548
   D12       -2.01547  -0.00000   0.00000  -0.00000  -0.00000  -2.01548
   D13        1.15842   0.00000   0.00000  -0.00000  -0.00000   1.15842
   D14       -0.92390   0.00000   0.00000  -0.00000  -0.00000  -0.92390
   D15       -3.01506   0.00000   0.00000   0.00000   0.00000  -3.01506
   D16       -1.07804  -0.00000   0.00000  -0.00000  -0.00000  -1.07804
   D17        3.12282  -0.00000   0.00000   0.00000   0.00000   3.12282
   D18        1.03167   0.00000   0.00000   0.00000   0.00000   1.03167
   D19        0.92390   0.00000   0.00000   0.00000   0.00000   0.92390
   D20       -1.15842   0.00000   0.00000   0.00000   0.00000  -1.15842
   D21        3.01505   0.00000   0.00000   0.00000   0.00000   3.01506
   D22       -3.12282  -0.00000   0.00000   0.00000   0.00000  -3.12282
   D23        1.07804  -0.00000   0.00000   0.00000   0.00000   1.07804
   D24       -1.03167   0.00000   0.00000   0.00000   0.00000  -1.03167
         Item               Value     Threshold  Converged?
 Maximum Force            0.000000     0.000450     YES
 RMS     Force            0.000000     0.000300     YES
 Maximum Displacement     0.000011     0.001800     YES
 RMS     Displacement     0.000004     0.001200     YES
 Predicted change in Energy=-1.432076D-12
 Optimization completed.
    -- Stationary point found.
                           ----------------------------
                           !   Optimized Parameters   !
                           ! (Angstroms and Degrees)  !
 --------------------------                            --------------------------
 ! Name  Definition              Value          Derivative Info.                !
 --------------------------------------------------------------------------------
 ! R1    R(1,2)                  1.4046         -DE/DX =    0.0                 !
 ! R2    R(1,3)                  1.3616         -DE/DX =    0.0                 !
 ! R3    R(1,4)                  1.0856         -DE/DX =    0.0                 !
 ! R4    R(1,5)                  1.0856         -DE/DX =    0.0                 !
 ! R5    R(2,7)                  1.0834         -DE/DX =    0.0                 !
 ! R6    R(2,8)                  1.0834         -DE/DX =    0.0                 !
 ! R7    R(3,9)                  1.254          -DE/DX =    0.0                 !
 ! R8    R(6,9)                  1.3415         -DE/DX =    0.0                 !
 ! R9    R(6,10)                 1.4638         -DE/DX =    0.0                 !
 ! R10   R(6,14)                 1.4638         -DE/DX =    0.0                 !
 ! R11   R(10,11)                1.0936         -DE/DX =    0.0                 !
 ! R12   R(10,12)                1.0873         -DE/DX =    0.0                 !
 ! R13   R(10,13)                1.0914         -DE/DX =    0.0                 !
 ! R14   R(14,15)                1.0873         -DE/DX =    0.0                 !
 ! R15   R(14,16)                1.0936         -DE/DX =    0.0                 !
 ! R16   R(14,17)                1.0914         -DE/DX =    0.0                 !
 ! A1    A(2,1,3)               93.8413         -DE/DX =    0.0                 !
 ! A2    A(2,1,4)              117.8242         -DE/DX =    0.0                 !
 ! A3    A(2,1,5)              117.8241         -DE/DX =    0.0                 !
 ! A4    A(3,1,4)              104.3202         -DE/DX =    0.0                 !
 ! A5    A(3,1,5)              104.3201         -DE/DX =    0.0                 !
 ! A6    A(4,1,5)              114.0997         -DE/DX =    0.0                 !
 ! A7    A(1,2,7)              120.5207         -DE/DX =    0.0                 !
 ! A8    A(1,2,8)              120.5209         -DE/DX =    0.0                 !
 ! A9    A(7,2,8)              114.0496         -DE/DX =    0.0                 !
 ! A10   A(1,3,9)              149.4675         -DE/DX =    0.0                 !
 ! A11   A(9,6,10)             111.9728         -DE/DX =    0.0                 !
 ! A12   A(9,6,14)             111.9727         -DE/DX =    0.0                 !
 ! A13   A(10,6,14)            113.6859         -DE/DX =    0.0                 !
 ! A14   A(3,9,6)               96.9851         -DE/DX =    0.0                 !
 ! A15   A(6,10,11)            110.4496         -DE/DX =    0.0                 !
 ! A16   A(6,10,12)            108.3442         -DE/DX =    0.0                 !
 ! A17   A(6,10,13)            109.6866         -DE/DX =    0.0                 !
 ! A18   A(11,10,12)           108.9895         -DE/DX =    0.0                 !
 ! A19   A(11,10,13)           109.5758         -DE/DX =    0.0                 !
 ! A20   A(12,10,13)           109.7744         -DE/DX =    0.0                 !
 ! A21   A(6,14,15)            108.3441         -DE/DX =    0.0                 !
 ! A22   A(6,14,16)            110.4496         -DE/DX =    0.0                 !
 ! A23   A(6,14,17)            109.6866         -DE/DX =    0.0                 !
 ! A24   A(15,14,16)           108.9896         -DE/DX =    0.0                 !
 ! A25   A(15,14,17)           109.7744         -DE/DX =    0.0                 !
 ! A26   A(16,14,17)           109.5759         -DE/DX =    0.0                 !
 ! D1    D(3,1,2,7)           -103.1351         -DE/DX =    0.0                 !
 ! D2    D(3,1,2,8)            103.1354         -DE/DX =    0.0                 !
 ! D3    D(4,1,2,7)            148.4593         -DE/DX =    0.0                 !
 ! D4    D(4,1,2,8)             -5.2702         -DE/DX =    0.0                 !
 ! D5    D(5,1,2,7)              5.2704         -DE/DX =    0.0                 !
 ! D6    D(5,1,2,8)           -148.4591         -DE/DX =    0.0                 !
 ! D7    D(2,1,3,9)             -0.0001         -DE/DX =    0.0                 !
 ! D8    D(4,1,3,9)            119.9968         -DE/DX =    0.0                 !
 ! D9    D(5,1,3,9)           -119.9968         -DE/DX =    0.0                 !
 ! D10   D(1,3,9,6)             -0.0002         -DE/DX =    0.0                 !
 ! D11   D(10,6,9,3)           115.4785         -DE/DX =    0.0                 !
 ! D12   D(14,6,9,3)          -115.478          -DE/DX =    0.0                 !
 ! D13   D(9,6,10,11)           66.3727         -DE/DX =    0.0                 !
 ! D14   D(9,6,10,12)          -52.9358         -DE/DX =    0.0                 !
 ! D15   D(9,6,10,13)         -172.7501         -DE/DX =    0.0                 !
 ! D16   D(14,6,10,11)         -61.767          -DE/DX =    0.0                 !
 ! D17   D(14,6,10,12)         178.9244         -DE/DX =    0.0                 !
 ! D18   D(14,6,10,13)          59.1102         -DE/DX =    0.0                 !
 ! D19   D(9,6,14,15)           52.9357         -DE/DX =    0.0                 !
 ! D20   D(9,6,14,16)          -66.3728         -DE/DX =    0.0                 !
 ! D21   D(9,6,14,17)          172.7499         -DE/DX =    0.0                 !
 ! D22   D(10,6,14,15)        -178.9246         -DE/DX =    0.0                 !
 ! D23   D(10,6,14,16)          61.767          -DE/DX =    0.0                 !
 ! D24   D(10,6,14,17)         -59.1104         -DE/DX =    0.0                 !
 --------------------------------------------------------------------------------
 GradGradGradGradGradGradGradGradGradGradGradGradGradGradGradGradGradGrad

                          Input orientation:                          
 ---------------------------------------------------------------------
 Center     Atomic      Atomic             Coordinates (Angstroms)
 Number     Number       Type             X           Y           Z
 ---------------------------------------------------------------------
      1          6           0       -2.119839   -0.000290    0.151200
      2          6           0       -1.240654   -0.001337   -0.944227
      3          1           0       -1.117400    0.001059    1.072719
      4          1           0       -2.673164   -0.911155    0.357698
      5          1           0       -2.673652    0.910761    0.355563
      6          7           0        0.546614    0.000321    0.066648
      7          1           0       -1.061918    0.906898   -1.507122
      8          1           0       -1.061433   -0.910791   -1.504997
      9          8           0        0.108893    0.001695    1.334699
     10          6           0        1.276964    1.225544   -0.261969
     11          1           0        2.207008    1.281217    0.310675
     12          1           0        0.651252    2.076490   -0.004115
     13          1           0        1.503198    1.243606   -1.329525
     14          6           0        1.277609   -1.225287   -0.259089
     15          1           0        0.652343   -2.075952    0.000767
     16          1           0        2.207681   -1.279123    0.313683
     17          1           0        1.503850   -1.245741   -1.326600
 ---------------------------------------------------------------------
                    Distance matrix (angstroms):
                    1          2          3          4          5
     1  C    0.000000
     2  C    1.404610   0.000000
     3  H    1.361647   2.020710   0.000000
     4  H    1.085581   2.138893   1.940050   0.000000
     5  H    1.085581   2.138893   1.940048   1.821917   0.000000
     6  N    2.667793   2.053339   1.944511   3.358939   3.358941
     7  H    2.166153   1.083369   2.734813   3.062513   2.463188
     8  H    2.166154   1.083369   2.734816   2.463191   3.062513
     9  O    2.523474   2.648546   1.253966   3.086693   3.086692
    10  C    3.634783   2.882554   3.002288   4.533540   4.010960
    11  H    4.515450   3.886656   3.642966   5.350213   4.894904
    12  H    3.466422   2.963188   2.931742   4.484270   3.541649
    13  H    4.106851   3.037608   3.765931   4.993167   4.516236
    14  C    3.634777   2.882554   3.002283   4.010949   4.533537
    15  H    3.466410   2.963187   2.931731   3.541631   4.484258
    16  H    4.515445   3.886655   3.642961   4.894894   5.350211
    17  H    4.106844   3.037607   3.765926   4.516222   4.993165
                    6          7          8          9         10
     6  N    0.000000
     7  H    2.426110   0.000000
     8  H    2.426109   1.817690   0.000000
     9  O    1.341475   3.204082   3.204086   0.000000
    10  C    1.463752   2.668766   3.402520   2.326273   0.000000
    11  H    2.111196   3.759039   4.334081   2.662308   1.093618
    12  H    2.080008   2.561625   3.756298   2.528112   1.087250
    13  H    2.100026   2.593209   3.354035   3.253386   1.091414
    14  C    1.463753   3.402526   2.668765   2.326272   2.450832
    15  H    2.080007   3.756303   2.561631   2.528108   3.370320
    16  H    2.111196   4.334085   3.759038   2.662307   2.733307
    17  H    2.100027   3.354044   2.593202   3.253385   2.700401
                   11         12         13         14         15
    11  H    0.000000
    12  H    1.775367   0.000000
    13  H    1.785221   1.782195   0.000000
    14  C    2.733308   3.370321   2.700399   0.000000
    15  H    3.712628   4.152445   3.676016   1.087250   0.000000
    16  H    2.560342   3.712628   3.092020   1.093618   1.775367
    17  H    3.092025   3.676018   2.489349   1.091414   1.782195
                   16         17
    16  H    0.000000
    17  H    1.785223   0.000000
 Stoichiometry    C4H11NO
 Framework group  C1[X(C4H11NO)]
 Deg. of freedom    45
 Full point group                 C1      NOp   1
 Largest Abelian subgroup         C1      NOp   1
 Largest concise Abelian subgroup C1      NOp   1
                         Standard orientation:                         
 ---------------------------------------------------------------------
 Center     Atomic      Atomic             Coordinates (Angstroms)
 Number     Number       Type             X           Y           Z
 ---------------------------------------------------------------------
      1          6           0       -2.119820   -0.000001    0.151407
      2          6           0       -1.240726    0.000009   -0.944094
      3          1           0       -1.117306   -0.000006    1.072844
      4          1           0       -2.673371   -0.910962    0.356876
      5          1           0       -2.673374    0.910955    0.356890
      6          7           0        0.546626   -0.000000    0.066636
      7          1           0       -1.061794    0.908861   -1.505931
      8          1           0       -1.061792   -0.908830   -1.505950
      9          8           0        0.109010   -0.000005    1.334724
     10          6           0        1.277275    1.225415   -0.260596
     11          1           0        2.207380    1.280165    0.312036
     12          1           0        0.651810    2.076223   -0.001687
     13          1           0        1.503426    1.244676   -1.328148
     14          6           0        1.277267   -1.225417   -0.260607
     15          1           0        0.651797   -2.076222   -0.001703
     16          1           0        2.207372   -1.280177    0.312024
     17          1           0        1.503416   -1.244673   -1.328160
 ---------------------------------------------------------------------
 Rotational constants (GHZ):           4.8036063           2.5284776           2.4816002
 1\1\GINC-BHC0029\FTS\RB3LYP\def2TZVP\C4H11N1O1\DHANAWAY\10-Jun-2022\0\
 \# Opt=(TS, CalcFC, noeigentest) B3LYP/Def2TZVP freq=noraman pop=none\
 \ts_initalOpt\\0,1\C,-2.1198389312,-0.0002895823,0.1512004034\C,-1.240
 654066,-0.0013371354,-0.944227451\H,-1.1174001171,0.0010594203,1.07271
 89515\H,-2.6731642494,-0.9111550619,0.3576977207\H,-2.6736516803,0.910
 7609471,0.355563389\N,0.546614148,0.0003210482,0.0666479769\H,-1.06191
 78306,0.9068982497,-1.507121797\H,-1.0614327004,-0.910790561,-1.504996
 7808\O,0.108893481,0.0016950969,1.3346991945\C,1.2769642612,1.22554390
 91,-0.2619687724\H,2.2070075112,1.2812169564,0.3106745576\H,0.65125202
 42,2.0764898187,-0.0041153015\H,1.5031983704,1.2436060606,-1.329524757
 1\C,1.2776086263,-1.2252867854,-0.2590887652\H,0.6523429063,-2.0759518
 009,0.0007667752\H,2.2076808281,-1.2791233569,0.3136827703\H,1.5038504
 185,-1.2457412232,-1.3266001143\\Version=ES64L-G16RevA.03\HF=-289.0188
 618\RMSD=5.884e-09\RMSF=3.532e-07\Dipole=0.6331911,-0.0020194,-1.00027
 3\PG=C01 [X(C4H11N1O1)]\\@


 ... FOR AFTERWARDS A MAN FINDS PLEASURE IN HIS PAINS,
 WHEN HE HAS SUFFERED LONG AND WANDERED FAR.

                                    -- HOMER
 Job cpu time:       0 days  0 hours 59 minutes  9.4 seconds.
 Elapsed time:       0 days  0 hours  4 minutes 56.5 seconds.
 File lengths (MBytes):  RWF=     95 Int=      0 D2E=      0 Chk=     32 Scr=      1
 Normal termination of Gaussian 16 at Fri Jun 10 10:35:21 2022.
 Link1:  Proceeding to internal job step number  2.
 --------------------------------------------------------------------
 #N Geom=AllCheck Guess=TCheck SCRF=Check GenChk RB3LYP/def2TZVP Freq
 --------------------------------------------------------------------
 1/5=1,10=4,11=1,29=7,30=1,38=1,40=1/1,3;
 2/12=2,40=1/2;
 3/5=44,7=101,11=2,14=-4,25=1,30=1,70=2,71=2,74=-5,116=1,140=1/1,2,3;
 4/5=101/1;
 5/5=2,38=6,98=1/2;
 8/6=4,10=90,11=11/1;
 11/6=1,8=1,9=11,15=111,16=1/1,2,10;
 10/6=1/2;
 7/8=1,10=1,25=1/1,2,3,16;
 1/5=1,10=4,11=1,30=1/3;
 99//99;
 Structure from the checkpoint file:  "checkpoint.chk"
 ------------
 ts_initalOpt
 ------------
 Charge =  0 Multiplicity = 1
 Redundant internal coordinates found in file.  (old form).
 C,0,-2.1198389312,-0.0002895823,0.1512004034
 C,0,-1.240654066,-0.0013371354,-0.944227451
 H,0,-1.1174001171,0.0010594203,1.0727189515
 H,0,-2.6731642494,-0.9111550619,0.3576977207
 H,0,-2.6736516803,0.9107609471,0.355563389
 N,0,0.546614148,0.0003210482,0.0666479769
 H,0,-1.0619178306,0.9068982497,-1.507121797
 H,0,-1.0614327004,-0.910790561,-1.5049967808
 O,0,0.108893481,0.0016950969,1.3346991945
 C,0,1.2769642612,1.2255439091,-0.2619687724
 H,0,2.2070075112,1.2812169564,0.3106745576
 H,0,0.6512520242,2.0764898187,-0.0041153015
 H,0,1.5031983704,1.2436060606,-1.3295247571
 C,0,1.2776086263,-1.2252867854,-0.2590887652
 H,0,0.6523429063,-2.0759518009,0.0007667752
 H,0,2.2076808281,-1.2791233569,0.3136827703
 H,0,1.5038504185,-1.2457412232,-1.3266001143
 Recover connectivity data from disk.

 GradGradGradGradGradGradGradGradGradGradGradGradGradGradGradGradGradGrad
 Berny optimization.
 Initialization pass.
                           ----------------------------
                           !    Initial Parameters    !
                           ! (Angstroms and Degrees)  !
 --------------------------                            --------------------------
 ! Name  Definition              Value          Derivative Info.                !
 --------------------------------------------------------------------------------
 ! R1    R(1,2)                  1.4046         calculate D2E/DX2 analytically  !
 ! R2    R(1,3)                  1.3616         calculate D2E/DX2 analytically  !
 ! R3    R(1,4)                  1.0856         calculate D2E/DX2 analytically  !
 ! R4    R(1,5)                  1.0856         calculate D2E/DX2 analytically  !
 ! R5    R(2,7)                  1.0834         calculate D2E/DX2 analytically  !
 ! R6    R(2,8)                  1.0834         calculate D2E/DX2 analytically  !
 ! R7    R(3,9)                  1.254          calculate D2E/DX2 analytically  !
 ! R8    R(6,9)                  1.3415         calculate D2E/DX2 analytically  !
 ! R9    R(6,10)                 1.4638         calculate D2E/DX2 analytically  !
 ! R10   R(6,14)                 1.4638         calculate D2E/DX2 analytically  !
 ! R11   R(10,11)                1.0936         calculate D2E/DX2 analytically  !
 ! R12   R(10,12)                1.0873         calculate D2E/DX2 analytically  !
 ! R13   R(10,13)                1.0914         calculate D2E/DX2 analytically  !
 ! R14   R(14,15)                1.0873         calculate D2E/DX2 analytically  !
 ! R15   R(14,16)                1.0936         calculate D2E/DX2 analytically  !
 ! R16   R(14,17)                1.0914         calculate D2E/DX2 analytically  !
 ! A1    A(2,1,3)               93.8413         calculate D2E/DX2 analytically  !
 ! A2    A(2,1,4)              117.8242         calculate D2E/DX2 analytically  !
 ! A3    A(2,1,5)              117.8241         calculate D2E/DX2 analytically  !
 ! A4    A(3,1,4)              104.3202         calculate D2E/DX2 analytically  !
 ! A5    A(3,1,5)              104.3201         calculate D2E/DX2 analytically  !
 ! A6    A(4,1,5)              114.0997         calculate D2E/DX2 analytically  !
 ! A7    A(1,2,7)              120.5207         calculate D2E/DX2 analytically  !
 ! A8    A(1,2,8)              120.5209         calculate D2E/DX2 analytically  !
 ! A9    A(7,2,8)              114.0496         calculate D2E/DX2 analytically  !
 ! A10   A(1,3,9)              149.4675         calculate D2E/DX2 analytically  !
 ! A11   A(9,6,10)             111.9728         calculate D2E/DX2 analytically  !
 ! A12   A(9,6,14)             111.9727         calculate D2E/DX2 analytically  !
 ! A13   A(10,6,14)            113.6859         calculate D2E/DX2 analytically  !
 ! A14   A(3,9,6)               96.9851         calculate D2E/DX2 analytically  !
 ! A15   A(6,10,11)            110.4496         calculate D2E/DX2 analytically  !
 ! A16   A(6,10,12)            108.3442         calculate D2E/DX2 analytically  !
 ! A17   A(6,10,13)            109.6866         calculate D2E/DX2 analytically  !
 ! A18   A(11,10,12)           108.9895         calculate D2E/DX2 analytically  !
 ! A19   A(11,10,13)           109.5758         calculate D2E/DX2 analytically  !
 ! A20   A(12,10,13)           109.7744         calculate D2E/DX2 analytically  !
 ! A21   A(6,14,15)            108.3441         calculate D2E/DX2 analytically  !
 ! A22   A(6,14,16)            110.4496         calculate D2E/DX2 analytically  !
 ! A23   A(6,14,17)            109.6866         calculate D2E/DX2 analytically  !
 ! A24   A(15,14,16)           108.9896         calculate D2E/DX2 analytically  !
 ! A25   A(15,14,17)           109.7744         calculate D2E/DX2 analytically  !
 ! A26   A(16,14,17)           109.5759         calculate D2E/DX2 analytically  !
 ! D1    D(3,1,2,7)           -103.1351         calculate D2E/DX2 analytically  !
 ! D2    D(3,1,2,8)            103.1354         calculate D2E/DX2 analytically  !
 ! D3    D(4,1,2,7)            148.4593         calculate D2E/DX2 analytically  !
 ! D4    D(4,1,2,8)             -5.2702         calculate D2E/DX2 analytically  !
 ! D5    D(5,1,2,7)              5.2704         calculate D2E/DX2 analytically  !
 ! D6    D(5,1,2,8)           -148.4591         calculate D2E/DX2 analytically  !
 ! D7    D(2,1,3,9)             -0.0001         calculate D2E/DX2 analytically  !
 ! D8    D(4,1,3,9)            119.9968         calculate D2E/DX2 analytically  !
 ! D9    D(5,1,3,9)           -119.9968         calculate D2E/DX2 analytically  !
 ! D10   D(1,3,9,6)             -0.0002         calculate D2E/DX2 analytically  !
 ! D11   D(10,6,9,3)           115.4785         calculate D2E/DX2 analytically  !
 ! D12   D(14,6,9,3)          -115.478          calculate D2E/DX2 analytically  !
 ! D13   D(9,6,10,11)           66.3727         calculate D2E/DX2 analytically  !
 ! D14   D(9,6,10,12)          -52.9358         calculate D2E/DX2 analytically  !
 ! D15   D(9,6,10,13)         -172.7501         calculate D2E/DX2 analytically  !
 ! D16   D(14,6,10,11)         -61.767          calculate D2E/DX2 analytically  !
 ! D17   D(14,6,10,12)         178.9244         calculate D2E/DX2 analytically  !
 ! D18   D(14,6,10,13)          59.1102         calculate D2E/DX2 analytically  !
 ! D19   D(9,6,14,15)           52.9357         calculate D2E/DX2 analytically  !
 ! D20   D(9,6,14,16)          -66.3728         calculate D2E/DX2 analytically  !
 ! D21   D(9,6,14,17)          172.7499         calculate D2E/DX2 analytically  !
 ! D22   D(10,6,14,15)        -178.9246         calculate D2E/DX2 analytically  !
 ! D23   D(10,6,14,16)          61.767          calculate D2E/DX2 analytically  !
 ! D24   D(10,6,14,17)         -59.1104         calculate D2E/DX2 analytically  !
 --------------------------------------------------------------------------------
 Trust Radius=3.00D-01 FncErr=1.00D-07 GrdErr=1.00D-07 EigMax=2.50D+02 EigMin=1.00D-04
 Number of steps in this run=      2 maximum allowed number of steps=      2.
 Search for a saddle point of order  1.
 GradGradGradGradGradGradGradGradGradGradGradGradGradGradGradGradGradGrad

                          Input orientation:                          
 ---------------------------------------------------------------------
 Center     Atomic      Atomic             Coordinates (Angstroms)
 Number     Number       Type             X           Y           Z
 ---------------------------------------------------------------------
      1          6           0       -2.119839   -0.000290    0.151200
      2          6           0       -1.240654   -0.001337   -0.944227
      3          1           0       -1.117400    0.001059    1.072719
      4          1           0       -2.673164   -0.911155    0.357698
      5          1           0       -2.673652    0.910761    0.355563
      6          7           0        0.546614    0.000321    0.066648
      7          1           0       -1.061918    0.906898   -1.507122
      8          1           0       -1.061433   -0.910791   -1.504997
      9          8           0        0.108893    0.001695    1.334699
     10          6           0        1.276964    1.225544   -0.261969
     11          1           0        2.207008    1.281217    0.310675
     12          1           0        0.651252    2.076490   -0.004115
     13          1           0        1.503198    1.243606   -1.329525
     14          6           0        1.277609   -1.225287   -0.259089
     15          1           0        0.652343   -2.075952    0.000767
     16          1           0        2.207681   -1.279123    0.313683
     17          1           0        1.503850   -1.245741   -1.326600
 ---------------------------------------------------------------------
                    Distance matrix (angstroms):
                    1          2          3          4          5
     1  C    0.000000
     2  C    1.404610   0.000000
     3  H    1.361647   2.020710   0.000000
     4  H    1.085581   2.138893   1.940050   0.000000
     5  H    1.085581   2.138893   1.940048   1.821917   0.000000
     6  N    2.667793   2.053339   1.944511   3.358939   3.358941
     7  H    2.166153   1.083369   2.734813   3.062513   2.463188
     8  H    2.166154   1.083369   2.734816   2.463191   3.062513
     9  O    2.523474   2.648546   1.253966   3.086693   3.086692
    10  C    3.634783   2.882554   3.002288   4.533540   4.010960
    11  H    4.515450   3.886656   3.642966   5.350213   4.894904
    12  H    3.466422   2.963188   2.931742   4.484270   3.541649
    13  H    4.106851   3.037608   3.765931   4.993167   4.516236
    14  C    3.634777   2.882554   3.002283   4.010949   4.533537
    15  H    3.466410   2.963187   2.931731   3.541631   4.484258
    16  H    4.515445   3.886655   3.642961   4.894894   5.350211
    17  H    4.106844   3.037607   3.765926   4.516222   4.993165
                    6          7          8          9         10
     6  N    0.000000
     7  H    2.426110   0.000000
     8  H    2.426109   1.817690   0.000000
     9  O    1.341475   3.204082   3.204086   0.000000
    10  C    1.463752   2.668766   3.402520   2.326273   0.000000
    11  H    2.111196   3.759039   4.334081   2.662308   1.093618
    12  H    2.080008   2.561625   3.756298   2.528112   1.087250
    13  H    2.100026   2.593209   3.354035   3.253386   1.091414
    14  C    1.463753   3.402526   2.668765   2.326272   2.450832
    15  H    2.080007   3.756303   2.561631   2.528108   3.370320
    16  H    2.111196   4.334085   3.759038   2.662307   2.733307
    17  H    2.100027   3.354044   2.593202   3.253385   2.700401
                   11         12         13         14         15
    11  H    0.000000
    12  H    1.775367   0.000000
    13  H    1.785221   1.782195   0.000000
    14  C    2.733308   3.370321   2.700399   0.000000
    15  H    3.712628   4.152445   3.676016   1.087250   0.000000
    16  H    2.560342   3.712628   3.092020   1.093618   1.775367
    17  H    3.092025   3.676018   2.489349   1.091414   1.782195
                   16         17
    16  H    0.000000
    17  H    1.785223   0.000000
 Stoichiometry    C4H11NO
 Framework group  C1[X(C4H11NO)]
 Deg. of freedom    45
 Full point group                 C1      NOp   1
 Largest Abelian subgroup         C1      NOp   1
 Largest concise Abelian subgroup C1      NOp   1
                         Standard orientation:                         
 ---------------------------------------------------------------------
 Center     Atomic      Atomic             Coordinates (Angstroms)
 Number     Number       Type             X           Y           Z
 ---------------------------------------------------------------------
      1          6           0       -2.119820   -0.000001    0.151407
      2          6           0       -1.240726    0.000009   -0.944094
      3          1           0       -1.117306   -0.000006    1.072844
      4          1           0       -2.673371   -0.910962    0.356876
      5          1           0       -2.673374    0.910955    0.356890
      6          7           0        0.546626   -0.000000    0.066636
      7          1           0       -1.061794    0.908861   -1.505931
      8          1           0       -1.061792   -0.908830   -1.505950
      9          8           0        0.109010   -0.000005    1.334724
     10          6           0        1.277275    1.225415   -0.260596
     11          1           0        2.207380    1.280165    0.312036
     12          1           0        0.651810    2.076223   -0.001687
     13          1           0        1.503426    1.244676   -1.328148
     14          6           0        1.277267   -1.225417   -0.260607
     15          1           0        0.651797   -2.076222   -0.001703
     16          1           0        2.207372   -1.280177    0.312024
     17          1           0        1.503416   -1.244673   -1.328160
 ---------------------------------------------------------------------
 Rotational constants (GHZ):           4.8036063           2.5284776           2.4816002
 Standard basis: def2TZVP (5D, 7F)
 There are   282 symmetry adapted cartesian basis functions of A   symmetry.
 There are   252 symmetry adapted basis functions of A   symmetry.
   252 basis functions,   394 primitive gaussians,   282 cartesian basis functions
    25 alpha electrons       25 beta electrons
       nuclear repulsion energy       269.1407917141 Hartrees.
 NAtoms=   17 NActive=   17 NUniq=   17 SFac= 1.00D+00 NAtFMM=   60 NAOKFM=F Big=F
 Integral buffers will be    131072 words long.
 Raffenetti 2 integral format.
 Two-electron integral symmetry is turned on.
 One-electron integrals computed using PRISM.
   1 Symmetry operations used in ECPInt.
 ECPInt:  NShTT=    6105 NPrTT=   17556 LenC2=    6059 LenP2D=   14552.
 LDataN:  DoStor=T MaxTD1= 6 Len=  172
 NBasis=   252 RedAO= T EigKep=  1.86D-04  NBF=   252
 NBsUse=   252 1.00D-06 EigRej= -1.00D+00 NBFU=   252
 Initial guess from the checkpoint file:  "checkpoint.chk"
 B after Tr=    -0.000000   -0.000000    0.000000
         Rot=    1.000000    0.000000    0.000000   -0.000000 Ang=   0.00 deg.
 Requested convergence on RMS density matrix=1.00D-08 within 128 cycles.
 Requested convergence on MAX density matrix=1.00D-06.
 Requested convergence on             energy=1.00D-06.
 No special actions if energy rises.
 SCF Done:  E(RB3LYP) =  -289.018861788     A.U. after    1 cycles
            NFock=  1  Conv=0.25D-08     -V/T= 2.0052
 DoSCS=F DFT=T ScalE2(SS,OS)=  1.000000  1.000000
 Range of M.O.s used for correlation:     1   252
 NBasis=   252 NAE=    25 NBE=    25 NFC=     0 NFV=     0
 NROrb=    252 NOA=    25 NOB=    25 NVA=   227 NVB=   227

 **** Warning!!: The largest alpha MO coefficient is  0.19522692D+02

   1 Symmetry operations used in ECPInt.
 ECPInt:  NShTT=    6105 NPrTT=   17556 LenC2=    6059 LenP2D=   14552.
 LDataN:  DoStor=T MaxTD1= 7 Len=  274
 Symmetrizing basis deriv contribution to polar:
 IMax=3 JMax=2 DiffMx= 0.00D+00
 G2DrvN: will do    18 centers at a time, making    1 passes.
 Calling FoFCou, ICntrl=  3107 FMM=F I1Cent=   0 AccDes= 0.00D+00.
 End of G2Drv F.D. properties file   721 does not exist.
 End of G2Drv F.D. properties file   722 does not exist.
 End of G2Drv F.D. properties file   788 does not exist.
          IDoAtm=11111111111111111
          Differentiating once with respect to electric field.
                with respect to dipole field.
          Differentiating once with respect to nuclear coordinates.
 Keep R1 ints in memory in canonical form, NReq=521444664.
          There are    54 degrees of freedom in the 1st order CPHF.  IDoFFX=6 NUNeed=     3.
     51 vectors produced by pass  0 Test12= 1.05D-14 1.85D-09 XBig12= 7.48D+01 6.04D+00.
 AX will form    51 AO Fock derivatives at one time.
     51 vectors produced by pass  1 Test12= 1.05D-14 1.85D-09 XBig12= 1.85D+01 9.78D-01.
     51 vectors produced by pass  2 Test12= 1.05D-14 1.85D-09 XBig12= 2.76D-01 7.94D-02.
     51 vectors produced by pass  3 Test12= 1.05D-14 1.85D-09 XBig12= 8.18D-04 4.17D-03.
     51 vectors produced by pass  4 Test12= 1.05D-14 1.85D-09 XBig12= 1.62D-06 1.77D-04.
     34 vectors produced by pass  5 Test12= 1.05D-14 1.85D-09 XBig12= 1.97D-09 8.40D-06.
      7 vectors produced by pass  6 Test12= 1.05D-14 1.85D-09 XBig12= 2.12D-12 2.17D-07.
      2 vectors produced by pass  7 Test12= 1.05D-14 1.85D-09 XBig12= 1.70D-15 8.73D-09.
 InvSVY:  IOpt=1 It=  1 EMax= 7.11D-15
 Solved reduced A of dimension   298 with    54 vectors.
 Isotropic polarizability for W=    0.000000       71.12 Bohr**3.
 End of Minotr F.D. properties file   721 does not exist.
 End of Minotr F.D. properties file   722 does not exist.
 End of Minotr F.D. properties file   788 does not exist.
   1 Symmetry operations used in ECPInt.
 ECPInt:  NShTT=    6105 NPrTT=   17556 LenC2=    6059 LenP2D=   14552.
 LDataN:  DoStor=T MaxTD1= 8 Len=  415
 Calling FoFJK, ICntrl=    100127 FMM=F ISym2X=0 I1Cent= 0 IOpClX= 0 NMat=1 NMatS=1 NMatT=0.
 Full mass-weighted force constant matrix:
 Low frequencies ----1123.1237   -3.8616   -0.0006    0.0005    0.0009    3.6264
 Low frequencies ---    4.5596  117.1028  224.8569
 ******    1 imaginary frequencies (negative Signs) ****** 
 Diagonal vibrational polarizability:
       23.0337938       2.0650446       8.4554472
 Harmonic frequencies (cm**-1), IR intensities (KM/Mole), Raman scattering
 activities (A**4/AMU), depolarization ratios for plane and unpolarized
 incident light, reduced masses (AMU), force constants (mDyne/A),
 and normal coordinates:
                      1                      2                      3
                      A                      A                      A
 Frequencies --  -1123.1237               117.1023               224.8569
 Red. masses --      1.2787                 2.2573                 1.1580
 Frc consts  --      0.9504                 0.0182                 0.0345
 IR Inten    --    283.3516                 0.0398                 0.1806
  Atom  AN      X      Y      Z        X      Y      Z        X      Y      Z
     1   6    -0.04   0.00  -0.08    -0.00   0.22   0.00    -0.00  -0.02   0.00
     2   6    -0.08  -0.00   0.02    -0.00  -0.12  -0.00    -0.00  -0.03  -0.00
     3   1     0.89   0.00   0.33    -0.00   0.08   0.00    -0.00   0.03  -0.00
     4   1     0.09  -0.02   0.13    -0.19   0.37   0.14     0.03  -0.03   0.03
     5   1     0.09   0.02   0.13     0.19   0.37  -0.14    -0.03  -0.03  -0.03
     6   7     0.06   0.00  -0.03     0.00  -0.05  -0.00    -0.00   0.02  -0.00
     7   1     0.04   0.00   0.06     0.11  -0.28  -0.22    -0.02  -0.05  -0.04
     8   1     0.04  -0.00   0.06    -0.11  -0.28   0.22     0.02  -0.05   0.04
     9   8    -0.05  -0.00   0.01    -0.00  -0.10  -0.00     0.00   0.02  -0.00
[...]
   iso        0.711194D+02      0.105388D+02      0.117260D+02
   aniso      0.243772D+02      0.361234D+01      0.401926D+01
   xx         0.822441D+02      0.121873D+02      0.135602D+02
   yx        -0.130835D-01     -0.193877D-02     -0.215717D-02
   yy         0.606399D+02      0.898591D+01      0.999818D+01
   zx         0.900478D+01      0.133437D+01      0.148469D+01
   zy        -0.547666D-02     -0.811557D-03     -0.902979D-03
   zz         0.704741D+02      0.104432D+02      0.116196D+02

 ----------------------------------------------------------------------
 1\1\GINC-BHC0029\Freq\RB3LYP\def2TZVP\C4H11N1O1\DHANAWAY\10-Jun-2022\0
 \\#N Geom=AllCheck Guess=TCheck SCRF=Check GenChk RB3LYP/def2TZVP Freq
 \\ts_initalOpt\\0,1\C,-2.1198389312,-0.0002895823,0.1512004034\C,-1.24
 0654066,-0.0013371354,-0.944227451\H,-1.1174001171,0.0010594203,1.0727
 189515\H,-2.6731642494,-0.9111550619,0.3576977207\H,-2.6736516803,0.91
 07609471,0.355563389\N,0.546614148,0.0003210482,0.0666479769\H,-1.0619
 178306,0.9068982497,-1.507121797\H,-1.0614327004,-0.910790561,-1.50499
 67808\O,0.108893481,0.0016950969,1.3346991945\C,1.2769642612,1.2255439
 091,-0.2619687724\H,2.2070075112,1.2812169564,0.3106745576\H,0.6512520
 242,2.0764898187,-0.0041153015\H,1.5031983704,1.2436060606,-1.32952475
 71\C,1.2776086263,-1.2252867854,-0.2590887652\H,0.6523429063,-2.075951
 8009,0.0007667752\H,2.2076808281,-1.2791233569,0.3136827703\H,1.503850
 4185,-1.2457412232,-1.3266001143\\Version=ES64L-G16RevA.03\HF=-289.018
 8618\RMSD=2.504e-09\RMSF=3.553e-07\ZeroPoint=0.1464281\Thermal=0.15375
 3\Dipole=0.6331079,-0.0010073,-1.0003294\DipoleDeriv=-0.3052318,-0.000
 2396,-0.1263694,0.0002761,0.0388221,-0.0006472,0.3132579,-0.0005314,-0
 .4850315,0.9324161,-0.000051,-0.2264163,-0.0000375,0.123969,-0.0001501
 ,-0.2151378,-0.0001469,0.0469971,0.3905109,0.0004709,0.337224,0.000368
 8,0.1095472,0.0003253,0.2512282,0.0003019,0.3097615,-0.0548483,-0.0488
 843,0.0847154,-0.0632288,-0.0646116,0.0239707,0.0143971,-0.0029627,0.1
 361654,-0.0549088,0.0490879,0.0846133,0.0632671,-0.0645991,-0.0234549,
 0.0142468,0.0034411,0.1362137,-0.5871635,-0.0000758,0.0495173,-0.00003
 26,-0.0872178,0.0005682,0.0847778,0.0005772,0.3852057,-0.0034394,-0.01
 94266,0.0441433,-0.0318349,-0.05498,0.0894892,-0.0098445,0.0525135,-0.
 0139319,-0.0034671,0.0195577,0.0441459,0.0318393,-0.0552845,-0.089369,
 -0.0098913,-0.0524221,-0.0135999,-0.5675436,-0.0003933,-0.3067356,-0.0
 00371,-0.4430594,-0.0005316,-0.2872663,-0.0005248,-0.8252121,0.2296243
 ,0.10278,0.0386755,0.2785784,0.2214165,0.0251534,-0.0727941,-0.0716387
 ,0.2109064,-0.1477885,-0.0685159,-0.060039,-0.0393419,0.0269305,0.0338
 329,-0.1108858,-0.0107403,0.0055921,0.0070599,0.0888365,0.0228727,0.01
 99995,-0.0363434,-0.0032621,0.0235945,-0.0262538,0.0617254,0.037858,-0
 .0315538,0.005959,-0.0312176,0.0367182,-0.0360699,0.0819539,0.0294338,
 -0.1164383,0.2298237,-0.1026836,0.0389303,-0.2787437,0.221323,-0.02515
 72,-0.0721766,0.0715754,0.2107978,0.0071173,-0.0887597,0.0230797,-0.01
 99212,-0.03633,0.0035046,0.0236277,0.026497,0.0616552,-0.1478445,0.068
 2823,-0.0601815,0.0389888,0.0269331,-0.0339147,-0.1109833,0.0106318,0.
 0056468,0.0378251,0.0315682,0.0058655,0.0314111,0.0367662,0.0357124,0.
 0818958,-0.029751,-0.1164533\Polar=87.0162099,0.0087251,60.6399475,1.4
 646957,0.0063152,65.7019902\PG=C01 [X(C4H11N1O1)]\NImag=1\\0.48250449,
 -0.00031240,0.61346111,-0.23681680,-0.00042250,0.30696124,-0.17915740,
 0.00008976,0.09359922,0.22272441,0.00017956,-0.10533194,-0.00010670,-0
 .00037702,0.64335314,0.17025299,-0.00008631,-0.21793333,-0.22637420,-0
 .00017114,0.54830381,0.00645267,0.00010166,0.07844108,0.05971157,-0.00
 002240,-0.03287951,-0.00201761,0.00001390,-0.02995881,0.00005190,0.000
 03777,-0.00082204,-0.00004730,-0.00006881,0.05098054,0.00354481,0.0000
 3176,-0.00368364,0.01832750,-0.00003359,-0.03362710,-0.04647101,0.0000
 2626,0.08394127,-0.11393617,-0.11926282,0.04389626,-0.00214566,-0.0145
 9656,-0.00101280,-0.00967404,-0.00980012,0.00030886,0.11989392,-0.1159
 3915,-0.24868008,0.04208472,-0.00002454,0.00259286,-0.00077490,0.00082
 016,-0.00097647,0.00042243,0.12782770,0.26141000,0.03331791,0.03251438
 ,-0.03563659,0.01974398,0.02518610,-0.00891465,-0.00995192,-0.01073830
 ,0.00039765,-0.03980294,-0.04509241,0.04818096,-0.11406208,0.11943750,
 0.04363909,-0.00215348,0.01459158,-0.00104739,-0.00967892,0.00979615,0
 .00028607,0.00915008,-0.01367958,-0.00422775,0.12003084,0.11608906,-0.
 24872779,-0.04156193,0.00006830,0.00254345,0.00074752,-0.00084814,-0.0
 0094750,-0.00041912,0.01368381,-0.01736594,-0.00373836,-0.12799638,0.2
 6148326,0.03306339,-0.03199724,-0.03546289,0.01975742,-0.02520236,-0.0
 0885749,-0.00995580,0.01073612,0.00037343,-0.00426181,0.00377566,-0.00
 047600,-0.03952726,0.04457130,0.04797087,-0.01990947,0.00004453,0.0435
 1880,0.04034851,0.00004443,0.02108044,-0.06779122,-0.00000170,0.015241
 50,-0.00550775,0.00206405,-0.00452206,-0.00550674,-0.00207756,-0.00451
 706,0.38812545,-0.00002757,0.00467439,-0.00001347,0.00001378,-0.033911
 64,0.00003542,0.00004366,0.00569296,-0.00000367,-0.00010580,-0.0000948
 1,0.00035719,0.00010805,-0.00009586,-0.00036255,-0.00020483,0.54783455
 ,-0.01785697,-0.00002977,-0.01656775,-0.00494669,0.00002847,-0.0084927
 9,0.05377223,0.00000650,-0.00096277,0.00218317,-0.00035700,-0.00135835
 ,0.00218277,0.00035522,-0.00135832,-0.13899158,-0.00016335,0.44016730,
 -0.00040763,-0.01591171,0.01407198,-0.04147239,-0.03717047,0.03010564,
 -0.00501298,-0.00049595,-0.00041857,0.00178076,-0.00071530,0.00678259,
 -0.00171671,-0.00076446,-0.00431567,-0.00486423,0.00940984,-0.00401125
 ,0.04882656,0.00096811,0.00416675,-0.00072971,-0.03864401,-0.25658289,
 0.11974829,-0.00159485,-0.00021711,-0.00058498,0.00081060,0.00113238,0
 .00000458,-0.00048474,0.00141314,-0.00022892,-0.00105149,0.00017963,-0
 .00068480,0.04270532,0.26596132,0.00548832,0.02122696,-0.00306682,0.03
 714438,0.11875768,-0.12246131,-0.00288222,-0.00015227,-0.00152763,0.00
 229778,-0.00088090,-0.00191497,-0.00163687,-0.00063839,-0.00016553,-0.
 00471603,0.00624419,-0.00311654,-0.03455729,-0.13003144,0.12478366,-0.
 00041557,0.01594216,0.01403437,-0.04151289,0.03735579,0.03008241,-0.00
 501419,0.00049240,-0.00042006,-0.00171737,0.00075266,-0.00431757,0.001
 78079,0.00073153,0.00678088,-0.00485978,-0.00942182,-0.00398960,0.0024
 3382,-0.00360322,-0.00161530,0.04887221,-0.00095769,0.00412678,0.00072
 038,0.03884579,-0.25709929,-0.11941742,0.00158556,-0.00021428,0.000581
 70,0.00047925,0.00141581,0.00022291,-0.00080488,0.00113436,-0.00000810
 ,0.00103779,0.00016212,0.00067499,0.00360980,-0.01700325,-0.01365257,-
 0.04290215,0.26652298,0.00550185,-0.02124076,-0.00301873,0.03711719,-0
 .11842312,-0.12190444,-0.00288607,0.00014764,-0.00152939,-0.00163834,0
 .00063381,-0.00016755,0.00229918,0.00087499,-0.00191702,-0.00471517,-0
 .00625434,-0.00310352,-0.00163103,0.01371677,0.01082305,-0.03452648,0.
 12968160,0.12417638,-0.05922750,-0.00013062,-0.09653003,-0.05318778,-0
 .00000711,0.00780365,0.03766753,0.00002313,0.00611388,0.00320738,-0.00
 163721,0.00283568,0.00320718,0.00164524,0.00283264,-0.07794837,0.00007
 275,0.05844479,0.00265499,0.00072441,0.00140078,0.00265459,-0.00071972
 ,0.00140199,0.15514332,-0.00001344,0.00598307,-0.00003672,-0.00002104,
 0.00768977,-0.00004250,0.00000308,-0.02203592,-0.00001316,0.00115420,0
 .00061829,0.00141200,-0.00115412,0.00061545,-0.00141073,0.00007251,-0.
 09392746,-0.00016753,-0.00154231,0.00000008,-0.00091566,0.00153408,0.0
 0000465,0.00091005,-0.00005135,0.09039479,0.00336230,-0.00001000,-0.00
 333512,-0.00406208,-0.00004576,-0.03032557,-0.01092429,-0.00001769,-0.
 03461311,-0.00055581,-0.00009053,0.00050660,-0.00055316,0.00008997,0.0
 0050969,0.05812696,-0.00016787,-0.24973331,-0.00410031,-0.00085096,-0.
 00270182,-0.00410444,0.00084247,-0.00270597,-0.05835261,0.00033031,0.3
 8447521,-0.00073577,-0.00047745,-0.00035294,-0.00675968,-0.00722004,-0
 .00005070,-0.00127327,-0.00218124,0.00191020,-0.00040496,0.00017298,0.
 00011925,-0.00004037,-0.00002535,0.00022833,-0.10390173,-0.05555085,0.
 02080963,0.00040388,-0.00057138,0.00043696,-0.00127286,-0.00022254,-0.
 00073008,-0.00996037,-0.00779286,0.00972978,0.55064402,-0.00008603,-0.
 00009014,-0.00658453,-0.01030943,-0.00011560,-0.00093938,0.00645787,0.
 00000425,0.00087756,0.00083339,-0.00033286,0.00043909,0.00123232,0.000
 12584,0.00055626,-0.03217381,-0.17283854,0.00998676,0.00174719,0.00063
 367,0.00156330,0.00066881,-0.00041005,0.00102513,-0.00876739,0.0044757
 2,0.01175769,-0.06993174,0.50970638,-0.00025326,0.00016178,0.00664041,
 0.00533265,-0.00506312,0.00084855,-0.00847429,0.00114469,-0.00458068,-
 0.00086036,0.00015941,-0.00057100,-0.00069141,-0.00015647,-0.00044046,
 0.00270494,-0.00558644,-0.07337837,-0.00122576,-0.00008040,0.00016291,
 -0.00145399,-0.00024663,-0.00091767,0.03793460,0.03607731,-0.03578087,
 0.00040772,0.03491716,0.58916736,-0.00014275,0.00004289,0.00223870,0.0
 0457506,-0.00140150,0.00088621,-0.00243472,0.00023428,-0.00072581,-0.0
 0036814,0.00010366,-0.00015689,-0.00028041,-0.00010587,-0.00015076,-0.
 02114754,-0.01024792,-0.00802411,0.00015748,0.00019371,0.00012220,-0.0
 0074972,-0.00015284,-0.00037224,0.00370466,0.00108736,-0.00029045,-0.2
 2810502,-0.00266916,-0.11399594,0.25055087,-0.00042873,0.00003098,0.00
 280711,0.00381454,-0.00153186,0.00113764,-0.00298668,-0.00004517,-0.00
 074495,-0.00044949,0.00013347,-0.00026324,-0.00039801,-0.00005731,-0.0
 0015517,-0.03373884,-0.01128611,-0.01361910,-0.00015333,0.00019201,-0.
 00044544,-0.00058049,0.00022917,-0.00053510,0.00423931,0.00110673,-0.0
 0317199,-0.00039384,-0.04855256,-0.00151295,0.01169560,0.05447924,0.00
 014101,-0.00049462,-0.00059951,-0.00001698,0.00062129,0.00054149,0.000
 57119,-0.00012921,0.00015961,-0.00003404,0.00002667,0.00012766,0.00004
 724,0.00004243,0.00010415,0.00817601,0.00141448,0.00376476,0.00038943,
 -0.00016951,0.00012366,0.00013589,-0.00006100,0.00006478,-0.00094276,-
 0.00003959,0.00310817,-0.11653025,-0.00382526,-0.12376179,0.12671023,0
 .00330541,0.12675069,-0.00006052,0.00012855,-0.00045908,0.00025313,-0.
 00068483,-0.00013176,0.00045003,-0.00003413,-0.00005270,0.00005762,0.0
 0003912,0.00010021,-0.00007639,-0.00005349,0.00000973,0.00950035,-0.01
 827613,-0.00435883,0.00011806,-0.00013509,-0.00002889,-0.00013967,-0.0
 0003135,0.00000941,0.00123790,-0.00003556,-0.00144502,-0.14606054,0.13
 029539,0.04014621,-0.01463633,0.02034954,0.00738552,0.15309913,-0.0001
 4490,0.00010485,0.00111772,0.00191756,0.00020594,0.00056087,-0.0012241
 9,-0.00028367,-0.00024907,-0.00006257,0.00007028,-0.00007791,-0.000237
 04,0.00000615,-0.00008128,0.01488635,-0.03203193,-0.00808003,-0.000437
 17,0.00011807,-0.00062231,0.00018517,0.00027799,-0.00006752,0.00133100
 ,0.00382177,-0.00199662,0.11973878,-0.20564804,-0.04820160,-0.00020156
 ,0.00225017,0.00054739,-0.13075566,0.23231966,-0.00000216,0.00007246,-
 0.00040290,-0.00038014,-0.00050613,0.00029500,0.00070056,0.00018924,0.
 00050204,0.00002761,0.00001428,-0.00005577,0.00009203,0.00000895,0.000
 12346,-0.00330288,0.00753544,0.00064103,-0.00020564,-0.00001706,-0.000
 39798,0.00000723,0.00021383,-0.00010188,-0.00141529,0.00031487,0.00030
 861,0.03944157,-0.05382895,-0.06420092,-0.01059114,0.01403166,0.004625
 78,-0.04255246,0.05487386,0.06339611,0.00001862,0.00011634,-0.00035264
 ,0.00035775,-0.00034784,0.00030185,0.00093621,-0.00002531,0.00061401,-
 0.00001294,0.00002529,-0.00011653,0.00007425,-0.00000519,0.00010905,-0
 .00545764,0.00237319,0.01827149,-0.00063319,0.00029455,-0.00025409,-0.
 00010602,0.00001462,-0.00010609,-0.00206278,-0.00480579,0.00259806,-0.
 05919317,-0.00147701,0.04620223,0.00747971,0.00032749,-0.02631074,-0.0
 0297602,-0.00145541,0.01739890,0.06097660,-0.00010845,0.00009295,-0.00
 040176,0.00016813,0.00021736,-0.00023641,0.00108284,-0.00042330,0.0008
 0616,0.00002994,0.00001724,0.00005104,-0.00005709,-0.00001420,-0.00004
 319,-0.00664935,0.00088656,0.02929647,-0.00012155,0.00003149,-0.000086
 01,-0.00011745,-0.00012203,-0.00005785,-0.00465377,-0.00402133,0.00412
 258,0.00132978,-0.05225507,-0.00679658,0.00105342,0.00009490,-0.000339
 76,0.00296431,0.00276763,-0.02416126,0.00454894,0.05309552,0.00018657,
 -0.00037752,0.00023819,-0.00008249,0.00039249,0.00042617,-0.00093302,0
 .00015943,-0.00046778,-0.00004833,-0.00000691,0.00004539,0.00005165,0.
 00001863,0.00004902,0.00223622,-0.00049089,-0.00878806,0.00025653,-0.0
 0024223,0.00027147,0.00016995,-0.00005902,0.00014212,0.00144685,0.0033
 7426,0.00126651,0.05087068,0.00108494,-0.29798008,0.00368071,-0.000760
 84,-0.01490920,0.00013450,-0.00014563,-0.00521335,-0.05780253,-0.00216
 644,0.32429576,-0.00073606,0.00047627,-0.00035751,-0.00676889,0.007216
 42,-0.00006819,-0.00127103,0.00218504,0.00190551,-0.00003974,0.0000258
 0,0.00022856,-0.00040443,-0.00017274,0.00011989,-0.10394782,0.05563573
 ,0.02068398,-0.00127265,0.00022037,-0.00073006,0.00040450,0.00057229,0
 .00043644,-0.00996906,0.00780815,0.00971783,0.00728690,-0.01645720,-0.
 00755622,0.00056143,-0.00268051,0.00038928,-0.00150275,-0.00438344,0.0
 0081142,0.00031811,0.00040243,0.00012124,0.55057088,0.00008510,-0.0000
 7472,0.00660013,0.01031843,-0.00009223,0.00094156,-0.00647843,-0.00000
 282,-0.00088733,-0.00123402,0.00012424,-0.00055747,-0.00083545,-0.0003
 3480,-0.00043958,0.03221616,-0.17280189,-0.00974210,-0.00067267,-0.000
 41211,-0.00102671,-0.00175018,0.00062957,-0.00156415,0.00884901,0.0043
 7181,-0.01184697,0.01646153,-0.03483323,-0.00258578,0.00142642,0.00290
 239,-0.00038476,-0.00254174,-0.00310694,0.00109236,0.00048231,0.000335
 50,-0.00100250,0.06995427,0.50961542,-0.00025337,-0.00014618,0.0066252
 4,0.00530574,0.00506823,0.00083443,-0.00845842,-0.00115997,-0.00457586
 ,-0.00068858,0.00015477,-0.00043951,-0.00085831,-0.00016042,-0.0005696
 0,0.00262613,0.00582164,-0.07336854,-0.00145256,0.00024467,-0.00091584
 ,-0.00122171,0.00007865,0.00016639,0.03793296,-0.03615169,-0.03566837,
 -0.00759629,0.00267769,0.00596006,0.00068921,-0.00080444,0.00000382,0.
 00120852,0.00271727,-0.00058891,-0.00011453,0.00031545,-0.00058690,0.0
 0026206,-0.03472975,0.58933136,-0.00006052,-0.00012972,-0.00045819,0.0
 0025378,0.00068454,-0.00013307,0.00044936,0.00003440,-0.00005291,-0.00
 007655,0.00005347,0.00000955,0.00005761,-0.00003889,0.00010026,0.00949
 852,0.01828766,-0.00440606,-0.00013958,0.00003115,0.00000930,0.0001177
 6,0.00013501,-0.00002952,0.00123859,0.00003084,-0.00144615,-0.00150638
 ,0.00254542,0.00120397,0.00016458,0.00037301,0.00019902,0.00072299,0.0
 0091468,-0.00007550,-0.00015178,-0.00005785,-0.00009193,-0.14592935,-0
 .13016938,0.04042723,0.15296188,0.00014481,0.00010206,-0.00111914,-0.0
 0191842,0.00020517,-0.00056073,0.00122623,-0.00028287,0.00025089,0.000
 23722,0.00000648,0.00008156,0.00006263,0.00007044,0.00007766,-0.014872
 23,-0.03202880,0.00815454,-0.00018538,0.00027756,0.00006663,0.00043668
 ,0.00011986,0.00062107,-0.00133570,0.00382502,0.00198762,0.00438618,-0
 .00311225,-0.00271070,-0.00004373,0.00013793,-0.00008695,-0.00091373,-
 0.00142901,0.00030041,0.00011514,0.00041966,0.00008628,-0.11961441,-0.
 20553829,0.04855521,0.13061360,0.23219774,-0.00000246,-0.00007364,-0.0
 0040009,-0.00037590,0.00050612,0.00029514,0.00069778,-0.00018703,0.000
 50190,0.00009148,-0.00000863,0.00012329,0.00002747,-0.00001457,-0.0000
 5592,-0.00326393,-0.00746036,0.00063958,0.00000778,-0.00021472,-0.0001
 0154,-0.00020667,0.00001574,-0.00039949,-0.00141198,-0.00032392,0.0003
 0467,0.00080169,-0.00108601,-0.00057997,0.00015089,0.00023775,0.000055
 34,-0.00007319,-0.00029569,0.00059476,-0.00010525,-0.00010394,0.000419
 26,0.03969482,0.05418224,-0.06444185,-0.04283110,-0.05529331,0.0636554
 0,-0.00014295,-0.00003773,0.00224026,0.00457632,0.00140682,0.00088351,
 -0.00243615,-0.00023727,-0.00072564,-0.00028067,0.00010540,-0.00015109
 ,-0.00036832,-0.00010429,-0.00015678,-0.02117069,0.01022382,-0.0080553
 4,-0.00075011,0.00015144,-0.00037288,0.00015750,-0.00019344,0.00012241
 ,0.00370747,-0.00108666,-0.00028956,0.00056078,-0.00142603,0.00069214,
 0.00065225,0.00090648,-0.00011965,0.00016475,0.00004410,0.00015091,0.0
 0001858,0.00010828,-0.00005328,-0.22810692,0.00230659,-0.11400265,-0.0
 1462572,0.00016783,-0.01058417,0.25056344,0.00042896,0.00002575,-0.002
 80740,-0.00381135,-0.00153727,-0.00113229,0.00298675,-0.00004164,0.000
 74504,0.00039800,-0.00005677,0.00015546,0.00044915,0.00013421,0.000263
 15,0.03375283,-0.01123422,0.01365014,0.00058030,0.00023096,0.00053452,
 0.00015422,0.00019343,0.00044534,-0.00424015,0.00111147,0.00317651,0.0
 0268019,0.00290583,0.00079798,-0.00090648,0.00011964,-0.00051684,-0.00
 037253,0.00013741,-0.00023787,-0.00010425,-0.00020378,0.00002293,0.000
 02529,-0.04853906,0.00127607,-0.02034097,0.00220531,-0.01403153,-0.011
 29445,0.05445211,0.00013973,0.00049324,-0.00059407,-0.00000770,-0.0006
 1642,0.00054560,0.00056409,0.00012999,0.00015756,0.00004633,-0.0000420
 3,0.00010388,-0.00003509,-0.00002671,0.00012710,0.00809741,-0.00137492
 ,0.00373597,0.00013449,0.00006068,0.00006339,0.00038899,0.00016955,0.0
 0012222,-0.00093282,0.00004377,0.00310059,0.00038278,0.00037814,0.0000
 0104,-0.00011779,0.00051655,0.00002268,0.00019985,0.00008686,0.0000556
 9,-0.00019010,-0.00008986,-0.00018193,-0.11653284,0.00358705,-0.123773
 75,0.00743369,-0.00053783,0.00466006,0.12673904,-0.00306871,0.12676555
 ,0.00001862,-0.00011720,-0.00035258,0.00035765,0.00034862,0.00030092,0
 .00093677,0.00002747,0.00061436,0.00007422,0.00000549,0.00010901,-0.00
 001291,-0.00002558,-0.00011645,-0.00545984,-0.00233355,0.01829237,-0.0
 0010607,-0.00001486,-0.00010608,-0.00063311,-0.00029549,-0.00025345,-0
 .00206777,0.00481292,0.00258895,0.00031857,-0.00048259,-0.00011323,0.0
 0001858,0.00010392,-0.00019039,-0.00015175,-0.00011569,-0.00010503,0.0
 0041371,0.00007743,-0.00014332,-0.05919315,0.00158204,0.04619458,-0.00
 297520,0.00149327,0.01738274,0.00748044,-0.00038549,-0.02631006,0.0609
 8125,0.00010884,0.00009478,0.00040191,-0.00016826,0.00021708,0.0002370
 6,-0.00108430,-0.00042614,-0.00080592,0.00005726,-0.00001411,0.0000434
 0,-0.00003007,0.00001711,-0.00005103,0.00665118,0.00082106,-0.02930941
 ,0.00011785,-0.00012170,0.00005841,0.00012181,0.00003218,0.00008644,0.
 00465819,-0.00403392,-0.00410877,-0.00040215,0.00033665,-0.00031768,-0
 .00010829,-0.00020363,0.00008981,0.00005733,0.00041967,0.00010389,-0.0
 0007706,-0.00091907,0.00011302,-0.00121375,-0.05224284,0.00624279,-0.0
 0296697,0.00282398,0.02415149,-0.00104088,0.00009664,0.00029063,-0.004
 68072,0.05310226,0.00018611,0.00037796,0.00023635,-0.00008190,-0.00039
 204,0.00042652,-0.00093038,-0.00016002,-0.00046551,0.00005153,-0.00001
 845,0.00004896,-0.00004826,0.00000695,0.00004550,0.00222031,0.00046948
 ,-0.00872030,0.00016963,0.00005973,0.00014185,0.00025611,0.00024293,0.
 00027071,0.00143768,-0.00336106,0.00128409,0.00012167,0.00100039,-0.00
 058851,-0.00005302,-0.00002291,-0.00018208,-0.00009202,-0.00008633,0.0
 0041922,-0.00014308,-0.00010864,0.00097340,0.05087377,-0.00163623,-0.2
 9799219,0.00014142,0.00012679,-0.00527054,0.00368278,0.00072748,-0.014
 91159,-0.05779235,0.00277397,0.32428412\\-0.00000015,0.,-0.00000067,0.
 00000012,-0.00000006,-0.00000037,-0.00000032,-0.00000004,-0.00000041,-
 0.00000016,0.,-0.00000089,-0.00000014,0.,-0.00000091,-0.00000009,-0.00
 000002,0.00000042,0.00000043,0.00000014,-0.00000042,0.00000049,-0.0000
 0006,-0.00000045,-0.00000060,-0.00000002,-0.00000002,-0.00000002,0.,0.
 00000040,-0.00000014,0.00000005,0.00000070,-0.00000004,0.00000006,0.00
 000023,0.00000043,-0.00000003,0.00000051,0.00000025,-0.00000009,0.0000
 0050,-0.00000015,0.00000006,0.00000023,-0.00000025,0.00000007,0.000000
 76,0.00000033,-0.00000003,0.00000038\\\@


 YOU CAN WIPE THE SLATE CLEAN, BUT YOU'LL STILL
 HAVE TO EAT A LITTLE CHALK DUST.
 Job cpu time:       0 days  0 hours 50 minutes 37.4 seconds.
 Elapsed time:       0 days  0 hours  4 minutes 13.5 seconds.
 File lengths (MBytes):  RWF=     95 Int=      0 D2E=      0 Chk=     32 Scr=      1
 Normal termination of Gaussian 16 at Fri Jun 10 10:39:34 2022.
