 Entering Gaussian System, Link 0=g16
 Input=int_zmat_field_N100.gjf
 Output=int_zmat_field_N100.out
 Initial command:
 /software/gaussian/g16-a03/l1.exe "/local_scratch/11171894/Gau-2667.inp" -scrdir="/local_scratch/11171894/"
 Entering Link 1 = /software/gaussian/g16-a03/l1.exe PID=      2668.
  
 Copyright (c) 1988,1990,1992,1993,1995,1998,2003,2009,2016,
            Gaussian, Inc.  All Rights Reserved.
  
 This is part of the Gaussian(R) 16 program.  It is based on
 the Gaussian(R) 09 system (copyright 2009, Gaussian, Inc.),
 the Gaussian(R) 03 system (copyright 2003, Gaussian, Inc.),
 the Gaussian(R) 98 system (copyright 1998, Gaussian, Inc.),
 the Gaussian(R) 94 system (copyright 1995, Gaussian, Inc.),
 the Gaussian 92(TM) system (copyright 1992, Gaussian, Inc.),
 the Gaussian 90(TM) system (copyright 1990, Gaussian, Inc.),
 the Gaussian 88(TM) system (copyright 1988, Gaussian, Inc.),
 the Gaussian 86(TM) system (copyright 1986, Carnegie Mellon
 University), and the Gaussian 82(TM) system (copyright 1983,
 Carnegie Mellon University). Gaussian is a federally registered
 trademark of Gaussian, Inc.
  
 This software contains proprietary and confidential information,
 including trade secrets, belonging to Gaussian, Inc.
  
 This software is provided under written license and may be
 used, copied, transmitted, or stored only in accord with that
 written license.
  
 The following legend is applicable only to US Government
 contracts under FAR:
  
                    RESTRICTED RIGHTS LEGEND
  
 Use, reproduction and disclosure by the US Government is
 subject to restrictions as set forth in subparagraphs (a)
 and (c) of the Commercial Computer Software - Restricted
 Rights clause in FAR 52.227-19.
  
 Gaussian, Inc.
 340 Quinnipiac St., Bldg. 40, Wallingford CT 06492
  
  
 ---------------------------------------------------------------
 Warning -- This program may not be used in any manner that
 competes with the business of Gaussian, Inc. or will provide
 assistance to any competitor of Gaussian, Inc.  The licensee
 of this program is prohibited from giving any competitor of
 Gaussian, Inc. access to this program.  By using this program,
 the user acknowledges that Gaussian, Inc. is engaged in the
 business of creating and licensing software in the field of
 computational chemistry and represents and warrants to the
 licensee that it is not a competitor of Gaussian, Inc. and that
 it will not use this program in any manner prohibited above.
 ---------------------------------------------------------------
  

 Cite this work as:
 Gaussian 16, Revision A.03,
 M. J. Frisch, G. W. Trucks, H. B. Schlegel, G. E. Scuseria, 
 M. A. Robb, J. R. Cheeseman, G. Scalmani, V. Barone, 
 G. A. Petersson, H. Nakatsuji, X. Li, M. Caricato, A. V. Marenich, 
 J. Bloino, B. G. Janesko, R. Gomperts, B. Mennucci, H. P. Hratchian, 
 J. V. Ortiz, A. F. Izmaylov, J. L. Sonnenberg, D. Williams-Young, 
 F. Ding, F. Lipparini, F. Egidi, J. Goings, B. Peng, A. Petrone, 
 T. Henderson, D. Ranasinghe, V. G. Zakrzewski, J. Gao, N. Rega, 
 G. Zheng, W. Liang, M. Hada, M. Ehara, K. Toyota, R. Fukuda, 
 J. Hasegawa, M. Ishida, T. Nakajima, Y. Honda, O. Kitao, H. Nakai, 
 T. Vreven, K. Throssell, J. A. Montgomery, Jr., J. E. Peralta, 
 F. Ogliaro, M. J. Bearpark, J. J. Heyd, E. N. Brothers, K. N. Kudin, 
 V. N. Staroverov, T. A. Keith, R. Kobayashi, J. Normand, 
 K. Raghavachari, A. P. Rendell, J. C. Burant, S. S. Iyengar, 
 J. Tomasi, M. Cossi, J. M. Millam, M. Klene, C. Adamo, R. Cammi, 
 J. W. Ochterski, R. L. Martin, K. Morokuma, O. Farkas, 
 J. B. Foresman, and D. J. Fox, Gaussian, Inc., Wallingford CT, 2016.
 
 ******************************************
 Gaussian 16:  ES64L-G16RevA.03 25-Dec-2016
                10-Jun-2022 
 ******************************************
 %nprocshared=12
 Will use up to   12 processors via shared memory.
 %chk=checkpoint.chk
 %mem=12GB
 ----------------------------------------------------------------------
 # Opt=(Z-matrix, MaxStep=10) B3LYP/Def2TZVP geom=allcheckpoint guess=r
 ead Field=read NoSymm freq=noraman pop=none
 ----------------------------------------------------------------------
 1/8=10,10=7,18=40,26=3,29=7,38=1/1,3;
 2/12=2,15=1,29=3,40=1/2;
 3/5=44,7=101,11=2,14=-6,25=1,30=1,71=1,74=-5,116=-2/1,2,3;
 4/5=1/1;
 5/5=2,38=6/2;
 7/29=1,30=1/1,2,3,16;
 1/8=10,10=7,18=40,26=3/3(2);
 2/15=1,29=3/2;
 99//99;
 2/15=1,29=3/2;
 3/5=44,7=101,11=2,14=-2,25=1,30=1,71=1,74=-5/1,2,3;
 4/5=5,16=3,69=1/1;
 5/5=2,38=5/2;
 7/30=1/1,2,3,16;
 1/8=10,18=40,26=3/3(-5);
 2/15=1,29=3/2;
 99/9=1/99;
 Structure from the checkpoint file:  "checkpoint.chk"
 ------------------
 int_zmat_initalOpt
 ------------------
 Charge =  0 Multiplicity = 1
 Z-Matrix found in chk file.
 C
 C,1,R2
 C,1,R3,2,A3
 H,1,R4,2,A4,3,D4,0
 C,3,R5,1,A5,2,D5,0
 C,2,R6,1,A6,3,D6,0
 H,2,R7,1,A7,6,D7,0
 C,2,R8,1,A8,6,D8,0
 H,3,R9,1,A9,5,D9,0
 C,5,R10,3,A10,1,D10,0
 H,5,R11,3,A11,10,D11,0
 C,5,R12,3,A12,10,D12,0
 H,8,R13,2,A13,1,D13,0
 H,8,R14,2,A14,13,D14,0
 N,6,R15,2,A15,1,D15,0
 C,6,R16,2,A16,15,D16,0
 H,10,R17,5,A17,3,D17,0
 H,10,R18,5,A18,17,D18,0
 H,12,R19,5,A19,3,D19,0
 H,12,R20,5,A20,19,D20,0
 O,15,R21,6,A21,2,D21,0
 O,16,R22,6,A22,2,D22,0
 O,16,R23,6,A23,22,D23,0
 C,23,R24,16,A24,6,D24,0
 H,24,R25,23,A25,16,D25,0
 H,24,R26,23,A26,25,D26,0
 H,24,R27,23,A27,25,D27,0
      Variables:
 R2=1.50912021
 R3=1.33176012
 R4=1.08355284
 R5=1.50599008
 R6=1.56851809
 R7=1.08659282
 R8=1.55183353
 R9=1.0841952
 R10=1.55054467
 R11=1.0901015
 R12=1.54990103
 R13=1.09000189
 R14=1.09052015
 R15=1.53900789
 R16=1.54412561
 R17=1.08832927
 R18=1.09078716
 R19=1.0910734
 R20=1.09054636
 R21=1.193444
 R22=1.20141207
 R23=1.33381551
 R24=1.4499444
 R25=1.08533169
 R26=1.08819313
 R27=1.08797752
 A3=114.56056193
 A4=121.20315451
 A5=114.19891673
 A6=106.68568375
 A7=112.98029014
 A8=108.23223572
 A9=123.78408862
 A10=108.17367113
 A11=112.36083544
 A12=108.0161276
 A13=109.83088784
 A14=108.21137935
 A15=103.48373992
 A16=113.68389034
 A17=110.53714245
 A18=110.3797945
 A19=109.15582442
 A20=109.97316831
 A21=116.12177844
 A22=122.69724748
 A23=112.55201427
 A24=115.75778198
 A25=105.39546264
 A26=110.06054708
 A27=110.15843137
 D4=-178.05186956
 D5=2.28384827
 D6=-59.47931648
 D7=-120.77370841
 D8=115.47394234
 D9=179.15005638
 D10=56.74662327
 D11=121.33371329
 D12=-116.4707174
 D13=-177.40640318
 D14=-115.95824477
 D15=-68.2778947
 D16=-109.73089637
 D17=-176.27739253
 D18=-118.5018922
 D19=176.23795663
 D20=117.0273082
 D21=120.73507847
 D22=-148.01983486
 D23=-177.87826792
 D24=179.10775328
 D25=-180.93693443
 D26=119.82231069
 D27=-119.50972487
 Recover connectivity data from disk.

 GradGradGradGradGradGradGradGradGradGradGradGradGradGradGradGradGradGrad
 Berny optimization.
 Initialization pass.
                       ----------------------------
                       !    Initial Parameters    !
                       ! (Angstroms and Degrees)  !
 ----------------------                            ----------------------
 !      Name          Value   Derivative information (Atomic Units)     !
 ------------------------------------------------------------------------
 !       R2          1.5091   estimate D2E/DX2                          !
 !       R3          1.3318   estimate D2E/DX2                          !
 !       R4          1.0836   estimate D2E/DX2                          !
 !       R5          1.506    estimate D2E/DX2                          !
 !       R6          1.5685   estimate D2E/DX2                          !
 !       R7          1.0866   estimate D2E/DX2                          !
 !       R8          1.5518   estimate D2E/DX2                          !
 !       R9          1.0842   estimate D2E/DX2                          !
 !       R10         1.5505   estimate D2E/DX2                          !
 !       R11         1.0901   estimate D2E/DX2                          !
 !       R12         1.5499   estimate D2E/DX2                          !
 !       R13         1.09     estimate D2E/DX2                          !
 !       R14         1.0905   estimate D2E/DX2                          !
 !       R15         1.539    estimate D2E/DX2                          !
 !       R16         1.5441   estimate D2E/DX2                          !
 !       R17         1.0883   estimate D2E/DX2                          !
 !       R18         1.0908   estimate D2E/DX2                          !
 !       R19         1.0911   estimate D2E/DX2                          !
 !       R20         1.0905   estimate D2E/DX2                          !
 !       R21         1.1934   estimate D2E/DX2                          !
 !       R22         1.2014   estimate D2E/DX2                          !
 !       R23         1.3338   estimate D2E/DX2                          !
 !       R24         1.4499   estimate D2E/DX2                          !
 !       R25         1.0853   estimate D2E/DX2                          !
 !       R26         1.0882   estimate D2E/DX2                          !
 !       R27         1.088    estimate D2E/DX2                          !
 !       A3        114.5606   estimate D2E/DX2                          !
 !       A4        121.2032   estimate D2E/DX2                          !
 !       A5        114.1989   estimate D2E/DX2                          !
 !       A6        106.6857   estimate D2E/DX2                          !
 !       A7        112.9803   estimate D2E/DX2                          !
 !       A8        108.2322   estimate D2E/DX2                          !
 !       A9        123.7841   estimate D2E/DX2                          !
 !       A10       108.1737   estimate D2E/DX2                          !
 !       A11       112.3608   estimate D2E/DX2                          !
 !       A12       108.0161   estimate D2E/DX2                          !
 !       A13       109.8309   estimate D2E/DX2                          !
 !       A14       108.2114   estimate D2E/DX2                          !
 !       A15       103.4837   estimate D2E/DX2                          !
 !       A16       113.6839   estimate D2E/DX2                          !
 !       A17       110.5371   estimate D2E/DX2                          !
 !       A18       110.3798   estimate D2E/DX2                          !
 !       A19       109.1558   estimate D2E/DX2                          !
 !       A20       109.9732   estimate D2E/DX2                          !
 !       A21       116.1218   estimate D2E/DX2                          !
 !       A22       122.6972   estimate D2E/DX2                          !
 !       A23       112.552    estimate D2E/DX2                          !
 !       A24       115.7578   estimate D2E/DX2                          !
 !       A25       105.3955   estimate D2E/DX2                          !
 !       A26       110.0605   estimate D2E/DX2                          !
 !       A27       110.1584   estimate D2E/DX2                          !
 !       D4       -178.0519   estimate D2E/DX2                          !
 !       D5          2.2838   estimate D2E/DX2                          !
 !       D6        -59.4793   estimate D2E/DX2                          !
 !       D7       -120.7737   estimate D2E/DX2                          !
 !       D8        115.4739   estimate D2E/DX2                          !
 !       D9        179.1501   estimate D2E/DX2                          !
 !       D10        56.7466   estimate D2E/DX2                          !
 !       D11       121.3337   estimate D2E/DX2                          !
 !       D12      -116.4707   estimate D2E/DX2                          !
 !       D13      -177.4064   estimate D2E/DX2                          !
 !       D14      -115.9582   estimate D2E/DX2                          !
 !       D15       -68.2779   estimate D2E/DX2                          !
 !       D16      -109.7309   estimate D2E/DX2                          !
 !       D17      -176.2774   estimate D2E/DX2                          !
 !       D18      -118.5019   estimate D2E/DX2                          !
 !       D19       176.238    estimate D2E/DX2                          !
 !       D20       117.0273   estimate D2E/DX2                          !
 !       D21       120.7351   estimate D2E/DX2                          !
 !       D22      -148.0198   estimate D2E/DX2                          !
 !       D23      -177.8783   estimate D2E/DX2                          !
 !       D24       179.1078   estimate D2E/DX2                          !
 !       D25      -180.9369   estimate D2E/DX2                          !
 !       D26       119.8223   estimate D2E/DX2                          !
 !       D27      -119.5097   estimate D2E/DX2                          !
 ------------------------------------------------------------------------
 Trust Radius=1.00D-01 FncErr=1.00D-07 GrdErr=1.00D-06 EigMax=2.50D+02 EigMin=1.00D-04
 Number of steps in this run=     85 maximum allowed number of steps=    150.
 GradGradGradGradGradGradGradGradGradGradGradGradGradGradGradGradGradGrad

 ---------------------------------------------------------------------------------------------------
                            Z-MATRIX (ANGSTROMS AND DEGREES)
   CD    Cent   Atom    N1       Length/X        N2       Alpha/Y        N3        Beta/Z          J
 ---------------------------------------------------------------------------------------------------
      1      1  C 
      2      2  C        1   1.509120(     1)
      3      3  C        1   1.331760(     2)      2  114.561(    27)
      4      4  H        1   1.083553(     3)      2  121.203(    28)      3 -178.052(    52)      0
      5      5  C        3   1.505990(     4)      1  114.199(    29)      2    2.284(    53)      0
      6      6  C        2   1.568518(     5)      1  106.686(    30)      3  -59.479(    54)      0
      7      7  H        2   1.086593(     6)      1  112.980(    31)      6 -120.774(    55)      0
      8      8  C        2   1.551834(     7)      1  108.232(    32)      6  115.474(    56)      0
      9      9  H        3   1.084195(     8)      1  123.784(    33)      5  179.150(    57)      0
     10     10  C        5   1.550545(     9)      3  108.174(    34)      1   56.747(    58)      0
     11     11  H        5   1.090101(    10)      3  112.361(    35)     10  121.334(    59)      0
     12     12  C        5   1.549901(    11)      3  108.016(    36)     10 -116.471(    60)      0
     13     13  H        8   1.090002(    12)      2  109.831(    37)      1 -177.406(    61)      0
     14     14  H        8   1.090520(    13)      2  108.211(    38)     13 -115.958(    62)      0
     15     15  N        6   1.539008(    14)      2  103.484(    39)      1  -68.278(    63)      0
     16     16  C        6   1.544126(    15)      2  113.684(    40)     15 -109.731(    64)      0
     17     17  H       10   1.088329(    16)      5  110.537(    41)      3 -176.277(    65)      0
     18     18  H       10   1.090787(    17)      5  110.380(    42)     17 -118.502(    66)      0
     19     19  H       12   1.091073(    18)      5  109.156(    43)      3  176.238(    67)      0
     20     20  H       12   1.090546(    19)      5  109.973(    44)     19  117.027(    68)      0
     21     21  O       15   1.193444(    20)      6  116.122(    45)      2  120.735(    69)      0
     22     22  O       16   1.201412(    21)      6  122.697(    46)      2 -148.020(    70)      0
     23     23  O       16   1.333816(    22)      6  112.552(    47)     22 -177.878(    71)      0
     24     24  C       23   1.449944(    23)     16  115.758(    48)      6  179.108(    72)      0
     25     25  H       24   1.085332(    24)     23  105.395(    49)     16 -180.937(    73)      0
     26     26  H       24   1.088193(    25)     23  110.061(    50)     25  119.822(    74)      0
     27     27  H       24   1.087978(    26)     23  110.158(    51)     25 -119.510(    75)      0
 ---------------------------------------------------------------------------------------------------
                         Z-Matrix orientation:                         
 ---------------------------------------------------------------------
 Center     Atomic      Atomic             Coordinates (Angstroms)
 Number     Number       Type             X           Y           Z
 ---------------------------------------------------------------------
      1          6           0        0.000000    0.000000    0.000000
      2          6           0        0.000000    0.000000    1.509120
      3          6           0        1.211266    0.000000   -0.553553
      4          1           0       -0.926266    0.031506   -0.561361
      5          6           0        2.343240   -0.054740    0.438236
      6          6           0        0.763031   -1.294300    1.959475
      7          1           0       -1.000350    0.004418    1.933342
      8          6           0        0.824323    1.221862    1.994641
      9          1           0        1.385165    0.022549   -1.623473
     10          6           0        2.153701   -1.316502    1.319270
     11          1           0        3.318747   -0.087100   -0.047212
     12          6           0        2.234671    1.187565    1.358607
     13          1           0        0.879978    1.221394    3.083221
     14          1           0        0.288920    2.128598    1.711079
     15          7           0       -0.179316   -2.433484    1.531936
     16          6           0        0.816373   -1.481531    3.491279
     17          1           0        2.916524   -1.359073    2.094350
     18          1           0        2.254491   -2.219676    0.716001
     19          1           0        3.006830    1.132105    2.127461
     20          1           0        2.423404    2.094789    0.783615
     21          8           0        0.271720   -3.228447    0.764531
     22          8           0        1.739641   -2.010983    4.048637
     23          8           0       -0.283421   -1.035186    4.099796
     24          6           0       -0.315555   -1.195574    5.540484
     25          1           0       -1.261330   -0.767493    5.857030
     26          1           0       -0.257625   -2.250788    5.799965
     27          1           0        0.518821   -0.665897    5.995406
 ---------------------------------------------------------------------
                    Distance matrix (angstroms):
                    1          2          3          4          5
     1  C    0.000000
     2  C    1.509120   0.000000
     3  C    1.331760   2.392025   0.000000
     4  H    1.083553   2.268447   2.137778   0.000000
     5  C    2.384496   2.576929   1.505990   3.419985   0.000000
     6  C    2.469205   1.568518   2.862068   3.311510   2.519472
     7  H    2.176817   1.086593   3.328049   2.495949   3.663118
     8  C    2.480131   1.551834   2.852361   3.318834   2.521749
     9  H    2.134211   3.425249   1.084195   2.543791   2.274758
    10  C    2.848171   2.531333   2.475647   3.852284   1.550545
    11  H    3.320225   3.666584   2.169204   4.277680   1.090101
    12  C    2.872260   2.535097   2.472655   3.874825   1.549901
    13  H    3.431096   2.178063   3.850672   4.238081   3.281097
    14  H    2.746306   2.157589   3.241945   3.322417   3.256889
    15  N    2.881115   2.440188   3.493540   3.319036   3.635641
    16  C    3.879488   2.605830   4.325683   4.663685   3.699747
    17  H    3.839205   3.270426   3.430214   4.873761   2.184640
    18  H    3.243817   3.261707   2.761711   4.100816   2.184486
    19  H    3.853411   3.271855   3.419583   4.889818   2.168510
    20  H    3.297739   3.284415   2.765038   4.157689   2.178575
    21  O    3.328845   3.324321   3.611504   3.717587   3.803955
    22  O    4.843745   3.676894   5.050087   5.703586   4.150447
    23  O    4.237955   2.804200   4.995933   4.824672   4.611685
    24  C    5.676789   4.216736   6.395143   6.253895   5.865460
    25  H    6.040265   4.591767   6.913635   6.476605   6.547081
    26  H    6.226717   4.852192   6.898613   6.791348   6.351004
    27  H    6.054543   4.565014   6.619045   6.750247   5.880830
                    6          7          8          9         10
     6  C    0.000000
     7  H    2.190174   0.000000
     8  C    2.517155   2.194393   0.000000
     9  H    3.867643   4.282749   3.852745   0.000000
    10  C    1.531116   3.474183   2.943920   3.323168   0.000000
    11  H    3.466383   4.752428   3.479180   2.497071   2.176243
    12  C    2.947274   3.492208   1.547513   3.312359   2.505685
    13  H    2.757753   2.517715   1.090002   4.883177   3.342874
    14  H    3.464494   2.494747   1.090520   4.093462   3.936958
    15  N    1.539008   2.603572   3.818762   4.293752   2.595350
    16  C    1.544126   2.817036   3.090036   5.361573   2.556032
    17  H    2.158685   4.150534   3.323924   4.251605   1.088329
    18  H    2.151047   4.125834   3.940113   3.355062   1.090787
    19  H    3.309124   4.167356   2.188386   4.234432   2.716004
    20  H    3.952899   4.172962   2.187612   3.341585   3.463607
    21  O    2.325983   3.665473   4.650139   4.184650   2.739547
    22  O    2.414953   4.005479   3.938019   6.036036   2.846611
    23  O    2.396492   2.507645   3.279183   6.054650   3.708103
    24  C    3.741219   3.862693   4.440306   7.463146   4.891880
    25  H    4.423404   4.007404   4.819288   7.974085   5.705709
    26  H    4.087293   4.537441   5.264067   7.935632   5.173394
    27  H    4.091854   4.388345   4.434308   7.698820   4.996235
                   11         12         13         14         15
    11  H    0.000000
    12  C    2.185479   0.000000
    13  H    4.178440   2.193315   0.000000
    14  H    4.144967   2.189914   1.747897   0.000000
    15  N    4.498407   4.355384   4.109345   4.589546   0.000000
    16  C    4.552717   3.699180   2.734293   4.059600   2.395127
    17  H    2.523090   2.737080   3.432812   4.383497   3.324890
    18  H    2.502602   3.467366   4.397043   4.874540   2.575826
    19  H    2.512560   1.091073   2.333441   2.924621   4.818672
    20  H    2.500510   1.090546   2.903992   2.327521   5.276304
    21  O    4.450995   4.869010   5.054442   5.440053   1.193444
    22  O    4.792794   4.208565   3.481279   4.970402   3.192912
    23  O    5.574240   4.335381   2.734790   4.005381   2.925744
    24  C    6.757160   5.447118   3.648173   5.106844   4.197552
    25  H    7.503340   6.023295   4.029254   5.289568   4.759488
    26  H    7.187590   6.144873   4.553118   6.016371   4.272655
    27  H    6.684895   5.280092   3.489000   5.120304   4.851219
                   16         17         18         19         20
    16  C    0.000000
    17  H    2.525281   0.000000
    18  H    3.211730   1.754643   0.000000
    19  H    3.672764   2.493034   3.713849   0.000000
    20  H    4.764877   3.726976   4.318300   1.753017   0.000000
    21  O    3.283826   3.501138   2.225164   5.324736   5.741685
    22  O    1.201412   2.372610   3.378622   3.895598   5.290110
    23  O    1.333816   3.790299   4.392503   4.406020   5.302896
    24  C    2.358447   4.727464   5.561435   5.301420   6.399702
    25  H    3.228542   5.653512   6.395313   5.977905   6.892711
    26  H    2.659936   4.960037   5.670836   5.965561   7.157913
    27  H    2.650368   4.631168   5.770521   4.938016   6.197709
                   21         22         23         24         25
    21  O    0.000000
    22  O    3.797678   0.000000
    23  O    4.030206   2.246681   0.000000
    24  C    5.223714   2.667270   1.449944   0.000000
    25  H    5.860041   3.717846   2.028753   1.085332   0.000000
    26  H    5.156705   2.667157   2.090198   1.088193   1.791884
    27  H    5.830075   2.662625   2.091245   1.087978   1.788409
                   26         27
    26  H    0.000000
    27  H    1.775654   0.000000
 Symmetry turned off by external request.
 Stoichiometry    C10H13NO3
 Framework group  C1[X(C10H13NO3)]
 Deg. of freedom    75
 Full point group                 C1      NOp   1
 Rotational constants (GHZ):           1.1113945           0.6281890           0.5335987
 Standard basis: def2TZVP (5D, 7F)
 The following finite field(s) will be applied:
 An electric field of             -0.0040 -0.0028 -0.0087
   512 basis functions,   818 primitive gaussians,   582 cartesian basis functions
    52 alpha electrons       52 beta electrons
       nuclear repulsion energy       965.4865598299 Hartrees.
 NAtoms=   27 NActive=   27 NUniq=   27 SFac= 1.00D+00 NAtFMM=   60 NAOKFM=F Big=F
 Integral buffers will be    131072 words long.
 Raffenetti 2 integral format.
 Two-electron integral symmetry is turned off.
 One-electron integrals computed using PRISM.
   1 Symmetry operations used in ECPInt.
 ECPInt:  NShTT=   21321 NPrTT=   64608 LenC2=   20378 LenP2D=   46982.
 LDataN:  DoStor=T MaxTD1= 6 Len=  172
 NBasis=   512 RedAO= T EigKep=  1.07D-05  NBF=   512
 NBsUse=   512 1.00D-06 EigRej= -1.00D+00 NBFU=   512
 The nuclear repulsion energy is now       961.7798068337 hartrees.
 Initial guess from the checkpoint file:  "checkpoint.chk"
 B after Tr=     0.000000   -0.000000    0.000000
         Rot=    1.000000   -0.000000   -0.000000   -0.000000 Ang=   0.00 deg.
 Requested convergence on RMS density matrix=1.00D-08 within 128 cycles.
 Requested convergence on MAX density matrix=1.00D-06.
 Requested convergence on             energy=1.00D-06.
 No special actions if energy rises.
 SCF Done:  E(RB3LYP) =  -669.482297751     A.U. after   10 cycles
            NFock= 10  Conv=0.82D-08     -V/T= 2.0049
   1 Symmetry operations used in ECPInt.
 ECPInt:  NShTT=   21321 NPrTT=   64608 LenC2=   20378 LenP2D=   46982.
 LDataN:  DoStor=T MaxTD1= 7 Len=  274
 Calling FoFJK, ICntrl=      2127 FMM=F ISym2X=0 I1Cent= 0 IOpClX= 0 NMat=1 NMatS=1 NMatT=0.
 -------------------------------------------------------------------
 Center     Atomic                   Forces (Hartrees/Bohr)
 Number     Number              X              Y              Z
 -------------------------------------------------------------------
      1        6          -0.000922228    0.004362272    0.000325726
      2        6           0.000683351   -0.002869579    0.000025709
      3        6           0.000251390   -0.001806874    0.000235708
      4        1          -0.000324133    0.000098665   -0.000201406
      5        6           0.000092647    0.000038900   -0.000047631
      6        6          -0.000521766   -0.000848819   -0.000802457
      7        1           0.000028094    0.000010866    0.000119368
      8        6           0.000206534    0.000058696    0.000141740
      9        1           0.000065860    0.000099862   -0.000413998
     10        6          -0.000119498   -0.000112398   -0.000051448
     11        1           0.000070463    0.000023990    0.000038083
     12        6           0.000010662    0.000083628    0.000182681
     13        1          -0.000037370    0.000026452   -0.000217630
     14        1           0.000015979    0.000029804    0.000097627
     15        7           0.000173085    0.002535239    0.001263308
     16        6          -0.000260003   -0.000187430    0.003468458
     17        1          -0.000075001    0.000046789    0.000027896
     18        1           0.000090255   -0.000053363    0.000037829
     19        1          -0.000125748    0.000058106   -0.000168161
     20        1           0.000055743    0.000027600    0.000109395
     21        8           0.000500273   -0.001834268   -0.001621831
     22        8          -0.000549241    0.000236086   -0.001880986
     23        8           0.000558125   -0.000174691   -0.002450173
     24        6           0.000038814    0.000111039    0.001729008
     25        1           0.000133315    0.000043559    0.000049322
     26        1           0.000074627    0.000041812   -0.000041277
     27        1          -0.000114229   -0.000045944    0.000045138
 -------------------------------------------------------------------
 Cartesian Forces:  Max     0.004362272 RMS     0.000956386
 -----------------------------------------------------------------------------------------------
                       Internal Coordinate Forces (Hartree/Bohr or radian)
  Cent   Atom   N1       Length/X         N2         Alpha/Y        N3         Beta/Z          J
 -----------------------------------------------------------------------------------------------
      1  C 
      2  C        1  -0.000075(     1)
      3  C        1   0.000309(     2)      2  -0.001169(    27)
      4  H        1   0.000384(     3)      2   0.000006(    28)      3   0.000153(    52)     0
      5  C        3   0.000080(     4)      1  -0.000941(    29)      2  -0.000086(    53)     0
      6  C        2   0.000049(     5)      1  -0.002516(    30)      3  -0.001701(    54)     0
      7  H        2   0.000021(     6)      1   0.000248(    31)      6  -0.000021(    55)     0
      8  C        2   0.000196(     7)      1  -0.000035(    32)      6  -0.000303(    56)     0
      9  H        3   0.000421(     8)      1  -0.000005(    33)      5   0.000155(    57)     0
     10  C        5   0.000118(     9)      3  -0.000212(    34)      1   0.000217(    58)     0
     11  H        5   0.000045(    10)      3   0.000133(    35)     10   0.000052(    59)     0
     12  C        5   0.000213(    11)      3  -0.000031(    36)     10   0.000174(    60)     0
     13  H        8  -0.000219(    12)      2   0.000016(    37)      1   0.000080(    61)     0
     14  H        8  -0.000008(    13)      2   0.000141(    38)     13   0.000150(    62)     0
     15  N        6  -0.000832(    14)      2  -0.001072(    39)      1  -0.001235(    63)     0
     16  C        6   0.000905(    15)      2   0.001029(    40)     15  -0.002035(    64)     0
     17  H       10  -0.000035(    16)      5  -0.000002(    41)      3   0.000352(    65)     0
     18  H       10   0.000032(    17)      5   0.000094(    42)     17   0.000187(    66)     0
     19  H       12  -0.000210(    18)      5   0.000054(    43)      3  -0.000049(    67)     0
     20  H       12  -0.000025(    19)      5   0.000201(    44)     19  -0.000146(    68)     0
     21  O       15   0.002454(    20)      6   0.001059(    45)      2  -0.000124(    69)     0
     22  O       16  -0.001399(    21)      6  -0.003124(    46)      2  -0.000931(    70)     0
     23  O       16  -0.000882(    22)      6  -0.000680(    47)     22  -0.000523(    71)     0
     24  C       23   0.001751(    23)     16  -0.000126(    48)      6   0.000840(    72)     0
     25  H       24  -0.000085(    24)     23   0.000136(    49)     16   0.000002(    73)     0
     26  H       24  -0.000046(    25)     23  -0.000069(    50)     25   0.000146(    74)     0
     27  H       24  -0.000091(    26)     23   0.000184(    51)     25   0.000058(    75)     0
 -----------------------------------------------------------------------------------------------
 Internal  Forces:  Max     0.003124033 RMS     0.000793882

 GradGradGradGradGradGradGradGradGradGradGradGradGradGradGradGradGradGrad
 Berny optimization.
 Search for a local minimum.
 Step number   1 out of a maximum of   85
 All quantities printed in internal units (Hartrees-Bohrs-Radians)
 Second derivative matrix not updated -- first step.
 ITU=  0
     Eigenvalues ---    0.00881   0.03510   0.04343   0.05311   0.07200
     Eigenvalues ---    0.07572   0.08071   0.09000   0.09880   0.10831
     Eigenvalues ---    0.10990   0.12041   0.15299   0.15599   0.17216
     Eigenvalues ---    0.17613   0.18959   0.19258   0.19407   0.21545
     Eigenvalues ---    0.23030   0.23709   0.24558   0.24795   0.25317
     Eigenvalues ---    0.26639   0.26794   0.27320   0.27938   0.28156
     Eigenvalues ---    0.28452   0.28607   0.29771   0.30918   0.31030
     Eigenvalues ---    0.31547   0.32058   0.32477   0.32659   0.34010
     Eigenvalues ---    0.34689   0.34724   0.34753   0.34756   0.34802
     Eigenvalues ---    0.34814   0.34998   0.35007   0.35043   0.35210
     Eigenvalues ---    0.35319   0.35492   0.35568   0.35627   0.36046
     Eigenvalues ---    0.38252   0.43004   0.44088   0.48158   0.51709
     Eigenvalues ---    0.51967   0.56554   0.58604   0.62667   0.68881
     Eigenvalues ---    0.80218   0.89816   0.99617   1.04120   1.08188
     Eigenvalues ---    1.74369   3.02290   6.96561   9.08240  23.37542
 RFO step:  Lambda=-8.91333316D-05 EMin= 8.80951372D-03
 Linear search not attempted -- first point.
 Variable       Old X    -DE/DX   Delta X   Delta X   Delta X     New X
                                 (Linear)    (Quad)   (Total)
    R2        2.85182  -0.00007   0.00000   0.00034   0.00034   2.85216
    R3        2.51666   0.00031   0.00000   0.00075   0.00075   2.51741
    R4        2.04762   0.00038   0.00000   0.00108   0.00108   2.04870
    R5        2.84591   0.00008   0.00000   0.00004   0.00004   2.84595
    R6        2.96407   0.00005   0.00000   0.00045   0.00045   2.96452
    R7        2.05336   0.00002   0.00000   0.00006   0.00006   2.05343
    R8        2.93254   0.00020   0.00000   0.00066   0.00066   2.93320
    R9        2.04883   0.00042   0.00000   0.00119   0.00119   2.05002
   R10        2.93010   0.00012   0.00000   0.00023   0.00023   2.93033
   R11        2.05999   0.00005   0.00000   0.00013   0.00013   2.06012
   R12        2.92889   0.00021   0.00000   0.00043   0.00043   2.92931
   R13        2.05981  -0.00022   0.00000  -0.00063  -0.00063   2.05917
   R14        2.06078  -0.00001   0.00000  -0.00001  -0.00001   2.06077
   R15        2.90830  -0.00083   0.00000  -0.00287  -0.00287   2.90544
   R16        2.91797   0.00091   0.00000   0.00323   0.00323   2.92121
   R17        2.05664  -0.00003   0.00000  -0.00010  -0.00010   2.05654
   R18        2.06129   0.00003   0.00000   0.00009   0.00009   2.06138
   R19        2.06183  -0.00021   0.00000  -0.00061  -0.00061   2.06122
   R20        2.06083  -0.00003   0.00000  -0.00006  -0.00006   2.06077
   R21        2.25528   0.00245   0.00000   0.00229   0.00229   2.25758
   R22        2.27034  -0.00140   0.00000  -0.00131  -0.00131   2.26903
   R23        2.52055  -0.00088   0.00000  -0.00149  -0.00149   2.51905
   R24        2.74000   0.00175   0.00000   0.00460   0.00460   2.74460
   R25        2.05098  -0.00008   0.00000  -0.00022  -0.00022   2.05076
   R26        2.05639  -0.00005   0.00000  -0.00011  -0.00011   2.05628
   R27        2.05598  -0.00009   0.00000  -0.00028  -0.00028   2.05570
    A3        1.99946  -0.00117   0.00000   0.00024   0.00024   1.99970
    A4        2.11539   0.00001   0.00000  -0.00016  -0.00016   2.11523
    A5        1.99315  -0.00094   0.00000  -0.00004  -0.00004   1.99311
    A6        1.86202  -0.00252   0.00000  -0.00397  -0.00397   1.85804
    A7        1.97188   0.00025   0.00000   0.00118   0.00118   1.97306
    A8        1.88901  -0.00004   0.00000   0.00159   0.00159   1.89060
    A9        2.16044  -0.00001   0.00000   0.00000   0.00000   2.16044
   A10        1.88799  -0.00021   0.00000  -0.00124  -0.00124   1.88674
   A11        1.96107   0.00013   0.00000   0.00070   0.00070   1.96177
   A12        1.88524  -0.00003   0.00000   0.00034   0.00034   1.88558
   A13        1.91691   0.00002   0.00000   0.00012   0.00012   1.91703
   A14        1.88864   0.00014   0.00000  -0.00004  -0.00004   1.88860
   A15        1.80613  -0.00107   0.00000  -0.00228  -0.00228   1.80385
   A16        1.98416   0.00103   0.00000   0.00151   0.00151   1.98567
   A17        1.92924  -0.00000   0.00000  -0.00080  -0.00080   1.92844
   A18        1.92649   0.00009   0.00000   0.00063   0.00063   1.92712
   A19        1.90513   0.00005   0.00000   0.00044   0.00044   1.90557
   A20        1.91939   0.00020   0.00000   0.00053   0.00053   1.91992
   A21        2.02671   0.00106   0.00000   0.00422   0.00422   2.03092
   A22        2.14147  -0.00312   0.00000  -0.00554  -0.00554   2.13593
   A23        1.96440  -0.00068   0.00000   0.00076   0.00076   1.96517
   A24        2.02035  -0.00013   0.00000   0.00063   0.00063   2.02099
   A25        1.83950   0.00014   0.00000  -0.00013  -0.00013   1.83936
   A26        1.92092  -0.00007   0.00000  -0.00144  -0.00144   1.91947
   A27        1.92263   0.00018   0.00000   0.00255   0.00255   1.92518
    D4       -3.10759   0.00015   0.00000   0.00417   0.00417  -3.10342
    D5        0.03986  -0.00009   0.00000   0.00346   0.00346   0.04332
    D6       -1.03811  -0.00170   0.00000  -0.00454  -0.00454  -1.04265
    D7       -2.10790  -0.00002   0.00000   0.00217   0.00217  -2.10573
    D8        2.01540  -0.00030   0.00000   0.00040   0.00040   2.01580
    D9        3.12676   0.00016   0.00000   0.00075   0.00075   3.12751
   D10        0.99042   0.00022   0.00000  -0.00154  -0.00154   0.98887
   D11        2.11767   0.00005   0.00000  -0.00004  -0.00004   2.11763
   D12       -2.03280   0.00017   0.00000  -0.00006  -0.00006  -2.03285
   D13       -3.09633   0.00008   0.00000   0.00158   0.00158  -3.09475
   D14       -2.02385   0.00015   0.00000   0.00100   0.00100  -2.02286
   D15       -1.19167  -0.00123   0.00000   0.00516   0.00516  -1.18651
   D16       -1.91517  -0.00204   0.00000  -0.00320  -0.00320  -1.91836
   D17       -3.07662   0.00035   0.00000   0.00262   0.00262  -3.07400
   D18       -2.06825   0.00019   0.00000   0.00034   0.00034  -2.06791
   D19        3.07593  -0.00005   0.00000   0.00035   0.00035   3.07628
   D20        2.04251  -0.00015   0.00000  -0.00051  -0.00051   2.04200
   D21        2.10722  -0.00012   0.00000  -0.01208  -0.01208   2.09515
   D22       -2.58343  -0.00093   0.00000  -0.00492  -0.00492  -2.58836
   D23       -3.10456  -0.00052   0.00000  -0.00570  -0.00570  -3.11026
   D24        3.12602   0.00084   0.00000   0.01304   0.01304   3.13906
   D25       -3.15795   0.00000   0.00000   0.00747   0.00747  -3.15047
   D26        2.09129   0.00015   0.00000  -0.00073  -0.00073   2.09057
   D27       -2.08584   0.00006   0.00000  -0.00040  -0.00040  -2.08624
         Item               Value     Threshold  Converged?
 Maximum Force            0.003124     0.000450     NO 
 RMS     Force            0.000794     0.000300     NO 
 Maximum Displacement     0.013039     0.001800     NO 
 RMS     Displacement     0.003006     0.001200     NO 
 Predicted change in Energy=-4.459689D-05
 GradGradGradGradGradGradGradGradGradGradGradGradGradGradGradGradGradGrad

 ---------------------------------------------------------------------------------------------------
                            Z-MATRIX (ANGSTROMS AND DEGREES)
   CD    Cent   Atom    N1       Length/X        N2       Alpha/Y        N3        Beta/Z          J
 ---------------------------------------------------------------------------------------------------
      1      1  C 
      2      2  C        1   1.509299(     1)
      3      3  C        1   1.332158(     2)      2  114.574(    27)
      4      4  H        1   1.084125(     3)      2  121.194(    28)      3 -177.813(    52)      0
      5      5  C        3   1.506012(     4)      1  114.197(    29)      2    2.482(    53)      0
      6      6  C        2   1.568755(     5)      1  106.458(    30)      3  -59.739(    54)      0
      7      7  H        2   1.086627(     6)      1  113.048(    31)      6 -120.649(    55)      0
      8      8  C        2   1.552182(     7)      1  108.323(    32)      6  115.497(    56)      0
      9      9  H        3   1.084822(     8)      1  123.784(    33)      5  179.193(    57)      0
     10     10  C        5   1.550665(     9)      3  108.102(    34)      1   56.658(    58)      0
     11     11  H        5   1.090170(    10)      3  112.401(    35)     10  121.331(    59)      0
     12     12  C        5   1.550126(    11)      3  108.036(    36)     10 -116.474(    60)      0
     13     13  H        8   1.089667(    12)      2  109.838(    37)      1 -177.316(    61)      0
     14     14  H        8   1.090514(    13)      2  108.209(    38)     13 -115.901(    62)      0
     15     15  N        6   1.537491(    14)      2  103.353(    39)      1  -67.982(    63)      0
     16     16  C        6   1.545837(    15)      2  113.770(    40)     15 -109.914(    64)      0
     17     17  H       10   1.088275(    16)      5  110.491(    41)      3 -176.127(    65)      0
     18     18  H       10   1.090834(    17)      5  110.416(    42)     17 -118.482(    66)      0
     19     19  H       12   1.090750(    18)      5  109.181(    43)      3  176.258(    67)      0
     20     20  H       12   1.090513(    19)      5  110.004(    44)     19  116.998(    68)      0
     21     21  O       15   1.194658(    20)      6  116.363(    45)      2  120.043(    69)      0
     22     22  O       16   1.200719(    21)      6  122.380(    46)      2 -148.302(    70)      0
     23     23  O       16   1.333024(    22)      6  112.596(    47)     22 -178.205(    71)      0
     24     24  C       23   1.452378(    23)     16  115.794(    48)      6  179.855(    72)      0
     25     25  H       24   1.085217(    24)     23  105.388(    49)     16 -180.509(    73)      0
     26     26  H       24   1.088136(    25)     23  109.978(    50)     25  119.781(    74)      0
     27     27  H       24   1.087827(    26)     23  110.305(    51)     25 -119.533(    75)      0
 ---------------------------------------------------------------------------------------------------
                         Z-Matrix orientation:                         
 ---------------------------------------------------------------------
 Center     Atomic      Atomic             Coordinates (Angstroms)
 Number     Number       Type             X           Y           Z
 ---------------------------------------------------------------------
      1          6           0        0.000000    0.000000    0.000000
      2          6           0        0.000000    0.000000    1.509299
      3          6           0        1.211493    0.000000   -0.554012
      4          1           0       -0.926707    0.035395   -0.561505
      5          6           0        2.343603   -0.059491    0.437381
      6          6           0        0.758159   -1.299480    1.953750
      7          1           0       -0.999865    0.006785    1.934717
      8          6           0        0.829128    1.218072    1.997271
      9          1           0        1.385277    0.026356   -1.624500
     10          6           0        2.149577   -1.323064    1.315048
     11          1           0        3.319302   -0.093348   -0.047734
     12          6           0        2.238789    1.181309    1.360593
     13          1           0        0.885207    1.215160    3.085491
     14          1           0        0.296403    2.127315    1.716734
     15          7           0       -0.188025   -2.429719    1.516513
     16          6           0        0.812588   -1.495826    3.486100
     17          1           0        2.910659   -1.368053    2.091625
     18          1           0        2.250528   -2.225437    0.710522
     19          1           0        3.010977    1.122723    2.128726
     20          1           0        2.429806    2.089526    0.787990
     21          8           0        0.252660   -3.217596    0.734046
     22          8           0        1.734574   -2.037045    4.032680
     23          8           0       -0.278112   -1.037432    4.100268
     24          6           0       -0.301487   -1.190124    5.544409
     25          1           0       -1.244767   -0.759319    5.864295
     26          1           0       -0.243714   -2.244326    5.807769
     27          1           0        0.535530   -0.660065    5.993641
 ---------------------------------------------------------------------
                    Distance matrix (angstroms):
                    1          2          3          4          5
     1  C    0.000000
     2  C    1.509299   0.000000
     3  C    1.332158   2.392690   0.000000
     4  H    1.084125   2.268979   2.138506   0.000000
     5  C    2.384810   2.577794   1.506012   3.420776   0.000000
     6  C    2.465886   1.568755   2.860600   3.308651   2.520036
     7  H    2.177822   1.086627   3.329253   2.497458   3.664040
     8  C    2.481984   1.552182   2.852885   3.320996   2.521718
     9  H    2.135108   3.426424   1.084822   2.544663   2.275327
    10  C    2.846143   2.531583   2.474648   3.851023   1.550665
    11  H    3.320957   3.667538   2.169767   4.278916   1.090170
    12  C    2.873827   2.535701   2.473164   3.876589   1.550126
    13  H    3.432267   2.178207   3.850852   4.239747   3.280875
    14  H    2.749636   2.157859   3.243323   3.326034   3.257283
    15  N    2.870313   2.436994   3.485579   3.307657   3.632030
    16  C    3.879522   2.608743   4.326561   4.664000   3.701588
    17  H    3.836457   3.268426   3.429013   4.871770   2.184126
    18  H    3.243808   3.264275   2.762464   4.101735   2.185084
    19  H    3.854603   3.272641   3.419902   4.891317   2.168793
    20  H    3.300152   3.284868   2.766112   4.160140   2.179136
    21  O    3.309923   3.319304   3.596023   3.694768   3.799169
    22  O    4.839505   3.677737   5.045880   5.699470   4.148229
    23  O    4.238610   2.804770   4.995750   4.827397   4.609393
    24  C    5.678711   4.217748   6.395017   6.258991   5.861447
    25  H    6.042844   4.592603   6.914076   6.482564   6.543512
    26  H    6.231098   4.855229   6.901224   6.799357   6.348920
    27  H    6.053611   4.564187   6.615465   6.752165   5.873827
                    6          7          8          9         10
     6  C    0.000000
     7  H    2.190283   0.000000
     8  C    2.518929   2.194617   0.000000
     9  H    3.867168   4.284544   3.853144   0.000000
    10  C    1.531189   3.474402   2.943873   3.323557   0.000000
    11  H    3.467008   4.753456   3.478914   2.498194   2.176611
    12  C    2.949308   3.492565   1.547209   3.312579   2.506376
    13  H    2.760507   2.517528   1.089667   4.883374   3.343005
    14  H    3.465880   2.494890   1.090514   4.094328   3.937096
    15  N    1.537491   2.602024   3.817343   4.286437   2.594157
    16  C    1.545837   2.819506   3.095501   5.363138   2.555553
    17  H    2.158001   4.148132   3.321102   4.252147   1.088275
    18  H    2.151784   4.128744   3.941302   3.357314   1.090834
    19  H    3.312533   4.167711   2.187885   4.234575   2.717712
    20  H    3.954587   4.173181   2.187227   3.341829   3.464403
    21  O    2.328599   3.661566   4.647925   4.167588   2.743193
    22  O    2.412330   4.006974   3.944427   6.031858   2.840338
    23  O    2.397930   2.510164   3.276564   6.055698   3.705767
    24  C    3.745349   3.866548   4.433946   7.464466   4.890080
    25  H    4.426720   4.011044   4.813002   7.975993   5.703948
    26  H    4.092670   4.543104   5.259190   7.940292   5.173114
    27  H    4.096235   4.390557   4.425446   7.696059   4.993391
                   11         12         13         14         15
    11  H    0.000000
    12  C    2.185325   0.000000
    13  H    4.177812   2.192853   0.000000
    14  H    4.145192   2.189664   1.747058   0.000000
    15  N    4.495202   4.353534   4.110798   4.587082   0.000000
    16  C    4.553959   3.703901   2.741388   4.065004   2.398470
    17  H    2.523632   2.735885   3.429755   4.380922   3.325617
    18  H    2.502605   3.468235   4.397987   4.876220   2.576410
    19  H    2.512145   1.090750   2.332991   2.923672   4.819571
    20  H    2.500916   1.090513   2.903241   2.327101   5.273268
    21  O    4.447066   4.866995   5.057543   5.434673   1.194658
    22  O    4.789478   4.213323   3.492196   4.977332   3.190873
    23  O    5.571230   4.331677   2.730798   4.003365   2.936387
    24  C    6.751673   5.438843   3.638669   5.100389   4.215853
    25  H    7.498422   6.015358   4.019590   5.283003   4.775997
    26  H    7.183921   6.138011   4.544591   6.011618   4.295620
    27  H    6.675985   5.268481   3.477942   5.110637   4.868252
                   16         17         18         19         20
    16  C    0.000000
    17  H    2.522457   0.000000
    18  H    3.209960   1.754516   0.000000
    19  H    3.678611   2.493071   3.714803   0.000000
    20  H    4.769689   3.726330   4.319381   1.752153   0.000000
    21  O    3.294209   3.511238   2.230787   5.328397   5.736586
    22  O    1.200719   2.366098   3.367259   3.903637   5.295276
    23  O    1.333024   3.783150   4.392694   4.401291   5.299233
    24  C    2.360350   4.719243   5.563373   5.290422   6.390585
    25  H    3.229700   5.645455   6.397497   5.967237   6.883841
    26  H    2.658228   4.952540   5.674816   5.955283   7.150396
    27  H    2.657634   4.622577   5.770871   4.923794   6.184443
                   21         22         23         24         25
    21  O    0.000000
    22  O    3.804044   0.000000
    23  O    4.045526   2.248266   0.000000
    24  C    5.249506   2.673602   1.452378   0.000000
    25  H    5.882590   3.723422   2.030655   1.085217   0.000000
    26  H    5.190020   2.665996   2.091252   1.088136   1.791800
    27  H    5.855281   2.679394   2.095061   1.087827   1.787746
                   26         27
    26  H    0.000000
    27  H    1.775289   0.000000
 Symmetry turned off by external request.
 Stoichiometry    C10H13NO3
 Framework group  C1[X(C10H13NO3)]
 Deg. of freedom    75
 Full point group                 C1      NOp   1
 Rotational constants (GHZ):           1.1095287           0.6287177           0.5333781
 Standard basis: def2TZVP (5D, 7F)
 The following finite field(s) will be applied:
 An electric field of             -0.0040 -0.0028 -0.0087
   512 basis functions,   818 primitive gaussians,   582 cartesian basis functions
    52 alpha electrons       52 beta electrons
       nuclear repulsion energy       965.3586623344 Hartrees.
 NAtoms=   27 NActive=   27 NUniq=   27 SFac= 1.00D+00 NAtFMM=   60 NAOKFM=F Big=F
 Integral buffers will be    131072 words long.
 Raffenetti 2 integral format.
 Two-electron integral symmetry is turned off.
 One-electron integrals computed using PRISM.
   1 Symmetry operations used in ECPInt.
 ECPInt:  NShTT=   21321 NPrTT=   64608 LenC2=   20377 LenP2D=   46983.
 LDataN:  DoStor=T MaxTD1= 6 Len=  172
 NBasis=   512 RedAO= T EigKep=  1.07D-05  NBF=   512
 NBsUse=   512 1.00D-06 EigRej= -1.00D+00 NBFU=   512
 The nuclear repulsion energy is now       961.6626483310 hartrees.
 Initial guess from the checkpoint file:  "checkpoint.chk"
 B after Tr=    -0.002526    0.016142    0.000304
         Rot=    0.999994   -0.001808   -0.001209    0.002664 Ang=  -0.39 deg.
 Requested convergence on RMS density matrix=1.00D-08 within 128 cycles.
 Requested convergence on MAX density matrix=1.00D-06.
 Requested convergence on             energy=1.00D-06.
 No special actions if energy rises.
 SCF Done:  E(RB3LYP) =  -669.482354021     A.U. after   11 cycles
            NFock= 11  Conv=0.60D-08     -V/T= 2.0049
   1 Symmetry operations used in ECPInt.
 ECPInt:  NShTT=   21321 NPrTT=   64608 LenC2=   20377 LenP2D=   46983.
 LDataN:  DoStor=T MaxTD1= 7 Len=  274
 Calling FoFJK, ICntrl=      2127 FMM=F ISym2X=0 I1Cent= 0 IOpClX= 0 NMat=1 NMatS=1 NMatT=0.
 -------------------------------------------------------------------
 Center     Atomic                   Forces (Hartrees/Bohr)
 Number     Number              X              Y              Z
 -------------------------------------------------------------------
      1        6          -0.000961651    0.005284985   -0.000088650
      2        6           0.000874483   -0.003179201   -0.000161606
      3        6          -0.000065196   -0.001707825    0.000026383
      4        1           0.000017254    0.000035461   -0.000020850
      5        6           0.000008607    0.000024836   -0.000083843
      6        6          -0.000373507   -0.001322706   -0.000776927
      7        1           0.000019839    0.000019501    0.000009783
      8        6           0.000055564   -0.000073545   -0.000054570
      9        1          -0.000034563   -0.000029542    0.000003021
     10        6           0.000162718    0.000090260    0.000023109
     11        1          -0.000002915   -0.000006093    0.000005316
     12        6          -0.000100025   -0.000003582    0.000033338
     13        1          -0.000033660   -0.000071698   -0.000013462
     14        1          -0.000029623   -0.000003178    0.000017115
     15        7          -0.000182013    0.001388389    0.000996182
     16        6          -0.000447889    0.000451010    0.001467514
     17        1          -0.000030107    0.000007432   -0.000027128
     18        1          -0.000007283    0.000010565   -0.000017647
     19        1           0.000026619   -0.000040718   -0.000014172
     20        1           0.000035726   -0.000000101    0.000002467
     21        8           0.000630533   -0.000379187   -0.000484836
     22        8          -0.000299127   -0.000236977   -0.000430791
     23        8           0.000724512   -0.000065971   -0.000909672
     24        6          -0.000194324   -0.000436154    0.000914886
     25        1           0.000068736    0.000071896   -0.000059001
     26        1           0.000032114    0.000066138   -0.000015508
     27        1           0.000105178    0.000106006   -0.000340450
 -------------------------------------------------------------------
 Cartesian Forces:  Max     0.005284985 RMS     0.000819949
 -----------------------------------------------------------------------------------------------
                       Internal Coordinate Forces (Hartree/Bohr or radian)
  Cent   Atom   N1       Length/X         N2         Alpha/Y        N3         Beta/Z          J
 -----------------------------------------------------------------------------------------------
      1  C 
      2  C        1   0.000159(     1)
      3  C        1   0.000015(     2)      2   0.000689(    27)
      4  H        1  -0.000003(     3)      2   0.000053(    28)      3   0.000063(    52)     0
      5  C        3   0.000015(     4)      1   0.000515(    29)      2  -0.000271(    53)     0
      6  C        2   0.000430(     5)      1  -0.000011(    30)      3  -0.001656(    54)     0
      7  H        2  -0.000014(     6)      1   0.000034(    31)      6  -0.000037(    55)     0
      8  C        2  -0.000137(     7)      1   0.000140(    32)      6  -0.000168(    56)     0
      9  H        3  -0.000009(     8)      1  -0.000068(    33)      5  -0.000051(    57)     0
     10  C        5  -0.000116(     9)      3   0.000328(    34)      1   0.000212(    58)     0
     11  H        5  -0.000005(    10)      3   0.000008(    35)     10  -0.000012(    59)     0
     12  C        5  -0.000020(    11)      3   0.000103(    36)     10   0.000133(    60)     0
     13  H        8  -0.000015(    12)      2  -0.000161(    37)      1   0.000081(    61)     0
     14  H        8   0.000007(    13)      2  -0.000033(    38)     13   0.000058(    62)     0
     15  N        6  -0.001163(    14)      2  -0.000154(    39)      1  -0.001007(    63)     0
     16  C        6   0.000627(    15)      2   0.000804(    40)     15  -0.000885(    64)     0
     17  H       10  -0.000041(    16)      5  -0.000007(    41)      3  -0.000011(    65)     0
     18  H       10   0.000000(    17)      5  -0.000039(    42)     17  -0.000021(    66)     0
     19  H       12   0.000011(    18)      5  -0.000101(    43)      3  -0.000059(    67)     0
     20  H       12   0.000005(    19)      5  -0.000006(    44)     19  -0.000068(    68)     0
     21  O       15   0.000800(    20)      6  -0.000823(    45)      2   0.000112(    69)     0
     22  O       16  -0.000319(    21)      6  -0.000636(    46)      2  -0.000977(    70)     0
     23  O       16  -0.000880(    22)      6   0.000478(    47)     22  -0.000232(    71)     0
     24  C       23   0.000517(    23)     16  -0.000503(    48)      6   0.000319(    72)     0
     25  H       24  -0.000049(    24)     23  -0.000116(    49)     16  -0.000103(    73)     0
     26  H       24  -0.000066(    25)     23  -0.000001(    50)     25   0.000069(    74)     0
     27  H       24  -0.000008(    26)     23  -0.000764(    51)     25   0.000003(    75)     0
 -----------------------------------------------------------------------------------------------
 Internal  Forces:  Max     0.001655553 RMS     0.000422765

 GradGradGradGradGradGradGradGradGradGradGradGradGradGradGradGradGradGrad
 Berny optimization.
 Search for a local minimum.
 Step number   2 out of a maximum of   85
 All quantities printed in internal units (Hartrees-Bohrs-Radians)
 Update second derivatives using D2CorN and points    1    2
 DE= -5.63D-05 DEPred=-4.46D-05 R= 1.26D+00
 TightC=F SS=  1.41D+00  RLast= 2.60D-02 DXNew= 1.6818D-01 7.8105D-02
 Trust test= 1.26D+00 RLast= 2.60D-02 DXMaxT set to 1.00D-01
 ITU=  1  0
     Eigenvalues ---    0.00762   0.03496   0.03793   0.05342   0.06766
     Eigenvalues ---    0.07545   0.08049   0.08873   0.09677   0.10771
     Eigenvalues ---    0.11009   0.11996   0.15278   0.15595   0.17171
     Eigenvalues ---    0.17593   0.18957   0.19241   0.19405   0.21549
     Eigenvalues ---    0.22953   0.23708   0.24524   0.24797   0.25870
     Eigenvalues ---    0.26497   0.26778   0.27192   0.27799   0.28006
     Eigenvalues ---    0.28402   0.28590   0.29769   0.30928   0.31030
     Eigenvalues ---    0.31541   0.32057   0.32469   0.32659   0.33991
     Eigenvalues ---    0.34690   0.34724   0.34753   0.34756   0.34802
     Eigenvalues ---    0.34813   0.34994   0.35007   0.35042   0.35210
     Eigenvalues ---    0.35321   0.35488   0.35557   0.35609   0.36122
     Eigenvalues ---    0.37944   0.43044   0.44108   0.48167   0.51648
     Eigenvalues ---    0.51945   0.56566   0.58461   0.62685   0.68838
     Eigenvalues ---    0.79521   0.89746   0.99623   1.04057   1.07963
     Eigenvalues ---    1.74355   3.02249   6.96539   9.08236  23.37552
 RFO step:  Lambda=-4.67976336D-05 EMin= 7.61811825D-03
 Quartic linear search produced a step of  0.35634.
 Variable       Old X    -DE/DX   Delta X   Delta X   Delta X     New X
                                 (Linear)    (Quad)   (Total)
    R2        2.85216   0.00016   0.00012   0.00032   0.00044   2.85260
    R3        2.51741   0.00001   0.00027  -0.00067  -0.00040   2.51701
    R4        2.04870  -0.00000   0.00038  -0.00030   0.00008   2.04878
    R5        2.84595   0.00002   0.00001  -0.00021  -0.00019   2.84576
    R6        2.96452   0.00043   0.00016   0.00239   0.00255   2.96707
    R7        2.05343  -0.00001   0.00002  -0.00008  -0.00006   2.05337
    R8        2.93320  -0.00014   0.00023  -0.00099  -0.00076   2.93244
    R9        2.05002  -0.00001   0.00042  -0.00036   0.00006   2.05008
   R10        2.93033  -0.00012   0.00008   0.00028   0.00037   2.93070
   R11        2.06012  -0.00000   0.00005  -0.00006  -0.00001   2.06011
   R12        2.92931  -0.00002   0.00015  -0.00034  -0.00018   2.92913
   R13        2.05917  -0.00001  -0.00023   0.00009  -0.00013   2.05904
   R14        2.06077   0.00001  -0.00000   0.00005   0.00004   2.06082
   R15        2.90544  -0.00116  -0.00102  -0.00613  -0.00715   2.89829
   R16        2.92121   0.00063   0.00115   0.00296   0.00411   2.92532
   R17        2.05654  -0.00004  -0.00004  -0.00017  -0.00021   2.05633
   R18        2.06138   0.00000   0.00003  -0.00003   0.00001   2.06138
   R19        2.06122   0.00001  -0.00022   0.00021  -0.00001   2.06121
   R20        2.06077   0.00000  -0.00002   0.00005   0.00002   2.06079
   R21        2.25758   0.00080   0.00082   0.00053   0.00134   2.25892
   R22        2.26903  -0.00032  -0.00047  -0.00003  -0.00050   2.26853
   R23        2.51905  -0.00088  -0.00053  -0.00207  -0.00260   2.51645
   R24        2.74460   0.00052   0.00164   0.00103   0.00267   2.74726
   R25        2.05076  -0.00005  -0.00008  -0.00014  -0.00022   2.05055
   R26        2.05628  -0.00007  -0.00004  -0.00027  -0.00031   2.05597
   R27        2.05570  -0.00001  -0.00010  -0.00001  -0.00011   2.05559
    A3        1.99970   0.00069   0.00009   0.00031   0.00039   2.00009
    A4        2.11523   0.00005  -0.00006   0.00009   0.00003   2.11526
    A5        1.99311   0.00052  -0.00001  -0.00002  -0.00003   1.99308
    A6        1.85804  -0.00001  -0.00142   0.00089  -0.00053   1.85752
    A7        1.97306   0.00003   0.00042   0.00001   0.00043   1.97350
    A8        1.89060   0.00014   0.00057   0.00045   0.00102   1.89161
    A9        2.16044  -0.00007   0.00000  -0.00037  -0.00037   2.16007
   A10        1.88674   0.00033  -0.00044   0.00090   0.00046   1.88720
   A11        1.96177   0.00001   0.00025  -0.00002   0.00023   1.96200
   A12        1.88558   0.00010   0.00012  -0.00023  -0.00011   1.88547
   A13        1.91703  -0.00016   0.00004  -0.00107  -0.00103   1.91599
   A14        1.88860  -0.00003  -0.00002  -0.00030  -0.00032   1.88829
   A15        1.80385  -0.00015  -0.00081  -0.00030  -0.00111   1.80273
   A16        1.98567   0.00080   0.00054   0.00257   0.00311   1.98878
   A17        1.92844  -0.00001  -0.00029  -0.00025  -0.00053   1.92791
   A18        1.92712  -0.00004   0.00022  -0.00040  -0.00017   1.92695
   A19        1.90557  -0.00010   0.00016  -0.00052  -0.00037   1.90520
   A20        1.91992  -0.00001   0.00019  -0.00022  -0.00003   1.91990
   A21        2.03092  -0.00082   0.00150  -0.00659  -0.00509   2.02584
   A22        2.13593  -0.00064  -0.00198  -0.00086  -0.00284   2.13309
   A23        1.96517   0.00048   0.00027   0.00146   0.00173   1.96689
   A24        2.02099  -0.00050   0.00022  -0.00127  -0.00104   2.01994
   A25        1.83936  -0.00012  -0.00005  -0.00113  -0.00118   1.83819
   A26        1.91947  -0.00000  -0.00051   0.00054   0.00002   1.91950
   A27        1.92518  -0.00076   0.00091  -0.00334  -0.00244   1.92274
    D4       -3.10342   0.00006   0.00149   0.00256   0.00404  -3.09937
    D5        0.04332  -0.00027   0.00123   0.00202   0.00326   0.04658
    D6       -1.04265  -0.00166  -0.00162  -0.00100  -0.00262  -1.04527
    D7       -2.10573  -0.00004   0.00077  -0.00039   0.00038  -2.10535
    D8        2.01580  -0.00017   0.00014  -0.00079  -0.00064   2.01515
    D9        3.12751  -0.00005   0.00027  -0.00161  -0.00135   3.12616
   D10        0.98887   0.00021  -0.00055  -0.00174  -0.00228   0.98659
   D11        2.11763  -0.00001  -0.00001   0.00058   0.00057   2.11820
   D12       -2.03285   0.00013  -0.00002   0.00066   0.00064  -2.03222
   D13       -3.09475   0.00008   0.00056   0.00116   0.00172  -3.09302
   D14       -2.02286   0.00006   0.00036   0.00034   0.00070  -2.02216
   D15       -1.18651  -0.00101   0.00184  -0.00097   0.00087  -1.18565
   D16       -1.91836  -0.00088  -0.00114   0.00031  -0.00082  -1.91919
   D17       -3.07400  -0.00001   0.00093  -0.00043   0.00050  -3.07349
   D18       -2.06791  -0.00002   0.00012  -0.00002   0.00011  -2.06780
   D19        3.07628  -0.00006   0.00012  -0.00000   0.00012   3.07640
   D20        2.04200  -0.00007  -0.00018  -0.00040  -0.00059   2.04141
   D21        2.09515   0.00011  -0.00430  -0.01830  -0.02260   2.07254
   D22       -2.58836  -0.00098  -0.00175  -0.01688  -0.01864  -2.60699
   D23       -3.11026  -0.00023  -0.00203   0.00276   0.00073  -3.10953
   D24        3.13906   0.00032   0.00465   0.00421   0.00886   3.14791
   D25       -3.15047  -0.00010   0.00266   0.01073   0.01339  -3.13708
   D26        2.09057   0.00007  -0.00026   0.00052   0.00027   2.09083
   D27       -2.08624   0.00000  -0.00014   0.00061   0.00046  -2.08578
         Item               Value     Threshold  Converged?
 Maximum Force            0.001656     0.000450     NO 
 RMS     Force            0.000423     0.000300     NO 
 Maximum Displacement     0.022604     0.001800     NO 
 RMS     Displacement     0.004189     0.001200     NO 
 Predicted change in Energy=-2.282919D-05
 GradGradGradGradGradGradGradGradGradGradGradGradGradGradGradGradGradGrad

 ---------------------------------------------------------------------------------------------------
                            Z-MATRIX (ANGSTROMS AND DEGREES)
   CD    Cent   Atom    N1       Length/X        N2       Alpha/Y        N3        Beta/Z          J
 ---------------------------------------------------------------------------------------------------
      1      1  C 
      2      2  C        1   1.509532(     1)
      3      3  C        1   1.331946(     2)      2  114.597(    27)
      4      4  H        1   1.084167(     3)      2  121.195(    28)      3 -177.581(    52)      0
      5      5  C        3   1.505909(     4)      1  114.195(    29)      2    2.669(    53)      0
      6      6  C        2   1.570103(     5)      1  106.428(    30)      3  -59.889(    54)      0
      7      7  H        2   1.086596(     6)      1  113.073(    31)      6 -120.628(    55)      0
      8      8  C        2   1.551782(     7)      1  108.381(    32)      6  115.460(    56)      0
      9      9  H        3   1.084853(     8)      1  123.763(    33)      5  179.116(    57)      0
     10     10  C        5   1.550858(     9)      3  108.129(    34)      1   56.527(    58)      0
     11     11  H        5   1.090163(    10)      3  112.414(    35)     10  121.364(    59)      0
     12     12  C        5   1.550029(    11)      3  108.030(    36)     10 -116.438(    60)      0
     13     13  H        8   1.089597(    12)      2  109.778(    37)      1 -177.217(    61)      0
     14     14  H        8   1.090537(    13)      2  108.191(    38)     13 -115.861(    62)      0
     15     15  N        6   1.533709(    14)      2  103.289(    39)      1  -67.933(    63)      0
     16     16  C        6   1.548014(    15)      2  113.949(    40)     15 -109.961(    64)      0
     17     17  H       10   1.088165(    16)      5  110.461(    41)      3 -176.098(    65)      0
     18     18  H       10   1.090837(    17)      5  110.406(    42)     17 -118.476(    66)      0
     19     19  H       12   1.090747(    18)      5  109.160(    43)      3  176.265(    67)      0
     20     20  H       12   1.090525(    19)      5  110.002(    44)     19  116.964(    68)      0
     21     21  O       15   1.195368(    20)      6  116.072(    45)      2  118.748(    69)      0
     22     22  O       16   1.200456(    21)      6  122.217(    46)      2 -149.370(    70)      0
     23     23  O       16   1.331648(    22)      6  112.695(    47)     22 -178.163(    71)      0
     24     24  C       23   1.453790(    23)     16  115.734(    48)      6  180.362(    72)      0
     25     25  H       24   1.085102(    24)     23  105.320(    49)     16 -179.742(    73)      0
     26     26  H       24   1.087974(    25)     23  109.979(    50)     25  119.796(    74)      0
     27     27  H       24   1.087769(    26)     23  110.165(    51)     25 -119.506(    75)      0
 ---------------------------------------------------------------------------------------------------
                         Z-Matrix orientation:                         
 ---------------------------------------------------------------------
 Center     Atomic      Atomic             Coordinates (Angstroms)
 Number     Number       Type             X           Y           Z
 ---------------------------------------------------------------------
      1          6           0        0.000000    0.000000    0.000000
      2          6           0        0.000000    0.000000    1.509532
      3          6           0        1.211083    0.000000   -0.554399
      4          1           0       -0.926577    0.039142   -0.561552
      5          6           0        2.343389   -0.063958    0.436336
      6          6           0        0.755518   -1.302785    1.953569
      7          1           0       -0.999634    0.009025    1.935372
      8          6           0        0.832606    1.214635    1.998875
      9          1           0        1.384077    0.028085   -1.625002
     10          6           0        2.146713   -1.328062    1.312989
     11          1           0        3.318899   -0.099439   -0.049027
     12          6           0        2.241872    1.175475    1.361587
     13          1           0        0.888897    1.208714    3.087001
     14          1           0        0.301527    2.125635    1.720839
     15          7           0       -0.191910   -2.426456    1.515381
     16          6           0        0.812321   -1.504379    3.487348
     17          1           0        2.908067   -1.375010    2.089030
     18          1           0        2.245574   -2.229996    0.707458
     19          1           0        3.014408    1.113496    2.129100
     20          1           0        2.435303    2.084143    0.790489
     21          8           0        0.243961   -3.198291    0.713388
     22          8           0        1.726327   -2.066543    4.025547
     23          8           0       -0.264365   -1.026739    4.108549
     24          6           0       -0.276109   -1.174279    5.554785
     25          1           0       -1.215792   -0.739675    5.879689
     26          1           0       -0.218550   -2.227485    5.821487
     27          1           0        0.566428   -0.643616    5.992702
 ---------------------------------------------------------------------
                    Distance matrix (angstroms):
                    1          2          3          4          5
     1  C    0.000000
     2  C    1.509532   0.000000
     3  C    1.331946   2.393018   0.000000
     4  H    1.084167   2.269244   2.138031   0.000000
     5  C    2.384524   2.578239   1.505909   3.420393   0.000000
     6  C    2.466675   1.570103   2.862637   3.309991   2.521512
     7  H    2.178306   1.086596   3.329612   2.498175   3.664457
     8  C    2.482755   1.551782   2.852682   3.321491   2.521665
     9  H    2.134734   3.426626   1.084853   2.543653   2.275492
    10  C    2.845359   2.531947   2.475135   3.850749   1.550858
    11  H    3.320750   3.667981   2.169834   4.278546   1.090163
    12  C    2.874309   2.535670   2.472907   3.876699   1.550029
    13  H    3.432303   2.177047   3.850271   4.239786   3.280437
    14  H    2.751460   2.157289   3.243813   3.327312   3.257832
    15  N    2.867211   2.434040   3.484260   3.306442   3.629529
    16  C    3.883892   2.614341   4.331037   4.669027   3.705085
    17  H    3.835564   3.268535   3.429012   4.871335   2.183831
    18  H    3.242835   3.264783   2.763211   4.101453   2.185131
    19  H    3.854815   3.272674   3.419506   4.891341   2.168436
    20  H    3.301397   3.285023   2.766060   4.160803   2.179039
    21  O    3.285956   3.304910   3.573748   3.671049   3.782645
    22  O    4.843123   3.685260   5.050939   5.702043   4.156146
    23  O    4.243143   2.806951   4.997422   4.835749   4.605701
    24  C    5.684260   4.221284   6.396312   6.269377   5.856032
    25  H    6.049463   4.596035   6.916236   6.494596   6.538689
    26  H    6.236920   4.858231   6.903438   6.810440   6.343834
    27  H    6.053722   4.564416   6.610170   6.756735   5.862320
                    6          7          8          9         10
     6  C    0.000000
     7  H    2.191286   0.000000
     8  C    2.519008   2.194227   0.000000
     9  H    3.869427   4.284706   3.852857   0.000000
    10  C    1.531798   3.474862   2.943234   3.324536   0.000000
    11  H    3.468336   4.753876   3.478843   2.498699   2.176838
    12  C    2.949825   3.492449   1.547159   3.312405   2.505816
    13  H    2.758639   2.516357   1.089597   4.882833   3.341325
    14  H    3.466171   2.493809   1.090537   4.094665   3.936887
    15  N    1.533709   2.600073   3.813259   4.286084   2.591639
    16  C    1.548014   2.825279   3.099839   5.367632   2.557250
    17  H    2.158016   4.148408   3.319929   4.252676   1.088165
    18  H    2.152389   4.129451   3.940777   3.358791   1.090837
    19  H    3.312373   4.167724   2.188024   4.234310   2.716641
    20  H    3.955466   4.173208   2.187436   3.341713   3.464019
    21  O    2.322214   3.650569   4.633886   4.144567   2.734547
    22  O    2.412238   4.013438   3.958822   6.036001   2.842543
    23  O    2.400063   2.517166   3.267695   6.058352   3.703951
    24  C    3.748270   3.876061   4.425003   7.466675   4.887387
    25  H    4.429173   4.020560   4.803746   7.979295   5.701524
    26  H    4.094468   4.551259   5.250284   7.943942   5.170105
    27  H    4.096932   4.397773   4.413004   7.690848   4.986529
                   11         12         13         14         15
    11  H    0.000000
    12  C    2.185228   0.000000
    13  H    4.177421   2.192875   0.000000
    14  H    4.145831   2.190162   1.747040   0.000000
    15  N    4.493124   4.349811   4.105191   4.583364   0.000000
    16  C    4.556615   3.707303   2.743541   4.069210   2.397365
    17  H    2.523322   2.734586   3.427626   4.379969   3.323322
    18  H    2.502713   3.467727   4.396308   4.876247   2.575396
    19  H    2.511606   1.090747   2.333332   2.924180   4.815432
    20  H    2.500712   1.090525   2.903741   2.328148   5.270030
    21  O    4.431637   4.851973   5.046947   5.418714   1.195368
    22  O    4.796659   4.227665   3.508485   4.991603   3.179639
    23  O    5.566427   4.321664   2.714926   3.994854   2.947707
    24  C    6.744040   5.426277   3.622962   5.091389   4.229873
    25  H    7.491528   6.003039   4.003128   5.273356   4.789650
    26  H    7.176703   6.125727   4.528942   6.002954   4.310783
    27  H    6.661435   5.250089   3.460955   5.097817   4.878523
                   16         17         18         19         20
    16  C    0.000000
    17  H    2.522732   0.000000
    18  H    3.210688   1.754605   0.000000
    19  H    3.680665   2.491099   3.713638   0.000000
    20  H    4.773322   3.724977   4.319107   1.751970   0.000000
    21  O    3.299579   3.509160   2.223530   5.317060   5.719443
    22  O    1.200456   2.371671   3.362447   3.920244   5.310032
    23  O    1.331648   3.776781   4.394888   4.387389   5.289170
    24  C    2.359649   4.710703   5.565070   5.272261   6.377114
    25  H    3.228205   5.637282   6.399537   5.949432   6.870545
    26  H    2.652128   4.943044   5.676725   5.936994   7.137507
    27  H    2.660484   4.610516   5.768009   4.899742   6.164120
                   21         22         23         24         25
    21  O    0.000000
    22  O    3.801140   0.000000
    23  O    4.062161   2.247430   0.000000
    24  C    5.273161   2.672912   1.453790   0.000000
    25  H    5.904772   3.722161   2.030899   1.085102   0.000000
    26  H    5.220063   2.652141   2.092378   1.087974   1.792054
    27  H    5.873798   2.690685   2.094524   1.087769   1.788381
                   26         27
    26  H    0.000000
    27  H    1.775991   0.000000
 Symmetry turned off by external request.
 Stoichiometry    C10H13NO3
 Framework group  C1[X(C10H13NO3)]
 Deg. of freedom    75
 Full point group                 C1      NOp   1
 Rotational constants (GHZ):           1.1108426           0.6288083           0.5332336
 Standard basis: def2TZVP (5D, 7F)
 The following finite field(s) will be applied:
 An electric field of             -0.0040 -0.0028 -0.0087
   512 basis functions,   818 primitive gaussians,   582 cartesian basis functions
    52 alpha electrons       52 beta electrons
       nuclear repulsion energy       965.4989965456 Hartrees.
 NAtoms=   27 NActive=   27 NUniq=   27 SFac= 1.00D+00 NAtFMM=   60 NAOKFM=F Big=F
 Integral buffers will be    131072 words long.
 Raffenetti 2 integral format.
 Two-electron integral symmetry is turned off.
 One-electron integrals computed using PRISM.
   1 Symmetry operations used in ECPInt.
 ECPInt:  NShTT=   21321 NPrTT=   64608 LenC2=   20376 LenP2D=   46987.
 LDataN:  DoStor=T MaxTD1= 6 Len=  172
 NBasis=   512 RedAO= T EigKep=  1.08D-05  NBF=   512
 NBsUse=   512 1.00D-06 EigRej= -1.00D+00 NBFU=   512
 The nuclear repulsion energy is now       961.8028838784 hartrees.
 Initial guess from the checkpoint file:  "checkpoint.chk"
 B after Tr=    -0.002584    0.013179    0.006917
         Rot=    0.999995   -0.000817   -0.001789    0.002436 Ang=  -0.36 deg.
 ExpMin= 9.52D-02 ExpMax= 2.70D+04 ExpMxC= 9.22D+02 IAcc=2 IRadAn=         4 AccDes= 0.00D+00
 Harris functional with IExCor=  402 and IRadAn=       4 diagonalized for initial guess.
 HarFok:  IExCor=  402 AccDes= 0.00D+00 IRadAn=         4 IDoV= 1 UseB2=F ITyADJ=14
 ICtDFT=  3500011 ScaDFX=  1.000000  1.000000  1.000000  1.000000
 FoFCou: FMM=F IPFlag=           0 FMFlag=      100000 FMFlg1=           0
         NFxFlg=           0 DoJE=T BraDBF=F KetDBF=T FulRan=T
         wScrn=  0.000000 ICntrl=       500 IOpCl=  0 I1Cent=   200000004 NGrid=           0
         NMat0=    1 NMatS0=      1 NMatT0=    0 NMatD0=    1 NMtDS0=    0 NMtDT0=    0
 Symmetry not used in FoFCou.
 Requested convergence on RMS density matrix=1.00D-08 within 128 cycles.
 Requested convergence on MAX density matrix=1.00D-06.
 Requested convergence on             energy=1.00D-06.
 No special actions if energy rises.
 Integral accuracy reduced to 1.0D-05 until final iterations.
 Initial convergence to 1.0D-05 achieved.  Increase integral accuracy.
 SCF Done:  E(RB3LYP) =  -669.482380142     A.U. after   12 cycles
            NFock= 12  Conv=0.55D-08     -V/T= 2.0049
   1 Symmetry operations used in ECPInt.
 ECPInt:  NShTT=   21321 NPrTT=   64608 LenC2=   20376 LenP2D=   46987.
 LDataN:  DoStor=T MaxTD1= 7 Len=  274
 Calling FoFJK, ICntrl=      2127 FMM=F ISym2X=0 I1Cent= 0 IOpClX= 0 NMat=1 NMatS=1 NMatT=0.
 -------------------------------------------------------------------
 Center     Atomic                   Forces (Hartrees/Bohr)
 Number     Number              X              Y              Z
 -------------------------------------------------------------------
      1        6          -0.001187896    0.005798662    0.000113010
      2        6           0.001024977   -0.003604101   -0.000056247
      3        6           0.000053340   -0.001910753   -0.000017819
      4        1           0.000015647   -0.000047778    0.000031115
      5        6          -0.000041044   -0.000016084    0.000079990
      6        6          -0.000371154   -0.000691252    0.000095929
      7        1          -0.000036281    0.000044913    0.000003592
      8        6           0.000060112    0.000024548   -0.000012886
      9        1          -0.000007478   -0.000047227    0.000035778
     10        6           0.000189733    0.000115888    0.000023434
     11        1          -0.000003092   -0.000016176    0.000005515
     12        6          -0.000057277    0.000083881   -0.000018430
     13        1          -0.000017566   -0.000005237   -0.000030490
     14        1           0.000044908    0.000024625   -0.000016051
     15        7           0.000791906    0.000834646    0.000276661
     16        6          -0.000347865    0.000635063   -0.000071578
     17        1           0.000028014    0.000011436    0.000017887
     18        1          -0.000004126    0.000154738    0.000050899
     19        1           0.000008301   -0.000020445    0.000020064
     20        1          -0.000006647    0.000020454    0.000012032
     21        8          -0.000479486   -0.001011685   -0.000398291
     22        8           0.000232078   -0.000410813   -0.000126998
     23        8           0.000290381    0.000218860   -0.000172888
     24        6          -0.000383858   -0.000443307    0.000281892
     25        1           0.000090259    0.000124551    0.000056762
     26        1           0.000043799    0.000074803    0.000013535
     27        1           0.000070316    0.000057793   -0.000196418
[...]
 .00028024,-0.00017022,0.00054299,-0.00064952,-0.00089263,0.00059407,-0
 .00076929,0.00164758,-0.00002070,-0.00004428,0.00005309,-0.00410915,-0
 .01803118,0.01024265,0.00032022,-0.00014554,-0.00013690,0.00012821,0.0
 0031462,0.00014487,0.00196646,0.00887279,-0.00711051,0.00008865,0.0000
 3397,0.00007255,-0.00017237,-0.00326961,-0.00233023,-0.00003165,0.0010
 4145,0.00091615,0.01999857,0.11882292,-0.12579780,0.00199101,0.0000325
 7,-0.00023225,0.00000098,-0.00027685,0.00170178,-0.00007137,-0.0001327
 1,-0.00019331,0.00009601,-0.00033497,-0.00012069,0.00023861,-0.0000979
 1,0.00012493,0.00005211,-0.00095636,0.00095271,0.00348708,0.02024002,-
 0.01239475,-0.02485468,-0.12548845,0.13325772,-0.00089685,-0.00012247,
 0.00036799,-0.00097060,-0.00515201,-0.00168431,0.00031847,-0.00056285,
 -0.00022066,0.00002396,0.00020531,-0.00026079,0.00171275,-0.00173029,-
 0.00151063,0.04113307,-0.00141802,-0.00097940,0.00023776,-0.00069689,-
 0.00024074,0.00011781,-0.00098790,-0.00015373,0.00009971,0.00015437,-0
 .00013723,-0.00246985,0.00254539,0.00332004,0.00009797,0.00057630,-0.0
 0045145,0.00000388,-0.00061745,0.00056346,-0.00002411,-0.00010323,-0.0
 0005432,-0.00001542,-0.00003925,-0.00003323,-0.25226008,0.22335455,0.1
 8728277,-0.00143837,0.00388555,-0.00971894,0.00151695,-0.00134397,-0.0
 0143512,-0.00075089,-0.00646808,-0.00479174,0.00006284,0.00004861,0.00
 003153,0.00016398,-0.00023527,-0.00013171,0.21226897,0.00006017,-0.001
 98287,-0.00123512,-0.00577727,-0.00071134,-0.00231848,0.00017663,0.000
 17090,0.00031351,0.00028165,-0.00004341,0.00097214,-0.00101085,0.00128
 666,0.00007253,-0.00361805,-0.05952043,-0.05322860,0.00050599,-0.00015
 590,-0.00006590,0.00225408,-0.00215949,0.00144125,-0.00011829,-0.00027
 012,0.00038711,0.00721438,-0.00209282,-0.00238563,-0.00013206,-0.00051
 483,0.00043656,0.00063996,0.00023915,-0.00019805,0.00018216,0.00065419
 ,0.00020025,-0.00076476,-0.00120851,-0.00012858,0.20971257,-0.37035347
 ,-0.27491535,-0.00221813,-0.01774795,0.01825076,0.00072436,0.00065970,
 -0.00007264,-0.00200250,-0.00023933,0.00182556,-0.00003658,0.00012437,
 0.00003079,-0.00006788,-0.00012544,0.00018372,-0.20720658,0.44469009,0
 .00229138,0.00236373,-0.00248398,-0.00886678,0.00109584,-0.00551305,-0
 .00172064,0.00143165,0.00093989,0.00006915,-0.00050721,0.00063561,0.00
 074115,-0.00038698,-0.00053316,-0.00041659,-0.04688240,-0.02800323,0.0
 0016287,0.00050126,0.00023189,0.00339814,-0.00170816,0.00231529,-0.000
 19882,-0.00035663,0.00042843,0.00387675,-0.00017077,-0.00231872,-0.000
 18541,0.00006093,0.00018991,0.00037158,-0.00012636,-0.00015309,0.00008
 025,0.00033495,0.00012558,-0.00107480,-0.00133907,-0.00039628,0.178752
 30,-0.27481184,-0.21052996,-0.00428828,-0.00775684,0.00904019,-0.00081
 106,0.00154947,0.00113200,-0.00148627,0.00294504,0.00061850,-0.0001550
 3,0.00005198,0.00003598,-0.00025161,-0.00002277,0.00011164,-0.17201690
 ,0.31954262,0.23878403,-0.00005490,0.00053104,0.00065836,0.00089783,-0
 .00014770,-0.00139688,0.00022773,-0.00055561,-0.00022343,0.00001316,-0
 .00000294,-0.00021180,0.00121472,0.00081568,-0.00009104,0.00519031,0.0
 1325947,-0.00914507,0.00054139,-0.00024836,0.00033304,-0.00000846,0.00
 020015,0.00018085,0.00022323,-0.00016151,0.00003611,-0.00258322,-0.001
 86505,-0.00049807,0.00002391,0.00010967,-0.00018649,-0.00030014,-0.000
 10939,0.00006312,-0.00046543,-0.00056253,-0.00012332,0.00007778,0.0000
 8157,-0.00018204,0.00115946,0.00349525,0.00199932,-0.22664575,0.249348
 26,-0.10156916,0.00212436,0.00061490,0.00075637,0.00044534,-0.00012217
 ,-0.00053668,0.00014304,0.00014316,0.00009691,0.00017740,-0.00015321,-
 0.00009688,0.00093633,-0.00121018,-0.00003434,0.23638328,-0.00035259,-
 0.00144907,-0.00005389,0.00079135,0.00038404,0.00297561,0.00047098,0.0
 0015439,0.00074225,0.00011830,-0.00005041,0.00038105,-0.00024190,0.000
 05411,-0.00012533,0.02090948,-0.00944021,0.03076253,-0.00052509,0.0000
 8866,-0.00039933,0.00004639,0.00024730,-0.00019257,-0.00017652,0.00010
 761,0.00009145,0.00317975,0.00068130,-0.00174729,-0.00008737,-0.000043
 52,0.00014510,0.00019362,0.00015723,-0.00008500,0.00043525,0.00061699,
 0.00001808,-0.00000593,-0.00009915,0.00021441,-0.00194563,-0.01457080,
 -0.00705683,0.24926991,-0.48765460,0.17131382,-0.00080669,-0.00054343,
 -0.00027719,-0.00057892,-0.00023868,0.00091185,-0.00008341,-0.00008093
 ,-0.00008447,-0.00015090,0.00005665,0.00015638,-0.00389360,0.00851845,
 0.00411705,-0.32778268,0.56578541,-0.00097833,0.00284197,0.00007370,0.
 00107396,-0.00132769,-0.00858557,-0.00032405,0.00002166,-0.00073598,-0
 .00013885,-0.00007618,-0.00071733,0.00002878,-0.00044908,0.00037269,-0
 .02158650,0.03385833,-0.01771156,-0.00040713,-0.00000682,-0.00005279,-
 0.00044637,-0.00082499,-0.00040876,0.00007168,-0.00023282,-0.00014311,
 -0.00217663,0.00180591,-0.00000023,0.00016331,0.00031487,-0.00025701,0
 .00018156,-0.00020178,-0.00003954,0.00022445,0.00022844,0.00012191,0.0
 0014980,0.00032151,0.00011423,0.00184446,0.00888387,0.00483570,-0.0993
 2922,0.17490738,-0.18195839,0.00022093,0.00038962,-0.00083424,0.000109
 63,0.00023516,-0.00018035,0.00016057,0.00013099,0.00007712,0.00002520,
 0.00012694,0.00001098,0.00135344,-0.00271537,-0.00190758,0.10373091,-0
 .19257954,0.17664418,0.00059570,-0.00043757,-0.00005154,-0.00182109,0.
 00040383,0.00001462,-0.00008540,-0.00019837,-0.00022766,0.00006107,0.0
 0009062,0.00009266,0.00001978,0.00026451,-0.00001834,0.00540186,0.0068
 8518,0.01018770,0.00110305,-0.00020086,-0.00015581,0.00042589,-0.00105
 801,-0.00015476,0.00011997,0.00005689,0.00001796,0.00034693,-0.0006366
 2,-0.00039345,-0.00003321,-0.00014689,0.00007663,-0.00001598,0.0000732
 0,0.00006626,-0.00051065,-0.00051029,0.00089532,-0.00006637,-0.0001838
 9,0.00028544,-0.00238766,-0.00356583,-0.00268831,-0.12409086,0.0751844
 6,0.05048672,0.00020001,0.00015556,-0.00008741,0.00016955,0.00000223,-
 0.00018903,0.00006126,0.00008206,-0.00003331,0.00007102,-0.00011569,-0
 .00003735,0.00019818,0.00150070,0.00158598,-0.01676574,0.06462970,0.01
 557969,0.19751124,-0.00082823,0.00070206,-0.00019394,0.00082206,-0.000
 84836,-0.00055803,0.00001097,0.00035425,0.00024844,-0.00000342,-0.0001
 3621,-0.00003591,-0.00005906,-0.00047458,0.00005444,0.00245553,0.00493
 488,-0.00161986,-0.00089397,-0.00005748,0.00037079,-0.00117237,-0.0025
 0382,-0.00076173,-0.00013436,-0.00010366,0.00002118,-0.00093606,0.0004
 2955,0.00048025,-0.00005866,0.00030433,-0.00001589,0.00066233,-0.00021
 517,0.00022528,0.00031425,-0.00003519,0.00269996,0.00013368,0.00003519
 ,0.00100148,0.00050986,0.00019671,0.00158641,0.07222574,-0.15454301,-0
 .04764743,-0.00050533,-0.00071929,0.00016288,0.00005953,0.00027892,0.0
 0025054,0.00000358,0.00005592,-0.00007918,-0.00027254,0.00013151,0.000
 21963,-0.00029885,0.00079663,0.00016903,0.06618562,-0.06098218,-0.0229
 6348,-0.15223981,0.28877480,0.00063821,0.00084590,0.00076718,0.0012973
 4,-0.00096412,-0.00046972,0.00015200,0.00032009,-0.00017076,-0.0001848
 9,-0.00019235,-0.00025977,0.00088555,-0.00055475,-0.00023727,0.0176837
 7,-0.02306850,-0.03838870,0.00020680,0.00049713,-0.00140317,-0.0006725
 8,0.00094462,-0.00127769,0.00005631,-0.00021162,-0.00023780,-0.0036815
 2,0.00035751,-0.00399451,0.00020181,0.00066850,-0.00043460,-0.00001825
 ,-0.00020746,-0.00029312,0.00053176,0.00113961,-0.00144546,0.00026763,
 0.00055878,-0.00004579,0.00434279,0.01038789,0.00282728,0.06272136,-0.
 06699803,-0.18239556,0.00014833,-0.00006482,0.00041301,0.00076832,-0.0
 0013290,-0.00060087,0.00015399,-0.00005713,0.00000609,0.00002947,0.000
 26326,0.00001483,0.00134789,-0.00698900,-0.00316530,0.01333891,-0.0176
 6771,0.02529434,-0.08226059,0.04413017,0.44468693,0.00004876,-0.000005
 05,-0.00003638,-0.00025793,-0.00002300,-0.00054164,0.00007536,-0.00000
 691,-0.00006566,-0.00002234,0.00001244,-0.00003826,0.00002545,-0.00004
 478,-0.00006764,0.00375581,0.00476612,0.00288302,0.00029039,-0.0001824
 3,0.00007288,0.00005785,-0.00018309,0.00006224,0.00000958,0.00001417,-
 0.00003438,-0.00004846,-0.00033668,-0.00041645,0.00000261,0.00002402,-
 0.00001103,0.00004607,0.00003364,0.00007883,0.00009206,-0.00018799,0.0
 0006979,-0.00004043,0.00000762,-0.00009520,-0.00067582,-0.00104953,0.0
 0079045,-0.00142615,-0.00028508,0.02585451,-0.00019503,-0.00005108,0.0
 0009948,0.00018927,0.00013808,-0.00010467,-0.00005437,-0.00002434,0.00
 001025,-0.00001322,0.00001178,-0.00003725,-0.00005951,0.00086844,0.000
 15514,-0.00330356,-0.00410426,0.00053082,-0.07165241,0.01090937,-0.017
 20083,0.60768835,-0.00007088,-0.00001621,0.00003509,0.00000312,-0.0000
 0865,0.00004338,0.00007495,-0.00002003,0.00004471,-0.00002096,0.000010
 56,-0.00001867,0.00018723,-0.00003533,-0.00011598,0.00498631,-0.000100
 03,-0.00167755,-0.00016166,0.00011198,-0.00001231,-0.00006379,-0.00004
 127,0.00010187,-0.00000865,-0.00000639,-0.00002015,-0.00043197,-0.0000
 1797,-0.00091513,0.00001270,0.00007586,-0.00005981,-0.00001578,-0.0000
 7379,0.00000799,-0.00002819,0.00003124,0.00029796,0.00000245,-0.000004
 80,0.00005446,0.00004171,0.00028880,0.00074010,-0.00133693,0.00781069,
 -0.02640233,-0.00003828,0.00000612,0.00006530,0.00018029,0.00002755,-0
 .00011563,-0.00001224,0.00000271,0.00000506,-0.00001328,0.00001838,-0.
 00000338,0.00012088,-0.00011288,-0.00019917,-0.00175900,-0.00314248,-0
 .00226166,0.00876430,-0.08436053,0.03601613,-0.01539849,0.60891986,-0.
 00034383,-0.00033460,-0.00030448,0.00011349,0.00010749,0.00000357,-0.0
 0003319,-0.00010327,0.00029446,0.00008971,0.00004646,0.00020149,0.0000
 6832,0.00004985,-0.00004589,0.00140733,0.00053786,0.00495525,-0.000538
 09,0.00017570,-0.00026936,0.00002126,-0.00022293,-0.00006486,-0.000078
 21,0.00005938,0.00016838,0.00026117,-0.00018334,-0.00004992,-0.0001158
 0,-0.00005512,0.00014071,0.00021862,-0.00003836,0.00009081,0.00038750,
 0.00093822,0.00018279,0.00000666,-0.00021272,0.00036970,-0.00041607,-0
 .00255935,-0.00139818,0.02313562,-0.02157435,-0.05180158,0.00014114,0.
 00004191,-0.00007613,-0.00000109,0.00004753,0.00002429,-0.00004231,0.0
 0008441,-0.00002939,-0.00011002,-0.00010375,0.00013017,-0.00069769,0.0
 0164820,0.00093712,-0.01051252,0.01417275,0.00213724,-0.00165704,0.016
 89531,-0.15214129,-0.00910533,0.04460777,0.40609773,-0.00002383,-0.000
 03595,-0.00000743,0.00004486,0.00002095,-0.00000411,0.00000539,-0.0000
 1463,0.00001117,0.00000068,0.00000653,-0.00000402,0.00002120,0.0000149
 9,-0.00001301,0.00025031,0.00004299,-0.00001650,-0.00002314,0.00000042
 ,-0.00000870,0.00002404,-0.00000300,0.00008138,-0.00000227,0.00000620,
 0.00000299,-0.00000446,0.00000772,-0.00007066,-0.00000139,-0.00000574,
 -0.00000356,-0.00002149,-0.00000795,-0.00000988,-0.00001892,0.00002072
 ,0.00004659,-0.00000078,-0.00000634,-0.00000173,-0.00000385,-0.0000594
 4,0.00001465,-0.00006268,0.00046424,-0.00120316,0.00001271,0.00000987,
 -0.00000762,0.00000959,-0.00000369,-0.00000039,-0.00000759,0.00000924,
 0.00000428,0.00000419,-0.00000543,0.00000030,-0.00001289,0.00003880,0.
 00001566,0.00059194,-0.00018860,0.00088948,0.00177168,-0.00256698,-0.0
 0129512,-0.13712493,0.11313471,0.06299281,0.13841226,-0.00000981,0.000
 00168,-0.00000457,-0.00000138,-0.00000188,-0.00008556,0.00000600,-0.00
 000101,-0.00000630,-0.00000288,0.00000193,-0.00000906,-0.00000670,-0.0
 0000611,-0.00000002,-0.00003277,0.00036090,0.00035246,0.00001907,-0.00
 000047,-0.00000293,0.00003702,0.00000268,0.00004327,-0.00000136,0.0000
 0340,-0.00000436,0.00002824,0.00001254,0.00000870,0.00000062,-0.000004
 78,-0.00000229,-0.00001180,0.00000208,-0.00001006,-0.00003305,-0.00000
 509,-0.00000332,-0.00000395,-0.00000288,-0.00000722,-0.00005042,-0.000
 13027,0.00000965,0.00065154,-0.00134502,0.00260974,-0.00002677,-0.0000
 0771,-0.00000482,-0.00000102,0.00000426,0.00000700,-0.00000493,-0.0000
 0104,0.00000112,0.00000252,0.00000162,-0.00000419,-0.00003546,0.000111
 69,0.00004070,-0.00011286,0.00102868,-0.00147122,-0.00646984,0.0081239
 3,0.00734654,0.11482106,-0.20653312,-0.08697667,-0.12283278,0.21275244
 ,-0.00001616,0.00006051,0.00003533,0.00014640,-0.00008521,0.00014643,0
 .00001003,0.00001296,0.00001871,-0.00000632,-0.00001122,-0.00001421,0.
 00005928,-0.00003159,-0.00001932,0.00061371,-0.00106121,-0.00086346,-0
 .00005561,0.00000997,-0.00004554,-0.00009615,0.00003040,-0.00008525,-0
 .00000296,-0.00001703,-0.00000558,-0.00018240,0.00004780,-0.00024979,0
 .00000580,0.00004557,-0.00002129,0.00001387,-0.00001411,0.00000762,0.0
 0007381,-0.00001306,-0.00002133,0.00002000,0.00004631,-0.00000977,0.00
 019555,0.00055963,0.00009023,-0.00312676,0.00488681,-0.00500257,0.0000
 0740,0.00001340,0.00000988,0.00003341,-0.00001002,-0.00003812,0.000002
 06,-0.00000190,-0.00000036,-0.00000714,0.00001176,0.00000780,0.0000847
 7,-0.00038624,-0.00015976,0.00037052,-0.00078554,0.00203644,0.02155754
 ,-0.02594695,-0.03075818,0.05536840,-0.07531708,-0.08544144,-0.0668808
 9,0.08715209,0.10914955,-0.00000653,0.00003633,-0.00000136,0.00001319,
 -0.00000472,-0.00007773,-0.00000405,0.00001361,-0.00000866,-0.00000203
 ,-0.00000308,-0.00000798,0.00000012,-0.00001590,0.00000274,-0.00011127
 ,0.00008770,-0.00013709,-0.00000441,0.00001902,-0.00000735,-0.00001069
 ,0.00000276,-0.00002754,-0.00000030,-0.00000483,0.00000014,-0.00002104
 ,0.00003307,0.00000032,0.00000002,0.00000496,-0.00000325,-0.00000759,-
 0.00000495,-0.00002101,-0.00003373,0.00000799,-0.00000773,0.00000606,0
 .00000498,0.00000838,0.00003797,0.00008169,0.00010105,0.00194493,-0.00
 299128,0.00101710,-0.00001077,-0.00002442,-0.00000881,-0.00000222,-0.0
 0000018,0.00001434,0.00001356,0.00000195,-0.00000552,0.00000183,0.0000
 0419,0.00000729,0.,-0.00000330,-0.00001636,-0.00033468,0.00108210,-0.0
 0164661,0.00143402,0.00395095,0.00137238,-0.09603482,-0.09935966,0.016
 94943,0.00900768,0.01618359,-0.00399091,0.09442454,0.00000851,0.000010
 30,-0.00001045,-0.00001077,-0.00000362,0.00001387,-0.00001655,0.000007
 75,0.00001662,0.00000704,-0.00000786,0.00002207,0.00001145,-0.00001399
 ,0.00000701,-0.00042146,-0.00026358,-0.00003790,-0.00002813,-0.0000056
 8,-0.00002427,-0.00001995,-0.00000745,-0.00005374,-0.00000349,-0.00000
 166,0.00001107,0.00000476,0.00003520,0.00003541,-0.00000518,0.00000695
 ,0.00000781,0.00002643,-0.00000283,0.00000590,0.00005027,0.00006838,-0
 .00001361,0.00000312,-0.00000560,0.00002644,-0.00006309,0.00012015,-0.
 00007394,0.00164569,-0.00040630,-0.00173991,0.00001145,0.00000860,-0.0
 0000971,-0.00001885,-0.00000540,0.00000173,0.00000604,0.00000459,-0.00
 000397,-0.00000917,-0.00000372,0.00001198,0.00005076,-0.00006046,0.000
 03454,-0.00023265,0.00070396,-0.00035987,0.00074862,0.00022275,0.00787
 527,-0.10079682,-0.27201598,0.03655732,-0.01029686,-0.01696058,0.00292
 865,0.10860983,0.28823633,0.00005752,0.00003161,0.00006438,0.00007325,
 -0.00005414,0.00022822,-0.00000846,0.00001290,-0.00003549,-0.00000905,
 -0.00000699,-0.00002584,-0.00001155,0.00000783,0.00002461,-0.00134676,
 -0.00101357,-0.00095631,0.00006691,0.00000075,0.00003983,-0.00000633,0
 .00010468,-0.00000204,0.00001174,-0.00000659,-0.00001481,-0.00007341,-
 0.00000458,0.00012301,0.00001183,-0.00000008,-0.00001201,-0.00004258,0
 .00000783,-0.00002846,-0.00006544,-0.00014793,-0.00012035,0.00000447,0
 .00003810,-0.00006869,0.00034418,0.00076408,0.00017802,-0.00358120,0.0
 0696834,0.00267094,0.00002748,0.00001289,0.00000379,-0.00001269,-0.000
 01472,-0.00000356,0.00001624,-0.00001186,0.00000097,0.00002104,0.00000
 815,-0.00001402,0.00008626,-0.00057836,-0.00027741,0.00169488,-0.00237
 945,0.00079333,0.01695908,0.03218440,-0.02514745,0.01351739,0.02822972
 ,-0.05246843,-0.00679775,-0.01065481,0.00446278,-0.01820061,-0.0442409
 1,0.06633186,0.00003379,0.00000436,-0.00000837,-0.00005147,0.00001586,
 0.00005176,-0.00001220,0.00000183,-0.00000299,0.00000179,-0.00000125,0
 .00001157,-0.00001694,0.00000546,0.00000749,-0.00051801,-0.00040994,-0
 .00027413,0.00002007,-0.00000416,0.00000682,0.00000565,0.00002867,-0.0
 0002409,0.00000213,-0.00000174,0.00000148,0.00005172,0.00002788,0.0001
 1050,-0.00000218,-0.00000910,0.00000909,0.00000820,0.00000682,0.000002
 24,-0.00001753,-0.00000586,-0.00002609,-0.00000213,-0.00000551,0.00000
 461,-0.00000975,-0.00002102,-0.00006779,0.00100432,0.00080108,0.001062
 17,0.00001171,0.00000880,-0.00000116,-0.00003152,-0.00001450,0.0000165
 1,0.00000358,-0.00000397,-0.00000071,-0.00000055,-0.00000136,-0.000000
 20,0.00000595,0.00000656,0.00002254,0.00009069,-0.00020274,0.00069506,
 0.00793819,0.00172617,-0.00083085,-0.30137258,-0.00878886,-0.08214186,
 -0.01284832,-0.00211190,-0.00419727,-0.01029980,0.00073899,-0.00273643
 ,0.31600520,-0.00003234,-0.00006681,-0.00001367,0.00005043,0.00002137,
 0.00003807,0.00000393,-0.00002390,0.00002359,0.00000436,0.00000867,0.0
 0000703,-0.00000371,0.00002498,-0.00000310,0.00009804,-0.00004759,0.00
 023880,-0.00003859,0.00000108,-0.00002150,0.00000868,0.00002534,0.0000
 8303,-0.00000537,0.00001095,0.00000536,0.00004650,-0.00002101,-0.00000
 719,-0.00000303,-0.00001321,0.00000523,0.00000206,-0.00000064,0.000029
 64,0.00005982,0.00001330,0.00002256,-0.00000954,-0.00001176,-0.0000194
 8,-0.00004402,-0.00015169,-0.00011619,-0.00105760,0.00166231,-0.002049
 82,0.00000686,0.00003427,-0.00000196,-0.00000616,-0.00000054,-0.000008
 53,-0.00002910,0.00000346,0.00001453,-0.00000438,-0.00000800,-0.000006
 05,-0.00002954,0.00004742,0.00002941,0.00024105,-0.00028932,0.00140385
 ,0.00692181,-0.00036195,0.00575697,-0.00892723,-0.05081430,-0.00360572
 ,0.02225001,0.00259213,0.00787529,-0.02771239,0.00033976,-0.00925730,0
 .00820944,0.04702568,0.00007128,0.00002850,0.00004295,-0.00007817,-0.0
 0008567,0.00006584,0.00000813,0.00000745,-0.00004009,-0.00000823,-0.00
 000362,-0.00002097,0.00006778,-0.00002135,-0.00002085,0.00109887,0.000
 48651,-0.00001866,0.00013610,-0.00005778,0.00005867,-0.00001261,-0.000
 05126,-0.00006268,0.00001561,-0.00000480,-0.00001324,-0.00019432,-0.00
 007228,-0.00029425,0.00000945,0.00003113,-0.00002431,-0.00002496,-0.00
 000161,-0.00002803,-0.00006496,-0.00004365,-0.00002611,0.00001077,0.00
 002507,-0.00000350,-0.00000260,0.00018693,0.00025518,-0.00650747,0.005
 96038,0.00212169,0.00001797,-0.00002150,-0.00000017,0.00009768,0.00002
 069,-0.00004042,0.00003261,0.00000917,-0.00000940,0.00001701,0.0000062
 0,0.00000386,0.00008043,-0.00008768,-0.00008455,0.00154843,-0.00256819
 ,0.00102057,-0.02985102,-0.00087781,-0.03114265,-0.07173847,-0.0031306
 8,-0.07164275,0.01226522,0.00167612,0.00677122,0.00469534,-0.00098740,
 0.00425312,0.08831011,-0.00042286,0.08887954\\0.00099026,-0.00671799,0
 .00000289,-0.00099778,0.00437653,-0.00000417,0.00000197,0.00235007,-0.
 00000132,0.00000063,0.00000271,-0.00000040,-0.00000425,-0.00000085,0.0
 0000248,-0.00000081,-0.00001968,-0.00001053,0.00000141,-0.00000212,-0.
 00000005,0.00000186,0.00000267,-0.00000217,0.00000029,-0.00000343,-0.0
 0000036,-0.00000614,-0.00000153,0.00000023,-0.00000059,0.00000008,-0.0
 0000036,0.00000235,0.00000255,0.00000027,0.00000051,0.00000089,-0.0000
 0418,0.00000047,0.00000208,0.00000018,0.00001286,0.00001967,0.00001120
 ,0.00001126,0.00000474,-0.00000079,0.00000168,-0.00000059,-0.00000176,
 -0.00000100,-0.00000170,0.00000083,-0.00000084,0.00000109,0.00000050,-
 0.00000142,0.00000049,-0.00000056,0.00000139,-0.00001053,-0.00000702,-
 0.00001200,0.00000353,0.00000495,-0.00000167,-0.00000665,0.00000584,-0
 .00000137,-0.00000667,0.00000253,0.00000002,0.00000072,-0.00000134,-0.
 00000029,0.00000174,0.00000481,0.00000119,0.00000218,-0.00000170\\\@


 The juvenile sea squirt wanders through the sea searching
 for a suitable rock or hunk of coral to cling to and make
 its home for life.  For this task it has a rudimentary
 nervous system.  When it finds its spot and takes root, it
 doesn't need its brain any more so it eats it.
 It's rather like getting tenure.

                               -- source unknown
 Job cpu time:       0 days  8 hours 22 minutes 15.4 seconds.
 Elapsed time:       0 days  0 hours 41 minutes 51.9 seconds.
 File lengths (MBytes):  RWF=    555 Int=      0 D2E=      0 Chk=     48 Scr=      1
 Normal termination of Gaussian 16 at Fri Jun 10 15:39:43 2022.
