 Entering Gaussian System, Link 0=g16
 Input=ts_zmat_field_N75.gjf
 Output=ts_zmat_field_N75.out
 Initial command:
 /software/gaussian/g16-a03/l1.exe "/local_scratch/11171340/Gau-6734.inp" -scrdir="/local_scratch/11171340/"
 Entering Link 1 = /software/gaussian/g16-a03/l1.exe PID=      6735.
  
 Copyright (c) 1988,1990,1992,1993,1995,1998,2003,2009,2016,
            Gaussian, Inc.  All Rights Reserved.
  
 This is part of the Gaussian(R) 16 program.  It is based on
 the Gaussian(R) 09 system (copyright 2009, Gaussian, Inc.),
 the Gaussian(R) 03 system (copyright 2003, Gaussian, Inc.),
 the Gaussian(R) 98 system (copyright 1998, Gaussian, Inc.),
 the Gaussian(R) 94 system (copyright 1995, Gaussian, Inc.),
 the Gaussian 92(TM) system (copyright 1992, Gaussian, Inc.),
 the Gaussian 90(TM) system (copyright 1990, Gaussian, Inc.),
 the Gaussian 88(TM) system (copyright 1988, Gaussian, Inc.),
 the Gaussian 86(TM) system (copyright 1986, Carnegie Mellon
 University), and the Gaussian 82(TM) system (copyright 1983,
 Carnegie Mellon University). Gaussian is a federally registered
 trademark of Gaussian, Inc.
  
 This software contains proprietary and confidential information,
 including trade secrets, belonging to Gaussian, Inc.
  
 This software is provided under written license and may be
 used, copied, transmitted, or stored only in accord with that
 written license.
  
 The following legend is applicable only to US Government
 contracts under FAR:
  
                    RESTRICTED RIGHTS LEGEND
  
 Use, reproduction and disclosure by the US Government is
 subject to restrictions as set forth in subparagraphs (a)
 and (c) of the Commercial Computer Software - Restricted
 Rights clause in FAR 52.227-19.
  
 Gaussian, Inc.
 340 Quinnipiac St., Bldg. 40, Wallingford CT 06492
  
  
 ---------------------------------------------------------------
 Warning -- This program may not be used in any manner that
 competes with the business of Gaussian, Inc. or will provide
 assistance to any competitor of Gaussian, Inc.  The licensee
 of this program is prohibited from giving any competitor of
 Gaussian, Inc. access to this program.  By using this program,
 the user acknowledges that Gaussian, Inc. is engaged in the
 business of creating and licensing software in the field of
 computational chemistry and represents and warrants to the
 licensee that it is not a competitor of Gaussian, Inc. and that
 it will not use this program in any manner prohibited above.
 ---------------------------------------------------------------
  

 Cite this work as:
 Gaussian 16, Revision A.03,
 M. J. Frisch, G. W. Trucks, H. B. Schlegel, G. E. Scuseria, 
 M. A. Robb, J. R. Cheeseman, G. Scalmani, V. Barone, 
 G. A. Petersson, H. Nakatsuji, X. Li, M. Caricato, A. V. Marenich, 
 J. Bloino, B. G. Janesko, R. Gomperts, B. Mennucci, H. P. Hratchian, 
 J. V. Ortiz, A. F. Izmaylov, J. L. Sonnenberg, D. Williams-Young, 
 F. Ding, F. Lipparini, F. Egidi, J. Goings, B. Peng, A. Petrone, 
 T. Henderson, D. Ranasinghe, V. G. Zakrzewski, J. Gao, N. Rega, 
 G. Zheng, W. Liang, M. Hada, M. Ehara, K. Toyota, R. Fukuda, 
 J. Hasegawa, M. Ishida, T. Nakajima, Y. Honda, O. Kitao, H. Nakai, 
 T. Vreven, K. Throssell, J. A. Montgomery, Jr., J. E. Peralta, 
 F. Ogliaro, M. J. Bearpark, J. J. Heyd, E. N. Brothers, K. N. Kudin, 
 V. N. Staroverov, T. A. Keith, R. Kobayashi, J. Normand, 
 K. Raghavachari, A. P. Rendell, J. C. Burant, S. S. Iyengar, 
 J. Tomasi, M. Cossi, J. M. Millam, M. Klene, C. Adamo, R. Cammi, 
 J. W. Ochterski, R. L. Martin, K. Morokuma, O. Farkas, 
 J. B. Foresman, and D. J. Fox, Gaussian, Inc., Wallingford CT, 2016.
 
 ******************************************
 Gaussian 16:  ES64L-G16RevA.03 25-Dec-2016
                10-Jun-2022 
 ******************************************
 %nprocshared=12
 Will use up to   12 processors via shared memory.
 %chk=checkpoint.chk
 %mem=12GB
 ----------------------------------------------------------------------
 # Opt=(TS, CalcFC, noeigentest, Z-matrix, MaxStep=10) geom=allcheckpoi
 nt guess=read Field=read NoSymm B3LYP/Def2TZVP freq=noraman pop=none
 ----------------------------------------------------------------------
 1/5=1,8=10,10=4,11=1,18=40,26=3,29=7,38=1/1,3;
 2/12=2,15=1,29=3,40=1/2;
 3/5=44,7=101,11=2,14=-6,25=1,30=1,71=2,74=-5,116=-2,140=1/1,2,3;
 4/5=1/1;
 5/5=2,38=6/2;
 8/6=4,10=90,11=11/1;
 11/6=1,8=1,9=11,15=111,16=1,31=1/1,2,10;
 10/6=1,13=1,31=1/2;
 7/10=1,18=20,25=1,30=1/1,2,3,16;
 1/5=1,8=10,10=4,11=1,18=40,26=3/3(2);
 2/15=1,29=3/2;
 99//99;
 2/15=1,29=3/2;
 3/5=44,7=101,11=2,14=-2,25=1,30=1,71=1,74=-5/1,2,3;
 4/5=5,16=3,69=1/1;
 5/5=2,38=5/2;
 7/30=1/1,2,3,16;
 1/5=1,8=10,11=1,18=40,26=3/3(-5);
 2/15=1,29=3/2;
 99/9=1/99;
 Structure from the checkpoint file:  "checkpoint.chk"
 -----------------
 ts_zmat_initalOpt
 -----------------
 Charge =  0 Multiplicity = 1
 Z-Matrix found in chk file.
 H
 C,1,R2
 C,2,R3,1,A3
 C,2,R4,1,A4,3,D4,0
 H,3,R5,2,A5,1,D5,0
 C,3,R6,2,A6,5,D6,0
 H,4,R7,2,A7,1,D7,0
 H,4,R8,2,A8,7,D8,0
 H,6,R9,3,A9,2,D9,0
 C,6,R10,3,A10,9,D10,0
 H,10,R11,6,A11,3,D11,0
 O,10,R12,6,A12,11,D12,0
      Variables:
 R2=1.08262215
 R3=1.3851444
 R4=1.39334632
 R5=1.08535533
 R6=1.4033096
 R7=1.08278459
 R8=1.08143972
 R9=1.08175322
 R10=1.40753319
 R11=1.09705598
 R12=1.26173939
 A3=120.50617574
 A4=121.32034376
 A5=119.88008382
 A6=120.93730205
 A7=120.53676481
 A8=118.37456121
 A9=119.2518119
 A10=119.03636228
 A11=115.6778277
 A12=128.1681375
 D4=170.79009675
 D5=-17.90186719
 D6=167.78111662
 D7=-8.07567201
 D8=151.7050606
 D9=-175.28664648
 D10=153.42077858
 D11=-142.76898576
 D12=171.36257006
 Recover connectivity data from disk.

 GradGradGradGradGradGradGradGradGradGradGradGradGradGradGradGradGradGrad
 Berny optimization.
 Initialization pass.
                       ----------------------------
                       !    Initial Parameters    !
                       ! (Angstroms and Degrees)  !
 ----------------------                            ----------------------
 !      Name          Value   Derivative information (Atomic Units)     !
 ------------------------------------------------------------------------
 !       R2          1.0826   calculate D2E/DX2 analytically            !
 !       R3          1.3851   calculate D2E/DX2 analytically            !
 !       R4          1.3933   calculate D2E/DX2 analytically            !
 !       R5          1.0854   calculate D2E/DX2 analytically            !
 !       R6          1.4033   calculate D2E/DX2 analytically            !
 !       R7          1.0828   calculate D2E/DX2 analytically            !
 !       R8          1.0814   calculate D2E/DX2 analytically            !
 !       R9          1.0818   calculate D2E/DX2 analytically            !
 !       R10         1.4075   calculate D2E/DX2 analytically            !
 !       R11         1.0971   calculate D2E/DX2 analytically            !
 !       R12         1.2617   calculate D2E/DX2 analytically            !
 !       A3        120.5062   calculate D2E/DX2 analytically            !
 !       A4        121.3203   calculate D2E/DX2 analytically            !
 !       A5        119.8801   calculate D2E/DX2 analytically            !
 !       A6        120.9373   calculate D2E/DX2 analytically            !
 !       A7        120.5368   calculate D2E/DX2 analytically            !
 !       A8        118.3746   calculate D2E/DX2 analytically            !
 !       A9        119.2518   calculate D2E/DX2 analytically            !
 !       A10       119.0364   calculate D2E/DX2 analytically            !
 !       A11       115.6778   calculate D2E/DX2 analytically            !
 !       A12       128.1681   calculate D2E/DX2 analytically            !
 !       D4        170.7901   calculate D2E/DX2 analytically            !
 !       D5        -17.9019   calculate D2E/DX2 analytically            !
 !       D6        167.7811   calculate D2E/DX2 analytically            !
 !       D7         -8.0757   calculate D2E/DX2 analytically            !
 !       D8        151.7051   calculate D2E/DX2 analytically            !
 !       D9       -175.2866   calculate D2E/DX2 analytically            !
 !       D10       153.4208   calculate D2E/DX2 analytically            !
 !       D11      -142.769    calculate D2E/DX2 analytically            !
 !       D12       171.3626   calculate D2E/DX2 analytically            !
 ------------------------------------------------------------------------
 Trust Radius=1.00D-01 FncErr=1.00D-07 GrdErr=1.00D-06 EigMax=2.50D+02 EigMin=1.00D-04
 Number of steps in this run=     40 maximum allowed number of steps=    100.
 Search for a saddle point of order  1.
 GradGradGradGradGradGradGradGradGradGradGradGradGradGradGradGradGradGrad

 ---------------------------------------------------------------------------------------------------
                            Z-MATRIX (ANGSTROMS AND DEGREES)
   CD    Cent   Atom    N1       Length/X        N2       Alpha/Y        N3        Beta/Z          J
 ---------------------------------------------------------------------------------------------------
      1      1  H 
      2      2  C        1   1.082622(     1)
      3      3  C        2   1.385144(     2)      1  120.506(    12)
      4      4  C        2   1.393346(     3)      1  121.320(    13)      3  170.790(    22)      0
      5      5  H        3   1.085355(     4)      2  119.880(    14)      1  -17.902(    23)      0
      6      6  C        3   1.403310(     5)      2  120.937(    15)      5  167.781(    24)      0
      7      7  H        4   1.082785(     6)      2  120.537(    16)      1   -8.076(    25)      0
      8      8  H        4   1.081440(     7)      2  118.375(    17)      7  151.705(    26)      0
      9      9  H        6   1.081753(     8)      3  119.252(    18)      2 -175.287(    27)      0
     10     10  C        6   1.407533(     9)      3  119.036(    19)      9  153.421(    28)      0
     11     11  H       10   1.097056(    10)      6  115.678(    20)      3 -142.769(    29)      0
     12     12  O       10   1.261739(    11)      6  128.168(    21)     11  171.363(    30)      0
 ---------------------------------------------------------------------------------------------------
                         Z-Matrix orientation:                         
 ---------------------------------------------------------------------
 Center     Atomic      Atomic             Coordinates (Angstroms)
 Number     Number       Type             X           Y           Z
 ---------------------------------------------------------------------
      1          1           0        0.000000    0.000000    0.000000
      2          6           0        0.000000    0.000000    1.082622
      3          6           0        1.193405    0.000000    1.785765
      4          6           0       -1.174955    0.190510    1.806915
      5          1           0        2.113858   -0.289276    1.288692
      6          6           0        1.286470    0.604026    3.049002
      7          1           0       -2.091704    0.471877    1.304096
      8          1           0       -1.305516   -0.359944    2.728580
      9          1           0        2.248725    0.655964    3.540487
     10          6           0        0.346720    1.589166    3.406102
     11          1           0        0.737186    2.426285    3.997963
     12          8           0       -0.845578    1.709028    3.011078
 ---------------------------------------------------------------------
                    Distance matrix (angstroms):
                    1          2          3          4          5
     1  H    0.000000
     2  C    1.082622   0.000000
     3  C    2.147829   1.385144   0.000000
     4  C    2.163736   1.393346   2.376104   0.000000
     5  H    2.492550   2.143488   1.085355   3.363784   0.000000
     6  C    3.363966   2.426212   1.403310   2.787901   2.140386
     7  H    2.509693   2.155677   3.353597   1.082785   4.273915
     8  H    3.046158   2.131457   2.695008   1.081440   3.710848
     9  H    4.245245   3.395313   2.150125   3.865683   2.445864
    10  C    3.774546   2.836234   2.422358   2.613261   3.336877
    11  H    4.734344   3.863873   3.314938   3.668197   4.075494
    12  O    3.564038   2.711959   2.929099   1.965807   3.964605
                    6          7          8          9         10
     6  C    0.000000
     7  H    3.804500   0.000000
     8  H    2.783936   1.827340   0.000000
     9  H    1.081753   4.886170   3.784692   0.000000
    10  C    1.407533   3.407737   2.643473   2.122863   0.000000
    11  H    2.126703   4.367980   3.680630   2.372356   1.097056
    12  O    2.401686   2.448910   2.138222   3.311183   1.261739
                   11         12
    11  H    0.000000
    12  O    1.998385   0.000000
 Symmetry turned off by external request.
 Stoichiometry    C5H6O
 Framework group  C1[X(C5H6O)]
 Deg. of freedom    30
 Full point group                 C1      NOp   1
 Rotational constants (GHZ):           5.5346701           4.6773167           2.7010332
 Standard basis: def2TZVP (5D, 7F)
 The following finite field(s) will be applied:
 An electric field of             -0.0036  0.0005  0.0066
   222 basis functions,   354 primitive gaussians,   252 cartesian basis functions
    22 alpha electrons       22 beta electrons
       nuclear repulsion energy       217.8171562308 Hartrees.
 NAtoms=   12 NActive=   12 NUniq=   12 SFac= 1.00D+00 NAtFMM=   60 NAOKFM=F Big=F
 Integral buffers will be    131072 words long.
 Raffenetti 2 integral format.
 Two-electron integral symmetry is turned off.
 One-electron integrals computed using PRISM.
   1 Symmetry operations used in ECPInt.
 ECPInt:  NShTT=    4095 NPrTT=   12396 LenC2=    4075 LenP2D=   10360.
 LDataN:  DoStor=T MaxTD1= 6 Len=  172
 NBasis=   222 RedAO= T EigKep=  1.16D-04  NBF=   222
 NBsUse=   222 1.00D-06 EigRej= -1.00D+00 NBFU=   222
 The nuclear repulsion energy is now       219.1025746139 hartrees.
 Initial guess from the checkpoint file:  "checkpoint.chk"
 B after Tr=     0.000000   -0.000000    0.000000
         Rot=    1.000000    0.000000    0.000000    0.000000 Ang=   0.00 deg.
 Keep R1 ints in memory in canonical form, NReq=319363861.
 Requested convergence on RMS density matrix=1.00D-08 within 128 cycles.
 Requested convergence on MAX density matrix=1.00D-06.
 Requested convergence on             energy=1.00D-06.
 No special actions if energy rises.
 SCF Done:  E(RB3LYP) =  -269.396097144     A.U. after   11 cycles
            NFock= 11  Conv=0.54D-08     -V/T= 2.0050
 DoSCS=F DFT=T ScalE2(SS,OS)=  1.000000  1.000000
 Range of M.O.s used for correlation:     1   222
 NBasis=   222 NAE=    22 NBE=    22 NFC=     0 NFV=     0
 NROrb=    222 NOA=    22 NOB=    22 NVA=   200 NVB=   200

 **** Warning!!: The largest alpha MO coefficient is  0.19656203D+02

   1 Symmetry operations used in ECPInt.
 ECPInt:  NShTT=    4095 NPrTT=   12396 LenC2=    4075 LenP2D=   10360.
 LDataN:  DoStor=T MaxTD1= 7 Len=  274
 Symmetrizing basis deriv contribution to polar:
 IMax=3 JMax=2 DiffMx= 0.00D+00
 G2DrvN: will do    13 centers at a time, making    1 passes.
 Calling FoFCou, ICntrl=  3107 FMM=F I1Cent=   0 AccDes= 0.00D+00.
 End of G2Drv F.D. properties file   721 does not exist.
 End of G2Drv F.D. properties file   722 does not exist.
 End of G2Drv F.D. properties file   788 does not exist.
          IDoAtm=111111111111
          Differentiating once with respect to nuclear coordinates.
 Keep R1 ints in memory in canonical form, NReq=319333990.
          There are    39 degrees of freedom in the 1st order CPHF.  IDoFFX=6 NUNeed=     0.
     33 vectors produced by pass  0 Test12= 1.13D-14 2.56D-09 XBig12= 1.88D-01 2.58D-01.
 AX will form    33 AO Fock derivatives at one time.
     33 vectors produced by pass  1 Test12= 1.13D-14 2.56D-09 XBig12= 3.16D-02 4.45D-02.
     33 vectors produced by pass  2 Test12= 1.13D-14 2.56D-09 XBig12= 4.37D-04 3.10D-03.
     33 vectors produced by pass  3 Test12= 1.13D-14 2.56D-09 XBig12= 1.93D-06 2.10D-04.
     33 vectors produced by pass  4 Test12= 1.13D-14 2.56D-09 XBig12= 3.94D-09 8.78D-06.
     33 vectors produced by pass  5 Test12= 1.13D-14 2.56D-09 XBig12= 6.65D-12 3.79D-07.
      7 vectors produced by pass  6 Test12= 1.13D-14 2.56D-09 XBig12= 9.82D-15 1.80D-08.
 InvSVY:  IOpt=1 It=  1 EMax= 2.44D-15
 Solved reduced A of dimension   205 with    33 vectors.
 End of Minotr F.D. properties file   721 does not exist.
 End of Minotr F.D. properties file   722 does not exist.
 End of Minotr F.D. properties file   788 does not exist.
   1 Symmetry operations used in ECPInt.
 ECPInt:  NShTT=    4095 NPrTT=   12396 LenC2=    4075 LenP2D=   10360.
 LDataN:  DoStor=T MaxTD1= 8 Len=  415
 Calling FoFJK, ICntrl=    100147 FMM=F ISym2X=0 I1Cent= 0 IOpClX= 0 NMat=1 NMatS=1 NMatT=0.
 -------------------------------------------------------------------
 Center     Atomic                   Forces (Hartrees/Bohr)
 Number     Number              X              Y              Z
 -------------------------------------------------------------------
      1        1          -0.000373008    0.000623782    0.000031567
      2        6           0.000308669   -0.000707982    0.000243257
      3        6          -0.000028671   -0.000451601   -0.000802444
      4        6           0.000363293   -0.000417150   -0.000938300
      5        1          -0.000113746    0.000133694   -0.000082714
      6        6          -0.000726946    0.000650529    0.001111276
      7        1           0.000045525   -0.000012603   -0.000206187
      8        1           0.000101891   -0.000053808    0.000188292
      9        1           0.000164854    0.000161475   -0.000231425
     10        6           0.001481058   -0.000880533    0.000022512
     11        1           0.000296746    0.000205042   -0.000031407
     12        8          -0.001519665    0.000749155    0.000695571
 -------------------------------------------------------------------
 Cartesian Forces:  Max     0.001519665 RMS     0.000579737
 -----------------------------------------------------------------------------------------------
                       Internal Coordinate Forces (Hartree/Bohr or radian)
  Cent   Atom   N1       Length/X         N2         Alpha/Y        N3         Beta/Z          J
 -----------------------------------------------------------------------------------------------
      1  H 
      2  C        1  -0.000032(     1)
      3  C        2  -0.000039(     2)      1  -0.002144(    12)
      4  C        2  -0.000994(     3)      1  -0.001565(    13)      3   0.001007(    22)     0
      5  H        3  -0.000094(     4)      2  -0.000220(    14)      1   0.000482(    23)     0
      6  C        3   0.001771(     5)      2   0.004423(    15)      5   0.000248(    24)     0
      7  H        4   0.000054(     6)      2  -0.000415(    16)      1   0.000225(    25)     0
      8  H        4   0.000176(     7)      2  -0.000183(    17)      7   0.000179(    26)     0
      9  H        6   0.000049(     8)      3  -0.000356(    18)      2   0.000465(    27)     0
     10  C        6   0.000053(     9)      3   0.005005(    19)      9  -0.000020(    28)     0
     11  H       10   0.000245(    10)      6  -0.000388(    20)      3   0.001425(    29)     0
     12  O       10   0.001289(    11)      6   0.002786(    21)     11   0.001071(    30)     0
 -----------------------------------------------------------------------------------------------
 Internal  Forces:  Max     0.005005450 RMS     0.001534494

 GradGradGradGradGradGradGradGradGradGradGradGradGradGradGradGradGradGrad
 Berny optimization.
 Search for a saddle point.
 Step number   1 out of a maximum of   40
 All quantities printed in internal units (Hartrees-Bohrs-Radians)
 Swapping is turned off.
 Second derivative matrix not updated -- analytic derivatives used.
 ITU=  0
     Eigenvalues ---   -0.86237   0.01732   0.02759   0.04033   0.04341
     Eigenvalues ---    0.06257   0.08774   0.11069   0.12820   0.15375
     Eigenvalues ---    0.18834   0.20206   0.23705   0.27973   0.29435
     Eigenvalues ---    0.32073   0.34630   0.35083   0.35261   0.35561
     Eigenvalues ---    0.36316   0.39292   0.41785   0.44990   0.47254
     Eigenvalues ---    0.54905   0.57973   0.68991   1.07001   3.03447
 Eigenvectors required to have negative eigenvalues:
                          A10       A6        R4        D8        R12
   1                    0.46965   0.41457  -0.27659   0.27485  -0.25154
                          A12       D4        R10       A3        D7
   1                    0.23987   0.23577   0.22449  -0.19871   0.19367
 RFO step:  Lambda0=4.201611634D-05 Lambda=-9.42551175D-05.
 Linear search not attempted -- option 19 set.
 Variable       Old X    -DE/DX   Delta X   Delta X   Delta X     New X
                                 (Linear)    (Quad)   (Total)
    R2        2.04586  -0.00003   0.00000  -0.00012  -0.00012   2.04574
    R3        2.61754  -0.00004   0.00000  -0.00360  -0.00360   2.61394
    R4        2.63304  -0.00099   0.00000   0.00195   0.00195   2.63499
    R5        2.05102  -0.00009   0.00000  -0.00046  -0.00046   2.05056
    R6        2.65187   0.00177   0.00000   0.00441   0.00441   2.65628
    R7        2.04617   0.00005   0.00000   0.00029   0.00029   2.04645
    R8        2.04362   0.00018   0.00000   0.00036   0.00036   2.04399
    R9        2.04422   0.00005   0.00000   0.00018   0.00018   2.04440
   R10        2.65985   0.00005   0.00000  -0.00533  -0.00533   2.65452
   R11        2.07314   0.00025   0.00000   0.00030   0.00030   2.07343
   R12        2.38434   0.00129   0.00000   0.00513   0.00513   2.38947
    A3        2.10323  -0.00214   0.00000  -0.00127  -0.00127   2.10196
    A4        2.11744  -0.00156   0.00000   0.00132   0.00132   2.11875
    A5        2.09230  -0.00022   0.00000  -0.00098  -0.00098   2.09133
    A6        2.11075   0.00442   0.00000   0.00016   0.00016   2.11091
    A7        2.10376  -0.00042   0.00000  -0.00284  -0.00284   2.10092
    A8        2.06603  -0.00018   0.00000  -0.00094  -0.00094   2.06509
    A9        2.08134  -0.00036   0.00000  -0.00351  -0.00351   2.07782
   A10        2.07758   0.00501   0.00000   0.00136   0.00136   2.07894
   A11        2.01896  -0.00039   0.00000   0.00034   0.00034   2.01930
   A12        2.23696   0.00279   0.00000   0.00089   0.00089   2.23785
    D4        2.98085   0.00101   0.00000   0.01781   0.01781   2.99866
    D5       -0.31245   0.00048   0.00000   0.02298   0.02298  -0.28946
    D6        2.92833   0.00025   0.00000  -0.00721  -0.00721   2.92113
    D7       -0.14095   0.00023   0.00000  -0.01841  -0.01841  -0.15935
    D8        2.64775   0.00018   0.00000  -0.00815  -0.00815   2.63960
    D9       -3.05933   0.00047   0.00000   0.01260   0.01260  -3.04673
   D10        2.67770  -0.00002   0.00000  -0.00414  -0.00414   2.67356
   D11       -2.49179   0.00143   0.00000  -0.00024  -0.00024  -2.49203
   D12        2.99084   0.00107   0.00000  -0.00080  -0.00080   2.99005
         Item               Value     Threshold  Converged?
 Maximum Force            0.005005     0.000450     NO 
 RMS     Force            0.001534     0.000300     NO 
 Maximum Displacement     0.022983     0.001800     NO 
 RMS     Displacement     0.007301     0.001200     NO 
 Predicted change in Energy=-2.619165D-05
 GradGradGradGradGradGradGradGradGradGradGradGradGradGradGradGradGradGrad

 ---------------------------------------------------------------------------------------------------
                            Z-MATRIX (ANGSTROMS AND DEGREES)
   CD    Cent   Atom    N1       Length/X        N2       Alpha/Y        N3        Beta/Z          J
 ---------------------------------------------------------------------------------------------------
      1      1  H 
      2      2  C        1   1.082561(     1)
      3      3  C        2   1.383237(     2)      1  120.433(    12)
      4      4  C        2   1.394377(     3)      1  121.396(    13)      3  171.811(    22)      0
      5      5  H        3   1.085112(     4)      2  119.824(    14)      1  -16.585(    23)      0
      6      6  C        3   1.405641(     5)      2  120.946(    15)      5  167.368(    24)      0
      7      7  H        4   1.082937(     6)      2  120.374(    16)      1   -9.130(    25)      0
      8      8  H        4   1.081633(     7)      2  118.321(    17)      7  151.238(    26)      0
      9      9  H        6   1.081849(     8)      3  119.051(    18)      2 -174.565(    27)      0
     10     10  C        6   1.404712(     9)      3  119.114(    19)      9  153.184(    28)      0
     11     11  H       10   1.097213(    10)      6  115.697(    20)      3 -142.783(    29)      0
     12     12  O       10   1.264453(    11)      6  128.219(    21)     11  171.317(    30)      0
 ---------------------------------------------------------------------------------------------------
                         Z-Matrix orientation:                         
 ---------------------------------------------------------------------
 Center     Atomic      Atomic             Coordinates (Angstroms)
 Number     Number       Type             X           Y           Z
 ---------------------------------------------------------------------
      1          1           0        0.000000    0.000000    0.000000
      2          6           0        0.000000    0.000000    1.082561
      3          6           0        1.192654    0.000000    1.783218
      4          6           0       -1.178089    0.169543    1.808955
      5          1           0        2.114979   -0.268710    1.278659
      6          6           0        1.282926    0.588448    3.056563
      7          1           0       -2.095263    0.451319    1.306814
      8          1           0       -1.307477   -0.402660    2.717675
      9          1           0        2.249066    0.650229    3.539424
     10          6           0        0.332593    1.551902    3.433176
     11          1           0        0.713706    2.386030    4.035556
     12          8           0       -0.866148    1.661380    3.046039
 ---------------------------------------------------------------------
                    Distance matrix (angstroms):
                    1          2          3          4          5
     1  H    0.000000
     2  C    1.082561   0.000000
     3  C    2.145295   1.383237   0.000000
     4  C    2.165400   1.394377   2.376937   0.000000
     5  H    2.486023   2.140980   1.085112   3.364160   0.000000
     6  C    3.366712   2.426697   1.405641   2.790806   2.141956
     7  H    2.510294   2.155019   3.352767   1.082937   4.271460
     8  H    3.042596   2.131955   2.699259   1.081633   3.715093
     9  H    4.243656   3.393711   2.150131   3.869234   2.444072
    10  C    3.782290   2.836267   2.422905   2.613651   3.336686
    11  H    4.742175   3.862990   3.315955   3.667349   4.075744
    12  O    3.576136   2.713972   2.931479   1.962972   3.966863
                    6          7          8          9         10
     6  C    0.000000
     7  H    3.806913   0.000000
     8  H    2.794160   1.827681   0.000000
     9  H    1.081849   4.888487   3.799058   0.000000
    10  C    1.404712   3.409866   2.649921   2.120654   0.000000
    11  H    2.124556   4.368002   3.687652   2.369912   1.097213
    12  O    2.402044   2.449464   2.136084   3.312162   1.264453
                   11         12
    11  H    0.000000
    12  O    2.000050   0.000000
 Symmetry turned off by external request.
 Stoichiometry    C5H6O
 Framework group  C1[X(C5H6O)]
 Deg. of freedom    30
 Full point group                 C1      NOp   1
 Rotational constants (GHZ):           5.5336964           4.6774601           2.6969576
 Standard basis: def2TZVP (5D, 7F)
 The following finite field(s) will be applied:
 An electric field of             -0.0036  0.0005  0.0066
   222 basis functions,   354 primitive gaussians,   252 cartesian basis functions
    22 alpha electrons       22 beta electrons
       nuclear repulsion energy       217.7619809206 Hartrees.
 NAtoms=   12 NActive=   12 NUniq=   12 SFac= 1.00D+00 NAtFMM=   60 NAOKFM=F Big=F
 Integral buffers will be    131072 words long.
 Raffenetti 2 integral format.
 Two-electron integral symmetry is turned off.
 One-electron integrals computed using PRISM.
   1 Symmetry operations used in ECPInt.
 ECPInt:  NShTT=    4095 NPrTT=   12396 LenC2=    4075 LenP2D=   10359.
 LDataN:  DoStor=T MaxTD1= 6 Len=  172
 NBasis=   222 RedAO= T EigKep=  1.15D-04  NBF=   222
 NBsUse=   222 1.00D-06 EigRej= -1.00D+00 NBFU=   222
 The nuclear repulsion energy is now       219.0550304495 hartrees.
 Initial guess from the checkpoint file:  "checkpoint.chk"
 B after Tr=    -0.006340    0.037502   -0.000882
         Rot=    0.999943   -0.008860   -0.000886   -0.005969 Ang=  -1.23 deg.
 ExpMin= 9.52D-02 ExpMax= 2.70D+04 ExpMxC= 9.22D+02 IAcc=2 IRadAn=         4 AccDes= 0.00D+00
 Harris functional with IExCor=  402 and IRadAn=       4 diagonalized for initial guess.
 HarFok:  IExCor=  402 AccDes= 0.00D+00 IRadAn=         4 IDoV= 1 UseB2=F ITyADJ=14
 ICtDFT=  3500011 ScaDFX=  1.000000  1.000000  1.000000  1.000000
 FoFCou: FMM=F IPFlag=           0 FMFlag=      100000 FMFlg1=           0
         NFxFlg=           0 DoJE=T BraDBF=F KetDBF=T FulRan=T
         wScrn=  0.000000 ICntrl=       500 IOpCl=  0 I1Cent=   200000004 NGrid=           0
         NMat0=    1 NMatS0=      1 NMatT0=    0 NMatD0=    1 NMtDS0=    0 NMtDT0=    0
 Symmetry not used in FoFCou.
 Keep R1 ints in memory in canonical form, NReq=319363861.
 Requested convergence on RMS density matrix=1.00D-08 within 128 cycles.
 Requested convergence on MAX density matrix=1.00D-06.
 Requested convergence on             energy=1.00D-06.
 No special actions if energy rises.
 Integral accuracy reduced to 1.0D-05 until final iterations.
 Initial convergence to 1.0D-05 achieved.  Increase integral accuracy.
 SCF Done:  E(RB3LYP) =  -269.396123430     A.U. after   12 cycles
            NFock= 12  Conv=0.35D-08     -V/T= 2.0050
   1 Symmetry operations used in ECPInt.
 ECPInt:  NShTT=    4095 NPrTT=   12396 LenC2=    4075 LenP2D=   10359.
 LDataN:  DoStor=T MaxTD1= 7 Len=  274
 Calling FoFJK, ICntrl=      2127 FMM=F ISym2X=0 I1Cent= 0 IOpClX= 0 NMat=1 NMatS=1 NMatT=0.
 -------------------------------------------------------------------
 Center     Atomic                   Forces (Hartrees/Bohr)
 Number     Number              X              Y              Z
 -------------------------------------------------------------------
      1        1          -0.000608816    0.001200192   -0.000000606
      2        6           0.000605264   -0.001598404   -0.000000811
      3        6           0.000022362    0.000418652   -0.000008580
      4        6          -0.000026272   -0.000014781    0.000009214
      5        1           0.000001215   -0.000004225    0.000000804
      6        6           0.000004304   -0.000013375    0.000007035
      7        1          -0.000000497    0.000004257   -0.000000191
      8        1           0.000000069   -0.000008542   -0.000005049
      9        1           0.000000874    0.000001276   -0.000000001
     10        6           0.000016639    0.000016799    0.000018673
     11        1           0.000000141   -0.000000089    0.000002709
     12        8          -0.000015284   -0.000001759   -0.000023197
 -------------------------------------------------------------------
 Cartesian Forces:  Max     0.001598404 RMS     0.000369356
 -----------------------------------------------------------------------------------------------
                       Internal Coordinate Forces (Hartree/Bohr or radian)
  Cent   Atom   N1       Length/X         N2         Alpha/Y        N3         Beta/Z          J
 -----------------------------------------------------------------------------------------------
      1  H 
      2  C        1   0.000001(     1)
      3  C        2   0.000025(     2)      1  -0.000014(    12)
      4  C        2   0.000022(     3)      1  -0.000021(    13)      3   0.000046(    22)     0
      5  H        3   0.000002(     4)      2   0.000001(    14)      1  -0.000037(    23)     0
      6  C        3   0.000006(     5)      2  -0.000019(    15)      5  -0.000029(    24)     0
      7  H        4   0.000002(     6)      2   0.000000(    16)      1  -0.000023(    25)     0
      8  H        4   0.000000(     7)      2  -0.000009(    17)      7  -0.000016(    26)     0
      9  H        6   0.000001(     8)      3   0.000000(    18)      2  -0.000038(    27)     0
     10  C        6   0.000009(     9)      3  -0.000033(    19)      9  -0.000041(    28)     0
     11  H       10   0.000001(    10)      6  -0.000000(    20)      3  -0.000027(    29)     0
     12  O       10   0.000021(    11)      6  -0.000031(    21)     11  -0.000022(    30)     0
 -----------------------------------------------------------------------------------------------
 Internal  Forces:  Max     0.000046050 RMS     0.000021821

 GradGradGradGradGradGradGradGradGradGradGradGradGradGradGradGradGradGrad
 Berny optimization.
 Search for a saddle point.
 Step number   2 out of a maximum of   40
 All quantities printed in internal units (Hartrees-Bohrs-Radians)
 Swapping is turned off.
 Update second derivatives using D2CorN and points    1    2
 ITU=  0  0
     Eigenvalues ---   -0.86251   0.01705   0.02760   0.04038   0.04344
     Eigenvalues ---    0.06251   0.08773   0.11069   0.12821   0.15375
     Eigenvalues ---    0.18835   0.20209   0.23707   0.27973   0.29435
     Eigenvalues ---    0.32073   0.34630   0.35083   0.35261   0.35561
     Eigenvalues ---    0.36316   0.39292   0.41789   0.44991   0.47258
     Eigenvalues ---    0.54907   0.57976   0.68989   1.07005   3.03447
 Eigenvectors required to have negative eigenvalues:
                          A10       A6        R4        D8        R12
   1                    0.46964   0.41458  -0.27660   0.27490  -0.25157
                          A12       D4        R10       A3        D7
   1                    0.23988   0.23547   0.22449  -0.19868   0.19387
 RFO step:  Lambda0=1.102416325D-09 Lambda=-3.30037787D-08.
 Linear search not attempted -- option 19 set.
 Variable       Old X    -DE/DX   Delta X   Delta X   Delta X     New X
                                 (Linear)    (Quad)   (Total)
    R2        2.04574   0.00000   0.00000  -0.00000  -0.00000   2.04574
    R3        2.61394   0.00002   0.00000   0.00004   0.00004   2.61398
    R4        2.63499   0.00002   0.00000   0.00000   0.00000   2.63499
    R5        2.05056   0.00000   0.00000  -0.00000  -0.00000   2.05056
    R6        2.65628   0.00001   0.00000   0.00001   0.00001   2.65629
    R7        2.04645   0.00000   0.00000   0.00000   0.00000   2.04646
    R8        2.04399   0.00000   0.00000   0.00000   0.00000   2.04399
    R9        2.04440   0.00000   0.00000   0.00000   0.00000   2.04440
   R10        2.65452   0.00001   0.00000   0.00006   0.00006   2.65458
   R11        2.07343   0.00000   0.00000   0.00001   0.00001   2.07344
   R12        2.38947   0.00002   0.00000   0.00002   0.00002   2.38949
    A3        2.10196  -0.00001   0.00000   0.00009   0.00009   2.10205
    A4        2.11875  -0.00002   0.00000  -0.00007  -0.00007   2.11869
    A5        2.09133   0.00000   0.00000   0.00003   0.00003   2.09136
    A6        2.11091  -0.00002   0.00000  -0.00005  -0.00005   2.11086
    A7        2.10092   0.00000   0.00000  -0.00000  -0.00000   2.10092
    A8        2.06509  -0.00001   0.00000   0.00003   0.00003   2.06512
    A9        2.07782   0.00000   0.00000   0.00000   0.00000   2.07782
   A10        2.07894  -0.00003   0.00000  -0.00001  -0.00001   2.07893
   A11        2.01930  -0.00000   0.00000   0.00001   0.00001   2.01931
   A12        2.23785  -0.00003   0.00000  -0.00003  -0.00003   2.23781
    D4        2.99866   0.00005   0.00000   0.00071   0.00071   2.99937
    D5       -0.28946  -0.00004   0.00000   0.00035   0.00035  -0.28912
    D6        2.92113  -0.00003   0.00000   0.00014   0.00014   2.92126
    D7       -0.15935  -0.00002   0.00000  -0.00060  -0.00060  -0.15995
    D8        2.63960  -0.00002   0.00000   0.00017   0.00017   2.63978
    D9       -3.04673  -0.00004   0.00000   0.00001   0.00001  -3.04672
   D10        2.67356  -0.00004   0.00000  -0.00004  -0.00004   2.67352
   D11       -2.49203  -0.00003   0.00000   0.00002   0.00002  -2.49201
   D12        2.99005  -0.00002   0.00000   0.00002   0.00002   2.99006
         Item               Value     Threshold  Converged?
 Maximum Force            0.000046     0.000450     YES
 RMS     Force            0.000022     0.000300     YES
 Maximum Displacement     0.000714     0.001800     YES
 RMS     Displacement     0.000188     0.001200     YES
 Predicted change in Energy=-1.595068D-08
 Optimization completed.
    -- Stationary point found.
                       ----------------------------
                       !   Optimized Parameters   !
                       ! (Angstroms and Degrees)  !
 ----------------------                            ----------------------
 !      Name          Value   Derivative information (Atomic Units)     !
 ------------------------------------------------------------------------
 !       R2          1.0826   -DE/DX =    0.0                           !
 !       R3          1.3832   -DE/DX =    0.0                           !
 !       R4          1.3944   -DE/DX =    0.0                           !
 !       R5          1.0851   -DE/DX =    0.0                           !
 !       R6          1.4056   -DE/DX =    0.0                           !
 !       R7          1.0829   -DE/DX =    0.0                           !
 !       R8          1.0816   -DE/DX =    0.0                           !
 !       R9          1.0818   -DE/DX =    0.0                           !
 !       R10         1.4047   -DE/DX =    0.0                           !
 !       R11         1.0972   -DE/DX =    0.0                           !
 !       R12         1.2645   -DE/DX =    0.0                           !
 !       A3        120.4333   -DE/DX =    0.0                           !
 !       A4        121.3957   -DE/DX =    0.0                           !
 !       A5        119.8242   -DE/DX =    0.0                           !
 !       A6        120.9462   -DE/DX =    0.0                           !
 !       A7        120.3741   -DE/DX =    0.0                           !
 !       A8        118.3209   -DE/DX =    0.0                           !
 !       A9        119.0505   -DE/DX =    0.0                           !
 !       A10       119.1144   -DE/DX =    0.0                           !
 !       A11       115.6975   -DE/DX =    0.0                           !
 !       A12       128.2192   -DE/DX =    0.0                           !
 !       D4        171.8106   -DE/DX =    0.0                           !
 !       D5        -16.585    -DE/DX =    0.0                           !
 !       D6        167.3682   -DE/DX =    0.0                           !
 !       D7         -9.1303   -DE/DX =    0.0                           !
 !       D8        151.2381   -DE/DX =    0.0                           !
 !       D9       -174.565    -DE/DX =    0.0                           !
 !       D10       153.1838   -DE/DX =    0.0                           !
 !       D11      -142.7828   -DE/DX =    0.0                           !
 !       D12       171.317    -DE/DX =    0.0                           !
 ------------------------------------------------------------------------
 GradGradGradGradGradGradGradGradGradGradGradGradGradGradGradGradGradGrad

 ---------------------------------------------------------------------------------------------------
                            Z-MATRIX (ANGSTROMS AND DEGREES)
   CD    Cent   Atom    N1       Length/X        N2       Alpha/Y        N3        Beta/Z          J
 ---------------------------------------------------------------------------------------------------
      1      1  H 
      2      2  C        1   1.082561(     1)
      3      3  C        2   1.383237(     2)      1  120.433(    12)
      4      4  C        2   1.394377(     3)      1  121.396(    13)      3  171.811(    22)      0
      5      5  H        3   1.085112(     4)      2  119.824(    14)      1  -16.585(    23)      0
      6      6  C        3   1.405641(     5)      2  120.946(    15)      5  167.368(    24)      0
      7      7  H        4   1.082937(     6)      2  120.374(    16)      1   -9.130(    25)      0
      8      8  H        4   1.081633(     7)      2  118.321(    17)      7  151.238(    26)      0
      9      9  H        6   1.081849(     8)      3  119.051(    18)      2 -174.565(    27)      0
     10     10  C        6   1.404712(     9)      3  119.114(    19)      9  153.184(    28)      0
     11     11  H       10   1.097213(    10)      6  115.697(    20)      3 -142.783(    29)      0
     12     12  O       10   1.264453(    11)      6  128.219(    21)     11  171.317(    30)      0
 ---------------------------------------------------------------------------------------------------
                         Z-Matrix orientation:                         
 ---------------------------------------------------------------------
 Center     Atomic      Atomic             Coordinates (Angstroms)
 Number     Number       Type             X           Y           Z
 ---------------------------------------------------------------------
      1          1           0        0.000000    0.000000    0.000000
      2          6           0        0.000000    0.000000    1.082561
      3          6           0        1.192654    0.000000    1.783218
      4          6           0       -1.178089    0.169543    1.808955
      5          1           0        2.114979   -0.268710    1.278659
      6          6           0        1.282926    0.588448    3.056563
      7          1           0       -2.095263    0.451319    1.306814
      8          1           0       -1.307477   -0.402660    2.717675
      9          1           0        2.249066    0.650229    3.539424
     10          6           0        0.332593    1.551902    3.433176
     11          1           0        0.713706    2.386030    4.035556
     12          8           0       -0.866148    1.661380    3.046039
 ---------------------------------------------------------------------
                    Distance matrix (angstroms):
                    1          2          3          4          5
     1  H    0.000000
     2  C    1.082561   0.000000
     3  C    2.145295   1.383237   0.000000
     4  C    2.165400   1.394377   2.376937   0.000000
     5  H    2.486023   2.140980   1.085112   3.364160   0.000000
     6  C    3.366712   2.426697   1.405641   2.790806   2.141956
     7  H    2.510294   2.155019   3.352767   1.082937   4.271460
     8  H    3.042596   2.131955   2.699259   1.081633   3.715093
     9  H    4.243656   3.393711   2.150131   3.869234   2.444072
    10  C    3.782290   2.836267   2.422905   2.613651   3.336686
    11  H    4.742175   3.862990   3.315955   3.667349   4.075744
    12  O    3.576136   2.713972   2.931479   1.962972   3.966863
                    6          7          8          9         10
     6  C    0.000000
     7  H    3.806913   0.000000
     8  H    2.794160   1.827681   0.000000
     9  H    1.081849   4.888487   3.799058   0.000000
    10  C    1.404712   3.409866   2.649921   2.120654   0.000000
    11  H    2.124556   4.368002   3.687652   2.369912   1.097213
    12  O    2.402044   2.449464   2.136084   3.312162   1.264453
                   11         12
    11  H    0.000000
    12  O    2.000050   0.000000
 Symmetry turned off by external request.
 Stoichiometry    C5H6O
 Framework group  C1[X(C5H6O)]
 Deg. of freedom    30
 Full point group                 C1      NOp   1
 Rotational constants (GHZ):           5.5336964           4.6774601           2.6969576
 1\1\GINC-BHC0106\FTS\RB3LYP\def2TZVP\C5H6O1\DHANAWAY\10-Jun-2022\1\\# 
 Opt=(TS, CalcFC, noeigentest, Z-matrix, MaxStep=10) geom=allcheckpoint
  guess=read Field=read NoSymm B3LYP/Def2TZVP freq=noraman pop=none\\ts
 _zmat_initalOpt\\0,1\H\C,1,R2\C,2,R3,1,A3\C,2,R4,1,A4,3,D4,0\H,3,R5,2,
 A5,1,D5,0\C,3,R6,2,A6,5,D6,0\H,4,R7,2,A7,1,D7,0\H,4,R8,2,A8,7,D8,0\H,6
 ,R9,3,A9,2,D9,0\C,6,R10,3,A10,9,D10,0\H,10,R11,6,A11,3,D11,0\O,10,R12,
 6,A12,11,D12,0\\R2=1.08256057\R3=1.38323712\R4=1.39437691\R5=1.0851119
 \R6=1.40564116\R7=1.08293695\R8=1.08163282\R9=1.08184937\R10=1.4047115
 6\R11=1.09721333\R12=1.26445278\A3=120.4332842\A4=121.39570792\A5=119.
 82418666\A6=120.9462266\A7=120.37407051\A8=118.32093554\A9=119.0505398
 8\A10=119.11440404\A11=115.69746306\A12=128.21919511\D4=171.81057581\D
 5=-16.58503135\D6=167.36816188\D7=-9.13033783\D8=151.23814964\D9=-174.
 56495063\D10=153.18376952\D11=-142.78279574\D12=171.31701448\\Version=
 ES64L-G16RevA.03\HF=-269.3961234\RMSD=3.505e-09\RMSF=3.694e-04\Dipole=
 0.5399037,-0.3375266,-0.6525853\PG=C01 [X(C5H6O1)]\\@


 FOR THE NATURE OF THE CHEMICAL BOND
 IS THE PROBLEM AT THE HEART OF ALL CHEMISTRY.

                     -- BRYCE CRAWFORD, JR., 1953
 Job cpu time:       0 days  0 hours 35 minutes 27.8 seconds.
 Elapsed time:       0 days  0 hours  3 minutes  9.8 seconds.
 File lengths (MBytes):  RWF=     53 Int=      0 D2E=      0 Chk=     32 Scr=      1
 Normal termination of Gaussian 16 at Fri Jun 10 03:34:34 2022.
 Link1:  Proceeding to internal job step number  2.
 --------------------------------------------------------------------
 #N Geom=AllCheck Guess=TCheck SCRF=Check GenChk RB3LYP/def2TZVP Freq
 --------------------------------------------------------------------
 1/5=1,8=10,10=4,11=1,29=7,30=1,38=1,40=1/1,3;
 2/12=2,15=1,40=1/2;
 3/5=44,7=101,11=2,14=-4,25=1,30=1,70=2,71=2,74=-5,116=1,140=1/1,2,3;
 4/5=101/1;
 5/5=2,38=6,98=1/2;
 8/6=4,10=90,11=11/1;
 11/6=1,8=1,9=11,15=111,16=1,31=1/1,2,10;
 10/6=1,31=1/2;
 7/8=1,10=1,25=1,30=1/1,2,3,16;
 1/5=1,8=10,10=4,11=1,30=1/3;
 99//99;
 Structure from the checkpoint file:  "checkpoint.chk"
 -----------------
 ts_zmat_initalOpt
 -----------------
 Charge =  0 Multiplicity = 1
 Z-Matrix found in chk file.
 H
 C,1,R2
 C,2,R3,1,A3
 C,2,R4,1,A4,3,D4,0
 H,3,R5,2,A5,1,D5,0
 C,3,R6,2,A6,5,D6,0
 H,4,R7,2,A7,1,D7,0
 H,4,R8,2,A8,7,D8,0
 H,6,R9,3,A9,2,D9,0
 C,6,R10,3,A10,9,D10,0
 H,10,R11,6,A11,3,D11,0
 O,10,R12,6,A12,11,D12,0
      Variables:
 R2=1.08256057
 R3=1.38323712
 R4=1.39437691
 R5=1.0851119
 R6=1.40564116
 R7=1.08293695
 R8=1.08163282
 R9=1.08184937
 R10=1.40471156
 R11=1.09721333
 R12=1.26445278
 A3=120.4332842
 A4=121.39570792
 A5=119.82418666
 A6=120.9462266
 A7=120.37407051
 A8=118.32093554
 A9=119.05053988
 A10=119.11440404
 A11=115.69746306
 A12=128.21919511
 D4=171.81057581
 D5=-16.58503135
 D6=167.36816188
 D7=-9.13033783
 D8=151.23814964
 D9=-174.56495063
 D10=153.18376952
 D11=-142.78279574
 D12=171.31701448
 Recover connectivity data from disk.

 GradGradGradGradGradGradGradGradGradGradGradGradGradGradGradGradGradGrad
 Berny optimization.
 Initialization pass.
                       ----------------------------
                       !    Initial Parameters    !
                       ! (Angstroms and Degrees)  !
 ----------------------                            ----------------------
 !      Name          Value   Derivative information (Atomic Units)     !
 ------------------------------------------------------------------------
 !       R2          1.0826   calculate D2E/DX2 analytically            !
 !       R3          1.3832   calculate D2E/DX2 analytically            !
 !       R4          1.3944   calculate D2E/DX2 analytically            !
 !       R5          1.0851   calculate D2E/DX2 analytically            !
 !       R6          1.4056   calculate D2E/DX2 analytically            !
 !       R7          1.0829   calculate D2E/DX2 analytically            !
 !       R8          1.0816   calculate D2E/DX2 analytically            !
 !       R9          1.0818   calculate D2E/DX2 analytically            !
 !       R10         1.4047   calculate D2E/DX2 analytically            !
 !       R11         1.0972   calculate D2E/DX2 analytically            !
 !       R12         1.2645   calculate D2E/DX2 analytically            !
 !       A3        120.4333   calculate D2E/DX2 analytically            !
 !       A4        121.3957   calculate D2E/DX2 analytically            !
 !       A5        119.8242   calculate D2E/DX2 analytically            !
 !       A6        120.9462   calculate D2E/DX2 analytically            !
 !       A7        120.3741   calculate D2E/DX2 analytically            !
 !       A8        118.3209   calculate D2E/DX2 analytically            !
 !       A9        119.0505   calculate D2E/DX2 analytically            !
 !       A10       119.1144   calculate D2E/DX2 analytically            !
 !       A11       115.6975   calculate D2E/DX2 analytically            !
 !       A12       128.2192   calculate D2E/DX2 analytically            !
 !       D4        171.8106   calculate D2E/DX2 analytically            !
 !       D5        -16.585    calculate D2E/DX2 analytically            !
 !       D6        167.3682   calculate D2E/DX2 analytically            !
 !       D7         -9.1303   calculate D2E/DX2 analytically            !
 !       D8        151.2381   calculate D2E/DX2 analytically            !
 !       D9       -174.565    calculate D2E/DX2 analytically            !
 !       D10       153.1838   calculate D2E/DX2 analytically            !
 !       D11      -142.7828   calculate D2E/DX2 analytically            !
 !       D12       171.317    calculate D2E/DX2 analytically            !
 ------------------------------------------------------------------------
 Trust Radius=1.00D-01 FncErr=1.00D-07 GrdErr=1.00D-07 EigMax=2.50D+02 EigMin=1.00D-04
 Number of steps in this run=      2 maximum allowed number of steps=      2.
 Search for a saddle point of order  1.
 GradGradGradGradGradGradGradGradGradGradGradGradGradGradGradGradGradGrad

                          Input orientation:                          
 ---------------------------------------------------------------------
 Center     Atomic      Atomic             Coordinates (Angstroms)
 Number     Number       Type             X           Y           Z
 ---------------------------------------------------------------------
      1          1           0        0.000000    0.000000    0.000000
      2          6           0        0.000000    0.000000    1.082561
      3          6           0        1.192654    0.000000    1.783218
      4          6           0       -1.178089    0.169543    1.808955
      5          1           0        2.114979   -0.268710    1.278659
      6          6           0        1.282926    0.588448    3.056563
      7          1           0       -2.095263    0.451319    1.306814
      8          1           0       -1.307477   -0.402660    2.717675
      9          1           0        2.249066    0.650229    3.539424
     10          6           0        0.332593    1.551902    3.433176
     11          1           0        0.713706    2.386030    4.035556
     12          8           0       -0.866148    1.661380    3.046039
 ---------------------------------------------------------------------
                    Distance matrix (angstroms):
                    1          2          3          4          5
     1  H    0.000000
     2  C    1.082561   0.000000
     3  C    2.145295   1.383237   0.000000
     4  C    2.165400   1.394377   2.376937   0.000000
     5  H    2.486023   2.140980   1.085112   3.364160   0.000000
     6  C    3.366712   2.426697   1.405641   2.790806   2.141956
     7  H    2.510294   2.155019   3.352767   1.082937   4.271460
     8  H    3.042596   2.131955   2.699259   1.081633   3.715093
     9  H    4.243656   3.393711   2.150131   3.869234   2.444072
    10  C    3.782290   2.836267   2.422905   2.613651   3.336686
    11  H    4.742175   3.862990   3.315955   3.667349   4.075744
    12  O    3.576136   2.713972   2.931479   1.962972   3.966863
                    6          7          8          9         10
     6  C    0.000000
     7  H    3.806913   0.000000
     8  H    2.794160   1.827681   0.000000
     9  H    1.081849   4.888487   3.799058   0.000000
    10  C    1.404712   3.409866   2.649921   2.120654   0.000000
    11  H    2.124556   4.368002   3.687652   2.369912   1.097213
    12  O    2.402044   2.449464   2.136084   3.312162   1.264453
                   11         12
    11  H    0.000000
    12  O    2.000050   0.000000
 Symmetry turned off by external request.
 Stoichiometry    C5H6O
 Framework group  C1[X(C5H6O)]
 Deg. of freedom    30
 Full point group                 C1      NOp   1
 Rotational constants (GHZ):           5.5336964           4.6774601           2.6969576
 Standard basis: def2TZVP (5D, 7F)
 The following finite field(s) will be applied:
 An electric field of             -0.0036  0.0005  0.0066
   222 basis functions,   354 primitive gaussians,   252 cartesian basis functions
    22 alpha electrons       22 beta electrons
       nuclear repulsion energy       217.7619809206 Hartrees.
 NAtoms=   12 NActive=   12 NUniq=   12 SFac= 1.00D+00 NAtFMM=   60 NAOKFM=F Big=F
 Integral buffers will be    131072 words long.
 Raffenetti 2 integral format.
 Two-electron integral symmetry is turned off.
 One-electron integrals computed using PRISM.
   1 Symmetry operations used in ECPInt.
 ECPInt:  NShTT=    4095 NPrTT=   12396 LenC2=    4075 LenP2D=   10359.
 LDataN:  DoStor=T MaxTD1= 6 Len=  172
 NBasis=   222 RedAO= T EigKep=  1.15D-04  NBF=   222
 NBsUse=   222 1.00D-06 EigRej= -1.00D+00 NBFU=   222
 The nuclear repulsion energy is now       219.0550304495 hartrees.
 Initial guess from the checkpoint file:  "checkpoint.chk"
 B after Tr=     0.000000    0.000000    0.000000
         Rot=    1.000000    0.000000    0.000000    0.000000 Ang=   0.00 deg.
 Keep R1 ints in memory in canonical form, NReq=319363861.
 Requested convergence on RMS density matrix=1.00D-08 within 128 cycles.
 Requested convergence on MAX density matrix=1.00D-06.
 Requested convergence on             energy=1.00D-06.
 No special actions if energy rises.
 SCF Done:  E(RB3LYP) =  -269.396123430     A.U. after    1 cycles
            NFock=  1  Conv=0.18D-08     -V/T= 2.0050
 DoSCS=F DFT=T ScalE2(SS,OS)=  1.000000  1.000000
 Range of M.O.s used for correlation:     1   222
 NBasis=   222 NAE=    22 NBE=    22 NFC=     0 NFV=     0
 NROrb=    222 NOA=    22 NOB=    22 NVA=   200 NVB=   200

 **** Warning!!: The largest alpha MO coefficient is  0.19215186D+02

   1 Symmetry operations used in ECPInt.
 ECPInt:  NShTT=    4095 NPrTT=   12396 LenC2=    4075 LenP2D=   10359.
 LDataN:  DoStor=T MaxTD1= 7 Len=  274
 Symmetrizing basis deriv contribution to polar:
 IMax=3 JMax=2 DiffMx= 0.00D+00
 G2DrvN: will do    13 centers at a time, making    1 passes.
 Calling FoFCou, ICntrl=  3107 FMM=F I1Cent=   0 AccDes= 0.00D+00.
 End of G2Drv F.D. properties file   721 does not exist.
 End of G2Drv F.D. properties file   722 does not exist.
 End of G2Drv F.D. properties file   788 does not exist.
          IDoAtm=111111111111
          Differentiating once with respect to electric field.
                with respect to dipole field.
          Differentiating once with respect to nuclear coordinates.
 Keep R1 ints in memory in canonical form, NReq=319333990.
          There are    39 degrees of freedom in the 1st order CPHF.  IDoFFX=6 NUNeed=     3.
     36 vectors produced by pass  0 Test12= 1.13D-14 2.56D-09 XBig12= 1.01D+02 4.89D+00.
 AX will form    36 AO Fock derivatives at one time.
     36 vectors produced by pass  1 Test12= 1.13D-14 2.56D-09 XBig12= 2.70D+01 6.74D-01.
     36 vectors produced by pass  2 Test12= 1.13D-14 2.56D-09 XBig12= 2.35D-01 5.57D-02.
     36 vectors produced by pass  3 Test12= 1.13D-14 2.56D-09 XBig12= 7.41D-04 3.49D-03.
     36 vectors produced by pass  4 Test12= 1.13D-14 2.56D-09 XBig12= 1.44D-06 1.59D-04.
     31 vectors produced by pass  5 Test12= 1.13D-14 2.56D-09 XBig12= 2.46D-09 6.86D-06.
      5 vectors produced by pass  6 Test12= 1.13D-14 2.56D-09 XBig12= 3.53D-12 2.15D-07.
      3 vectors produced by pass  7 Test12= 1.13D-14 2.56D-09 XBig12= 5.27D-15 1.08D-08.
 InvSVY:  IOpt=1 It=  1 EMax= 5.33D-15
 Solved reduced A of dimension   219 with    39 vectors.
 Isotropic polarizability for W=    0.000000       65.33 Bohr**3.
 End of Minotr F.D. properties file   721 does not exist.
 End of Minotr F.D. properties file   722 does not exist.
 End of Minotr F.D. properties file   788 does not exist.
   1 Symmetry operations used in ECPInt.
 ECPInt:  NShTT=    4095 NPrTT=   12396 LenC2=    4075 LenP2D=   10359.
 LDataN:  DoStor=T MaxTD1= 8 Len=  415
 Calling FoFJK, ICntrl=    100127 FMM=F ISym2X=0 I1Cent= 0 IOpClX= 0 NMat=1 NMatS=1 NMatT=0.
 Full mass-weighted force constant matrix:
 Low frequencies --- -521.7613  -12.9476   -0.0006    0.0005    0.0008   10.8818
 Low frequencies ---   15.1746  226.1668  376.2626
 ******    1 imaginary frequencies (negative Signs) ****** 
 Diagonal vibrational polarizability:
        8.4621114       8.5578948       5.9663152
 Harmonic frequencies (cm**-1), IR intensities (KM/Mole), Raman scattering
 activities (A**4/AMU), depolarization ratios for plane and unpolarized
 incident light, reduced masses (AMU), force constants (mDyne/A),
 and normal coordinates:
                      1                      2                      3
                      A                      A                      A
 Frequencies --   -521.7506               226.1548               376.2517
 Red. masses --      5.5380                 2.8636                 2.5843
 Frc consts  --      0.8882                 0.0863                 0.2156
 IR Inten    --     46.5185                 4.4067                10.8673
  Atom  AN      X      Y      Z        X      Y      Z        X      Y      Z
     1   1    -0.13  -0.33   0.06    -0.12   0.15  -0.04     0.03   0.51   0.02
     2   6     0.05  -0.00   0.05    -0.01   0.07  -0.04    -0.01   0.23   0.02
     3   6    -0.02   0.02  -0.06     0.02   0.09  -0.07    -0.03  -0.05   0.08
     4   6     0.05   0.35   0.30     0.10  -0.13   0.16    -0.02  -0.05   0.04
     5   1    -0.01   0.17  -0.11     0.05   0.22  -0.08    -0.04  -0.14   0.11
     6   6     0.01   0.05   0.05    -0.11  -0.15   0.04    -0.01  -0.08   0.08
     7   1     0.08   0.43   0.28    -0.07  -0.34   0.37    -0.06  -0.09   0.11
     8   1    -0.12  -0.23  -0.06     0.47  -0.04   0.27     0.08  -0.21  -0.05
     9   1     0.02   0.05   0.02    -0.17  -0.29   0.18     0.00  -0.07   0.06
    10   6     0.03  -0.11  -0.01    -0.05  -0.05   0.02     0.05   0.09  -0.17
    11   1    -0.32  -0.08   0.11    -0.00  -0.17   0.14     0.14   0.35  -0.58
    12   8    -0.06  -0.23  -0.27     0.03   0.16  -0.13    -0.00  -0.13  -0.02
                      4                      5                      6
                      A                      A                      A
 Frequencies --    420.1159               575.2528               590.2136
 Red. masses --      4.4482                 2.6912                 3.8703
 Frc consts  --      0.4626                 0.5247                 0.7944
 IR Inten    --      4.9819                25.0841                 3.0160
  Atom  AN      X      Y      Z        X      Y      Z        X      Y      Z
     1   1    -0.02   0.04   0.11    -0.01   0.17   0.03    -0.05   0.35   0.26
     2   6    -0.10  -0.00   0.11    -0.03   0.18   0.02     0.04   0.05   0.26
     3   6    -0.05   0.24   0.05    -0.02  -0.14   0.07     0.23  -0.03  -0.06
     4   6    -0.23  -0.14  -0.10    -0.04  -0.06   0.00    -0.09   0.02   0.05
     5   1    -0.09   0.54  -0.17    -0.12  -0.60   0.13     0.15   0.12  -0.28
     6   6     0.12  -0.02   0.15     0.13   0.16  -0.11     0.09  -0.09  -0.08
     7   1    -0.12  -0.09  -0.29    -0.12  -0.24   0.05     0.13   0.09  -0.30
     8   1    -0.46  -0.03  -0.07     0.12  -0.04   0.04    -0.46   0.11   0.05
     9   1     0.18   0.03   0.02     0.07   0.03   0.01    -0.01   0.12   0.09
    10   6     0.08  -0.06   0.07    -0.04  -0.08   0.09    -0.09  -0.15  -0.16
    11   1    -0.01  -0.02   0.09    -0.23  -0.25   0.47     0.04  -0.22  -0.15
    12   8     0.17  -0.04  -0.19     0.02   0.02  -0.11    -0.12   0.12   0.02
                      7                      8                      9
                      A                      A                      A
 Frequencies --    736.1589               792.2288               889.5934
 Red. masses --      1.2398                 1.3880                 2.0668
 Frc consts  --      0.3959                 0.5133                 0.9637
 IR Inten    --     45.0149                23.3400                26.1388
  Atom  AN      X      Y      Z        X      Y      Z        X      Y      Z
     1   1     0.12   0.77  -0.02     0.09  -0.22  -0.03     0.21   0.33  -0.06
     2   6    -0.02  -0.09  -0.02     0.00   0.04  -0.03    -0.06  -0.12  -0.05
     3   6    -0.03  -0.07   0.02    -0.05  -0.02   0.05    -0.04   0.06   0.06
     4   6     0.04  -0.03   0.02     0.02   0.04  -0.02    -0.01   0.09  -0.04
     5   1     0.03   0.28  -0.07    -0.05   0.18  -0.04    -0.10   0.02  -0.04
     6   6    -0.01   0.02  -0.01     0.05  -0.05   0.06     0.19   0.03   0.04
     7   1     0.10   0.38   0.15    -0.11  -0.21   0.08    -0.23  -0.14   0.25
     8   1    -0.04  -0.15  -0.07     0.25   0.13   0.06     0.38   0.22   0.09
     9   1     0.07   0.23  -0.19     0.27   0.63  -0.46     0.00  -0.42   0.47
    10   6    -0.02   0.00   0.04    -0.03  -0.10  -0.01    -0.01  -0.06  -0.10
    11   1    -0.00   0.00   0.04     0.08  -0.01  -0.20    -0.10  -0.07  -0.03
    12   8     0.02   0.02  -0.03    -0.03   0.04  -0.00    -0.06   0.00   0.02
                     10                     11                     12
                      A                      A                      A
 Frequencies --    956.9036               960.9336               981.9894
 Red. masses --      1.6562                 1.4643                 1.3942
 Frc consts  --      0.8935                 0.7967                 0.7921
 IR Inten    --     34.2123                12.4175                 9.5016
  Atom  AN      X      Y      Z        X      Y      Z        X      Y      Z
     1   1     0.04  -0.31  -0.05     0.05   0.31   0.06     0.05  -0.06   0.03
     2   6     0.03   0.06  -0.04    -0.01  -0.03   0.06     0.02   0.03   0.03
     3   6    -0.03  -0.08   0.01    -0.00   0.01   0.01    -0.03  -0.14   0.01
     4   6    -0.03  -0.07  -0.00     0.02   0.06  -0.01     0.01   0.03  -0.01
     5   1    -0.03   0.34  -0.23     0.00   0.02   0.01     0.03   0.70  -0.33
     6   6     0.05  -0.02   0.08    -0.09  -0.04  -0.01    -0.01   0.06  -0.05
     7   1    -0.01   0.30   0.17    -0.04  -0.47  -0.22    -0.03  -0.39  -0.20
     8   1    -0.05  -0.33  -0.16     0.10   0.30   0.14     0.05   0.07   0.01
     9   1     0.06   0.02   0.06     0.00   0.17  -0.21    -0.10  -0.27   0.16
    10   6     0.07   0.07  -0.12     0.05   0.08  -0.09     0.01   0.01   0.06
    11   1    -0.26  -0.26   0.53    -0.21  -0.26   0.54     0.10   0.12  -0.16
    12   8    -0.05   0.04   0.04     0.03  -0.06   0.01    -0.00  -0.01  -0.00
                     13                     14                     15
                      A                      A                      A
 Frequencies --   1015.9618              1044.8205              1097.9463
 Red. masses --      3.5134                 1.7316                 1.3261
 Frc consts  --      2.1367                 1.1137                 0.9419
 IR Inten    --     14.5752                 5.6776                14.9277
  Atom  AN      X      Y      Z        X      Y      Z        X      Y      Z
     1   1    -0.32   0.15  -0.09     0.26  -0.13   0.02    -0.28  -0.14   0.02
     2   6    -0.06  -0.03  -0.08     0.02   0.01   0.02    -0.05   0.05   0.02
     3   6     0.22  -0.12  -0.17     0.11  -0.02   0.03    -0.00  -0.02   0.03
     4   6    -0.12   0.05  -0.02    -0.14   0.02  -0.05     0.08  -0.05  -0.04
     5   1     0.16  -0.18  -0.28     0.20   0.16   0.10    -0.03   0.14  -0.12
     6   6     0.09  -0.09   0.16    -0.11   0.04  -0.06     0.03  -0.01  -0.00
     7   1    -0.31  -0.22   0.14    -0.40   0.21   0.55     0.19   0.47   0.06
     8   1     0.12   0.12   0.06     0.31   0.07   0.06     0.06   0.65   0.37
     9   1     0.17   0.20   0.03    -0.24   0.22   0.17     0.00  -0.02   0.05
    10   6    -0.04   0.18   0.17    -0.00  -0.04  -0.03    -0.07   0.02  -0.02
    11   1    -0.28   0.40   0.02     0.15  -0.11  -0.01    -0.10   0.02   0.02
    12   8    -0.04  -0.02  -0.04     0.08  -0.04   0.00     0.02  -0.06  -0.01
                     16                     17                     18
                      A                      A                      A
 Frequencies --   1120.2672              1182.9194              1247.5104
 Red. masses --      1.5801                 1.2419                 1.3326
 Frc consts  --      1.1684                 1.0239                 1.2219
 IR Inten    --      1.1905                14.5723                 3.6392
  Atom  AN      X      Y      Z        X      Y      Z        X      Y      Z
     1   1     0.51  -0.10   0.15     0.02  -0.01  -0.06     0.67   0.04  -0.10
     2   6     0.04   0.00   0.14     0.03   0.01  -0.05     0.06   0.02  -0.09
     3   6    -0.04   0.04  -0.02     0.03   0.00   0.05    -0.03  -0.01  -0.05
     4   6     0.01  -0.00  -0.06    -0.06  -0.01   0.04    -0.05  -0.05   0.09
     5   1    -0.27  -0.15  -0.33     0.35   0.25   0.52    -0.14  -0.14  -0.19
     6   6     0.01  -0.08  -0.06     0.03  -0.03  -0.05    -0.01   0.01   0.02
     7   1    -0.07   0.17   0.21    -0.08   0.01   0.07     0.03  -0.01  -0.05
     8   1     0.29  -0.06  -0.05    -0.16   0.17   0.14    -0.37   0.39   0.31
     9   1     0.17  -0.33  -0.35     0.24  -0.42  -0.44    -0.06   0.13   0.12
    10   6    -0.02   0.07   0.06     0.02   0.02   0.01     0.03  -0.01   0.01
    11   1    -0.09   0.14   0.01    -0.08   0.04   0.04     0.02   0.02  -0.03
    12   8    -0.04  -0.01  -0.02    -0.05   0.00  -0.01    -0.01  -0.00   0.00
                     19                     20                     21
                      A                      A                      A
 Frequencies --   1343.6856              1409.0181              1439.5502
 Red. masses --      1.3707                 1.8732                 1.8270
 Frc consts  --      1.4581                 2.1911                 2.2307
 IR Inten    --     44.2002                54.7277                59.3405
  Atom  AN      X      Y      Z        X      Y      Z        X      Y      Z
     1   1    -0.21   0.08   0.01    -0.50   0.20   0.01     0.13   0.06   0.09
     2   6     0.03  -0.01   0.01     0.17  -0.02   0.01    -0.01   0.01   0.08
     3   6     0.00   0.00  -0.00    -0.02  -0.01  -0.02    -0.07  -0.03  -0.15
     4   6    -0.01  -0.02  -0.03    -0.04  -0.02  -0.04    -0.04  -0.04  -0.03
     5   1    -0.06  -0.08  -0.08    -0.22  -0.15  -0.29     0.26   0.04   0.44
     6   6    -0.01   0.03   0.04    -0.09   0.10   0.08    -0.01   0.03   0.05
     7   1    -0.03   0.05   0.05    -0.20  -0.02   0.24     0.22   0.22  -0.31
     8   1     0.06   0.13   0.06    -0.09   0.19   0.08     0.55   0.10   0.11
     9   1     0.05  -0.04  -0.06     0.10  -0.24  -0.28    -0.07   0.15   0.15
    10   6     0.07   0.04   0.03     0.07  -0.10  -0.03     0.15  -0.06   0.02
    11   1     0.85  -0.37   0.11    -0.37   0.15  -0.14    -0.22   0.15  -0.06
    12   8    -0.11  -0.02  -0.05     0.01   0.03   0.02    -0.07   0.02  -0.01
                     22                     23                     24
                      A                      A                      A
 Frequencies --   1495.8254              1549.6530              1616.6628
 Red. masses --      1.7475                 2.1716                 5.4998
 Frc consts  --      2.3038                 3.0725                 8.4690
 IR Inten    --      5.3758                19.7227               123.5427
  Atom  AN      X      Y      Z        X      Y      Z        X      Y      Z
     1   1    -0.22   0.05   0.05    -0.30   0.05  -0.10     0.26  -0.12  -0.07
     2   6     0.08  -0.00   0.04     0.11  -0.02  -0.09    -0.32   0.02  -0.05
     3   6    -0.09   0.02   0.01     0.02   0.05   0.16     0.24   0.04   0.20
     4   6     0.06  -0.01  -0.06    -0.14   0.00   0.07     0.14  -0.02  -0.05
     5   1     0.01   0.08   0.19    -0.24  -0.02  -0.27    -0.11  -0.09  -0.42
     6   6     0.05  -0.11  -0.11     0.01  -0.09  -0.13    -0.14   0.03  -0.03
     7   1    -0.26  -0.14   0.44     0.20   0.19  -0.46     0.06  -0.02   0.12
     8   1    -0.41   0.11  -0.04     0.51  -0.06   0.13    -0.23   0.04  -0.07
     9   1    -0.22   0.39   0.38    -0.14   0.18   0.12    -0.09  -0.03  -0.16
    10   6     0.09   0.03   0.06     0.05   0.02   0.04     0.33  -0.11   0.05
    11   1    -0.13   0.14   0.03    -0.11   0.11   0.01    -0.38   0.24  -0.08
    12   8    -0.06   0.01  -0.02    -0.03   0.00  -0.01    -0.15   0.03  -0.04
                     25                     26                     27
                      A                      A                      A
 Frequencies --   3018.9351              3132.4498              3157.6163
 Red. masses --      1.0849                 1.0577                 1.0879
 Frc consts  --      5.8257                 6.1148                 6.3906
 IR Inten    --     49.5531                24.4762                 3.0052
  Atom  AN      X      Y      Z        X      Y      Z        X      Y      Z
     1   1     0.00  -0.00   0.00     0.00   0.00   0.02    -0.00  -0.00   0.23
     2   6     0.00  -0.00  -0.00    -0.00   0.00   0.00     0.00  -0.00  -0.02
     3   6     0.00   0.00   0.00     0.00  -0.00  -0.00    -0.07   0.02   0.04
     4   6    -0.00   0.00   0.00     0.05   0.02  -0.04     0.00  -0.00   0.00
     5   1    -0.00   0.00  -0.00    -0.01   0.01   0.01     0.80  -0.24  -0.43
     6   6     0.00   0.00   0.00    -0.00   0.00   0.00     0.02  -0.00   0.01
     7   1     0.00  -0.00   0.00    -0.49   0.16  -0.28    -0.04   0.01  -0.02
     8   1    -0.00  -0.00   0.00    -0.08  -0.41   0.69     0.00   0.01  -0.01
     9   1    -0.05  -0.01  -0.03     0.00   0.00   0.00    -0.20  -0.01  -0.10
    10   6    -0.02  -0.07  -0.05     0.00  -0.00   0.00     0.00   0.00   0.00
    11   1     0.33   0.76   0.55     0.00   0.00  -0.00    -0.00  -0.01  -0.01
    12   8    -0.00  -0.00  -0.00    -0.00  -0.00   0.00    -0.00   0.00   0.00
                     28                     29                     30
                      A                      A                      A
 Frequencies --   3184.3809              3189.4240              3218.5673
 Red. masses --      1.0914                 1.0928                 1.1163
 Frc consts  --      6.5208                 6.5497                 6.8135
 IR Inten    --      0.7927                 8.8496                 5.8077
  Atom  AN      X      Y      Z        X      Y      Z        X      Y      Z
     1   1     0.00   0.00   0.87    -0.00  -0.00  -0.35    -0.00   0.00   0.24
     2   6    -0.00  -0.00  -0.08     0.00   0.00   0.03     0.00  -0.00  -0.02
     3   6     0.01  -0.00  -0.00    -0.02   0.01   0.01     0.00  -0.00  -0.00
     4   6     0.01  -0.01   0.02    -0.00   0.01  -0.01    -0.05   0.04  -0.07
     5   1    -0.11   0.03   0.05     0.25  -0.07  -0.14    -0.02   0.00   0.01
     6   6    -0.03  -0.00  -0.02    -0.07  -0.00  -0.04     0.00   0.00   0.00
     7   1    -0.13   0.04  -0.07     0.07  -0.02   0.04     0.67  -0.21   0.36
     8   1     0.02   0.07  -0.12    -0.01  -0.04   0.06    -0.07  -0.28   0.48
     9   1     0.37   0.02   0.19     0.78   0.05   0.39    -0.02  -0.00  -0.01
    10   6    -0.00  -0.00  -0.00     0.00  -0.01  -0.00     0.00   0.00   0.00
    11   1     0.01   0.02   0.01     0.01   0.04   0.03    -0.00  -0.00  -0.00
    12   8     0.00   0.00   0.00     0.00  -0.00  -0.00     0.00  -0.00   0.00

 -------------------
 - Thermochemistry -
 -------------------
 Temperature   298.150 Kelvin.  Pressure   1.00000 Atm.
 Atom     1 has atomic number  1 and mass   1.00783
 Atom     2 has atomic number  6 and mass  12.00000
 Atom     3 has atomic number  6 and mass  12.00000
 Atom     4 has atomic number  6 and mass  12.00000
 Atom     5 has atomic number  1 and mass   1.00783
 Atom     6 has atomic number  6 and mass  12.00000
 Atom     7 has atomic number  1 and mass   1.00783
 Atom     8 has atomic number  1 and mass   1.00783
 Atom     9 has atomic number  1 and mass   1.00783
 Atom    10 has atomic number  6 and mass  12.00000
 Atom    11 has atomic number  1 and mass   1.00783
 Atom    12 has atomic number  8 and mass  15.99491
 Molecular mass:    82.04186 amu.
 Principal axes and moments of inertia in atomic units:
                           1         2         3
     Eigenvalues --   326.13665 385.83786 669.17670
           X           -0.09586   0.97565   0.19725
           Y            0.62617  -0.09494   0.77389
           Z            0.77377   0.19770  -0.60182
 This molecule is an asymmetric top.
 Rotational symmetry number  1.
 Rotational temperatures (Kelvin)      0.26558     0.22448     0.12943
 Rotational constants (GHZ):           5.53370     4.67746     2.69696
    1 imaginary frequencies ignored.
 Zero-point vibrational energy     251042.3 (Joules/Mol)
                                   60.00054 (Kcal/Mol)
 Warning -- explicit consideration of   5 degrees of freedom as
           vibrations may cause significant error
 Vibrational temperatures:    325.39   541.34   604.45   827.66   849.19
          (Kelvin)           1059.17  1139.84  1279.93  1376.77  1382.57
                             1412.86  1461.74  1503.26  1579.70  1611.81
                             1701.96  1794.89  1933.26  2027.26  2071.19
                             2152.16  2229.61  2326.02  4343.57  4506.90
                             4543.11  4581.61  4588.87  4630.80
 
 Zero-point correction=                           0.095617 (Hartree/Particle)
 Thermal correction to Energy=                    0.100475
 Thermal correction to Enthalpy=                  0.101420
 Thermal correction to Gibbs Free Energy=         0.067555
 Sum of electronic and zero-point Energies=           -269.300506
 Sum of electronic and thermal Energies=              -269.295648
 Sum of electronic and thermal Enthalpies=            -269.294704
 Sum of electronic and thermal Free Energies=         -269.328568
 
                     E (Thermal)             CV                S
                      KCal/Mol        Cal/Mol-Kelvin    Cal/Mol-Kelvin
 Total                   63.049             18.173             71.274
 Electronic               0.000              0.000              0.000
 Translational            0.889              2.981             39.128
 Rotational               0.889              2.981             25.935
 Vibrational             61.272             12.212              6.211
 Vibration     1          0.650              1.801              1.909
 Vibration     2          0.747              1.521              1.054
 Vibration     3          0.783              1.427              0.892
 Vibration     4          0.932              1.085              0.494
 Vibration     5          0.948              1.053              0.467
                       Q            Log10(Q)             Ln(Q)
 Total Bot       0.844997D-31        -31.073145        -71.548561
 Total V=0       0.808278D+13         12.907561         29.720757
 Vib (Bot)       0.278503D-43        -43.555170       -100.289486
 Vib (Bot)    1  0.872354D+00         -0.059307         -0.136560
 Vib (Bot)    2  0.481799D+00         -0.317134         -0.730228
 Vib (Bot)    3  0.417917D+00         -0.378910         -0.872473
 Vib (Bot)    4  0.266154D+00         -0.574867         -1.323681
 Vib (Bot)    5  0.255535D+00         -0.592549         -1.364395
 Vib (V=0)       0.266401D+01          0.425535          0.979831
 Vib (V=0)    1  0.150549D+01          0.177677          0.409116
 Vib (V=0)    2  0.119436D+01          0.077134          0.177607
 Vib (V=0)    3  0.115166D+01          0.061322          0.141200
 Vib (V=0)    4  0.106643D+01          0.027931          0.064312
 Vib (V=0)    5  0.106151D+01          0.025926          0.059696
 Electronic      0.100000D+01          0.000000          0.000000
 Translational   0.292084D+08          7.465507         17.189966
 Rotational      0.103877D+06          5.016518         11.550960
 -------------------------------------------------------------------
 Center     Atomic                   Forces (Hartrees/Bohr)
 Number     Number              X              Y              Z
 -------------------------------------------------------------------
      1        1          -0.000608807    0.001200184   -0.000000634
      2        6           0.000605208   -0.001598413   -0.000000828
      3        6           0.000022378    0.000418673   -0.000008545
      4        6          -0.000026324   -0.000014743    0.000009252
      5        1           0.000001265   -0.000004241    0.000000771
      6        6           0.000004291   -0.000013354    0.000007092
      7        1          -0.000000466    0.000004250   -0.000000178
      8        1           0.000000077   -0.000008549   -0.000005063
      9        1           0.000000880    0.000001268   -0.000000006
     10        6           0.000016585    0.000016841    0.000018663
     11        1           0.000000132   -0.000000119    0.000002688
     12        8          -0.000015220   -0.000001798   -0.000023213
 -------------------------------------------------------------------
 Cartesian Forces:  Max     0.001598413 RMS     0.000369355
 -----------------------------------------------------------------------------------------------
                       Internal Coordinate Forces (Hartree/Bohr or radian)
  Cent   Atom   N1       Length/X         N2         Alpha/Y        N3         Beta/Z          J
 -----------------------------------------------------------------------------------------------
      1  H 
      2  C        1   0.000001(     1)
      3  C        2   0.000025(     2)      1  -0.000014(    12)
      4  C        2   0.000022(     3)      1  -0.000021(    13)      3   0.000046(    22)     0
      5  H        3   0.000002(     4)      2   0.000001(    14)      1  -0.000037(    23)     0
      6  C        3   0.000006(     5)      2  -0.000019(    15)      5  -0.000029(    24)     0
      7  H        4   0.000002(     6)      2   0.000000(    16)      1  -0.000023(    25)     0
      8  H        4   0.000000(     7)      2  -0.000009(    17)      7  -0.000016(    26)     0
      9  H        6   0.000001(     8)      3   0.000000(    18)      2  -0.000038(    27)     0
     10  C        6   0.000009(     9)      3  -0.000034(    19)      9  -0.000041(    28)     0
     11  H       10   0.000001(    10)      6  -0.000000(    20)      3  -0.000027(    29)     0
     12  O       10   0.000021(    11)      6  -0.000032(    21)     11  -0.000022(    30)     0
 -----------------------------------------------------------------------------------------------
 Internal  Forces:  Max     0.000046006 RMS     0.000021836

 GradGradGradGradGradGradGradGradGradGradGradGradGradGradGradGradGradGrad
 Berny optimization.
 Search for a saddle point.
 Step number   1 out of a maximum of    2
 All quantities printed in internal units (Hartrees-Bohrs-Radians)
 Swapping is turned off.
 Second derivative matrix not updated -- analytic derivatives used.
 ITU=  0
     Eigenvalues ---   -0.89254   0.01694   0.02788   0.04049   0.04340
[...]
   1                    0.47346   0.42094  -0.27424   0.27163  -0.24952
                          A12       D4        R10       A3        D7
   1                    0.24197   0.22564   0.22048  -0.20181   0.19342
 Angle between quadratic step and forces=  75.13 degrees.
 Linear search not attempted -- option 19 set.
 Variable       Old X    -DE/DX   Delta X   Delta X   Delta X     New X
                                 (Linear)    (Quad)   (Total)
    R2        2.04574   0.00000   0.00000  -0.00000  -0.00000   2.04574
    R3        2.61394   0.00002   0.00000   0.00004   0.00004   2.61398
    R4        2.63499   0.00002   0.00000  -0.00000  -0.00000   2.63499
    R5        2.05056   0.00000   0.00000   0.00000   0.00000   2.05056
    R6        2.65628   0.00001   0.00000   0.00001   0.00001   2.65629
    R7        2.04645   0.00000   0.00000   0.00000   0.00000   2.04646
    R8        2.04399   0.00000   0.00000  -0.00000  -0.00000   2.04399
    R9        2.04440   0.00000   0.00000   0.00000   0.00000   2.04440
   R10        2.65452   0.00001   0.00000   0.00006   0.00006   2.65458
   R11        2.07343   0.00000   0.00000   0.00001   0.00001   2.07344
   R12        2.38947   0.00002   0.00000   0.00002   0.00002   2.38949
    A3        2.10196  -0.00001   0.00000   0.00009   0.00009   2.10205
    A4        2.11875  -0.00002   0.00000  -0.00007  -0.00007   2.11869
    A5        2.09133   0.00000   0.00000   0.00003   0.00003   2.09136
    A6        2.11091  -0.00002   0.00000  -0.00005  -0.00005   2.11086
    A7        2.10092   0.00000   0.00000   0.00000   0.00000   2.10093
    A8        2.06509  -0.00001   0.00000   0.00003   0.00003   2.06512
    A9        2.07782   0.00000   0.00000   0.00000   0.00000   2.07783
   A10        2.07894  -0.00003   0.00000  -0.00001  -0.00001   2.07893
   A11        2.01930  -0.00000   0.00000   0.00001   0.00001   2.01931
   A12        2.23785  -0.00003   0.00000  -0.00003  -0.00003   2.23781
    D4        2.99866   0.00005   0.00000   0.00073   0.00073   2.99939
    D5       -0.28946  -0.00004   0.00000   0.00035   0.00035  -0.28911
    D6        2.92113  -0.00003   0.00000   0.00014   0.00014   2.92126
    D7       -0.15935  -0.00002   0.00000  -0.00060  -0.00060  -0.15996
    D8        2.63960  -0.00002   0.00000   0.00017   0.00017   2.63978
    D9       -3.04673  -0.00004   0.00000   0.00001   0.00001  -3.04672
   D10        2.67356  -0.00004   0.00000  -0.00004  -0.00004   2.67352
   D11       -2.49203  -0.00003   0.00000   0.00001   0.00001  -2.49202
   D12        2.99005  -0.00002   0.00000   0.00002   0.00002   2.99006
         Item               Value     Threshold  Converged?
 Maximum Force            0.000046     0.000450     YES
 RMS     Force            0.000022     0.000300     YES
 Maximum Displacement     0.000730     0.001800     YES
 RMS     Displacement     0.000191     0.001200     YES
 Predicted change in Energy=-1.603752D-08
 Optimization completed.
    -- Stationary point found.
                       ----------------------------
                       !   Optimized Parameters   !
                       ! (Angstroms and Degrees)  !
 ----------------------                            ----------------------
 !      Name          Value   Derivative information (Atomic Units)     !
 ------------------------------------------------------------------------
 !       R2          1.0826   -DE/DX =    0.0                           !
 !       R3          1.3832   -DE/DX =    0.0                           !
 !       R4          1.3944   -DE/DX =    0.0                           !
 !       R5          1.0851   -DE/DX =    0.0                           !
 !       R6          1.4056   -DE/DX =    0.0                           !
 !       R7          1.0829   -DE/DX =    0.0                           !
 !       R8          1.0816   -DE/DX =    0.0                           !
 !       R9          1.0818   -DE/DX =    0.0                           !
 !       R10         1.4047   -DE/DX =    0.0                           !
 !       R11         1.0972   -DE/DX =    0.0                           !
 !       R12         1.2645   -DE/DX =    0.0                           !
 !       A3        120.4333   -DE/DX =    0.0                           !
 !       A4        121.3957   -DE/DX =    0.0                           !
 !       A5        119.8242   -DE/DX =    0.0                           !
 !       A6        120.9462   -DE/DX =    0.0                           !
 !       A7        120.3741   -DE/DX =    0.0                           !
 !       A8        118.3209   -DE/DX =    0.0                           !
 !       A9        119.0505   -DE/DX =    0.0                           !
 !       A10       119.1144   -DE/DX =    0.0                           !
 !       A11       115.6975   -DE/DX =    0.0                           !
 !       A12       128.2192   -DE/DX =    0.0                           !
 !       D4        171.8106   -DE/DX =    0.0                           !
 !       D5        -16.585    -DE/DX =    0.0                           !
 !       D6        167.3682   -DE/DX =    0.0                           !
 !       D7         -9.1303   -DE/DX =    0.0                           !
 !       D8        151.2381   -DE/DX =    0.0                           !
 !       D9       -174.565    -DE/DX =    0.0                           !
 !       D10       153.1838   -DE/DX =    0.0                           !
 !       D11      -142.7828   -DE/DX =    0.0                           !
 !       D12       171.317    -DE/DX =    0.0                           !
 ------------------------------------------------------------------------
 GradGradGradGradGradGradGradGradGradGradGradGradGradGradGradGradGradGrad


 ----------------------------------------------------------------------

 Electric dipole moment (input orientation):
 (Debye = 10**-18 statcoulomb cm , SI units = C m)
                  (au)            (Debye)         (10**-30 SI)
   Tot        0.911747D+00      0.231743D+01      0.773012D+01
   x          0.539902D+00      0.137229D+01      0.457748D+01
   y         -0.337525D+00     -0.857903D+00     -0.286166D+01
   z         -0.652584D+00     -0.165870D+01     -0.553284D+01

 Dipole polarizability, Alpha (input orientation).
 (esu units = cm**3 , SI units = C**2 m**2 J**-1)
 Alpha(0;0):
               (au)            (10**-24 esu)      (10**-40 SI)
   iso        0.653264D+02      0.968037D+01      0.107709D+02
   aniso      0.358843D+02      0.531750D+01      0.591652D+01
   xx         0.729098D+02      0.108041D+02      0.120212D+02
   yx        -0.186886D+01     -0.276936D+00     -0.308133D+00
   yy         0.550935D+02      0.816402D+01      0.908369D+01
   zx         0.743924D+01      0.110238D+01      0.122657D+01
   zy         0.169048D+02      0.250504D+01      0.278723D+01
   zz         0.679757D+02      0.100730D+02      0.112077D+02

 ----------------------------------------------------------------------

 Dipole orientation:
     1          0.00000000          0.00000000          0.00000000
     6          1.21141102          0.75732503         -1.46424265
     6          3.78863615          0.95952380         -1.07732526
     6          0.29392584          1.25513082         -3.88366100
     1          4.54587281          0.85108932          0.82521214
     6          5.49134166          0.80533446         -3.11026062
     1         -1.57893384          0.63534620         -4.42793908
     1          0.97811321          2.91702063         -4.85726470
     1          7.49919663          0.80243681         -2.72545237
     6          4.71656120         -0.37698632         -5.35710505
     1          6.16504207         -1.49796669         -6.32892258
     8          2.50745385         -0.54874348         -6.25148108

 Electric dipole moment (dipole orientation):
 (Debye = 10**-18 statcoulomb cm , SI units = C m)
                  (au)            (Debye)         (10**-30 SI)
   Tot        0.911747D+00      0.231743D+01      0.773012D+01
   x          0.000000D+00      0.000000D+00      0.000000D+00
   y          0.000000D+00      0.000000D+00      0.000000D+00
   z          0.911747D+00      0.231743D+01      0.773012D+01

 Dipole polarizability, Alpha (dipole orientation).
 (esu units = cm**3 , SI units = C**2 m**2 J**-1)
 Alpha(0;0):
               (au)            (10**-24 esu)      (10**-40 SI)
   iso        0.653264D+02      0.968037D+01      0.107709D+02
   aniso      0.358843D+02      0.531750D+01      0.591652D+01
   xx         0.800767D+02      0.118661D+02      0.132029D+02
   yx        -0.437142D+01     -0.647778D+00     -0.720750D+00
   yy         0.444902D+02      0.659277D+01      0.733544D+01
   zx        -0.353656D+01     -0.524064D+00     -0.583100D+00
   zy         0.729614D+01      0.108118D+01      0.120297D+01
   zz         0.714122D+02      0.105822D+02      0.117743D+02

 ----------------------------------------------------------------------
 1\1\GINC-BHC0106\Freq\RB3LYP\def2TZVP\C5H6O1\DHANAWAY\10-Jun-2022\1\\#
 N Geom=AllCheck Guess=TCheck SCRF=Check GenChk RB3LYP/def2TZVP Freq\\t
 s_zmat_initalOpt\\0,1\H\C,1,R2\C,2,R3,1,A3\C,2,R4,1,A4,3,D4,0\H,3,R5,2
 ,A5,1,D5,0\C,3,R6,2,A6,5,D6,0\H,4,R7,2,A7,1,D7,0\H,4,R8,2,A8,7,D8,0\H,
 6,R9,3,A9,2,D9,0\C,6,R10,3,A10,9,D10,0\H,10,R11,6,A11,3,D11,0\O,10,R12
 ,6,A12,11,D12,0\\R2=1.08256057\R3=1.38323712\R4=1.39437691\R5=1.085111
 9\R6=1.40564116\R7=1.08293695\R8=1.08163282\R9=1.08184937\R10=1.404711
 56\R11=1.09721333\R12=1.26445278\A3=120.4332842\A4=121.39570792\A5=119
 .82418666\A6=120.9462266\A7=120.37407051\A8=118.32093554\A9=119.050539
 88\A10=119.11440404\A11=115.69746306\A12=128.21919511\D4=171.81057581\
 D5=-16.58503135\D6=167.36816188\D7=-9.13033783\D8=151.23814964\D9=-174
 .56495063\D10=153.18376952\D11=-142.78279574\D12=171.31701448\\Version
 =ES64L-G16RevA.03\HF=-269.3961234\RMSD=1.805e-09\RMSF=3.694e-04\ZeroPo
 int=0.095617\Thermal=0.1004754\Dipole=0.5399021,-0.3375249,-0.6525841\
 DipoleDeriv=0.0785266,0.0087267,0.0074975,0.0939627,0.1773547,0.068498
 5,-0.0065471,-0.0059718,-0.0034304,-0.7979035,-0.1296611,-0.361415,-0.
 0125335,-0.303105,-0.0746766,-0.035377,-0.1109965,-0.129235,0.4342643,
 0.1530344,0.2418867,0.0712117,0.131967,0.3350461,0.3396368,0.2881445,0
 .5332902,0.5368096,0.0009088,0.1142523,-0.280966,0.3543009,-0.0011403,
 -0.4147288,0.1140462,0.2089401,-0.0040002,0.0340867,0.0392611,-0.01666
 73,0.0908116,-0.0706126,0.0663645,-0.0330907,0.0796469,-0.0280225,0.13
 76022,0.3088222,-0.0458035,-0.6281006,-0.284383,-0.1253691,-0.1798035,
 -0.5608286,-0.0441784,0.0115582,-0.0442681,-0.0279537,0.0715608,-0.012
 7657,-0.0933998,0.0079517,0.0428329,0.0374199,0.0128619,-0.0245334,0.0
 416793,-0.0125513,0.0484437,0.1106712,0.0908575,-0.036387,-0.046464,0.
 0111633,-0.097575,-0.0410135,0.1020584,-0.1007912,-0.0615131,-0.045658
 ,0.0719019,0.5504698,-0.5544604,-0.3465905,-0.0908887,0.6037531,0.3196
 991,0.0922669,0.0366777,0.0395809,0.0769076,-0.0953184,-0.0894631,-0.0
 265836,-0.0495019,-0.1112397,-0.1113195,-0.1274858,-0.0410954,-0.79382
 92,0.4094977,0.2521252,0.3355562,-0.5385476,-0.1160782,0.2393148,-0.03
 46715,-0.2052165\Polar=72.9097941,-1.8688587,55.0935226,7.4392436,16.9
 048328,67.9757391\PG=C01 [X(C5H6O1)]\NImag=1\\0.05561637,-0.00475266,0
 .02201650,0.00101719,0.00088113,0.35771460,-0.05183425,0.02281903,-0.0
 0148419,0.63440758,0.00943383,-0.03098251,-0.00183009,-0.03665889,0.13
 091171,0.00024967,0.00178619,-0.33702016,0.00890263,0.02849011,0.72047
 821,0.00228903,-0.01018525,0.00128614,-0.28354123,0.00437085,-0.126725
 00,0.70417148,-0.00160600,-0.00025776,-0.00032926,0.00791270,-0.062625
 00,-0.00444192,-0.08092560,0.22828219,-0.03056408,-0.00794432,-0.01217
 098,-0.06558218,-0.00420963,-0.17870621,0.01144037,0.15748189,0.577236
 16,0.00045562,-0.00699964,-0.00024511,-0.27362088,0.02773780,0.1236661
 0,-0.05829325,0.00402063,-0.00697031,0.68384128,-0.00242153,0.00980879
 ,0.00052308,-0.03096822,-0.05706345,0.00032139,0.03787719,0.01062480,0
 .03864386,-0.06566772,0.19887867,0.02886031,0.00606347,-0.01151632,0.0
 6062903,0.00314476,-0.17222692,0.02393522,0.00707873,0.05670601,-0.026
 04601,-0.23640965,0.49878507,0.00075531,-0.00128567,-0.00011233,-0.017
 25542,0.00540329,0.01476062,-0.25631259,0.06108672,0.10610231,-0.00448
 691,0.00287002,-0.00345843,0.27104593,-0.00044513,-0.00292019,-0.00038
 327,-0.00727387,0.00736547,0.00030093,0.06355729,-0.05870909,-0.025547
 89,0.00048464,0.00259826,-0.00604546,-0.06509680,0.04896595,0.00072771
 ,0.00079589,0.00073930,-0.01180236,0.00170750,0.01265571,0.10631054,-0
 .03623596,-0.12067354,-0.00345667,0.00001840,0.00082895,-0.11415937,0.
 04468514,0.11752475,-0.00439584,-0.00177022,-0.00239661,0.02379337,-0.
 00815434,-0.03187078,-0.12253418,-0.00906955,-0.04228332,-0.00605430,0
 .01804924,0.01723038,0.00503705,0.00943118,0.02504744,0.61603305,0.001
 11539,0.01040291,0.00155395,-0.04249571,0.00736113,-0.00592645,0.02623
 819,-0.09079473,-0.08894511,0.01251094,-0.03474813,-0.03296689,-0.0012
 8286,-0.00389972,-0.00769349,-0.12037823,0.31831478,-0.00066927,0.0047
 5522,0.00054964,-0.06770383,-0.00777901,-0.02648081,0.02169115,-0.0861
 1458,-0.25828272,0.01849821,-0.02962921,-0.03967562,-0.00285447,-0.017
 38202,-0.00724022,0.13517053,0.19590375,0.47832510,0.00088145,-0.00128
 365,0.00021950,-0.01688652,0.00540851,-0.01581963,-0.00324966,0.003567
 39,0.00452877,-0.25677043,0.06662651,-0.10974825,-0.00112167,-0.000769
 51,-0.00064191,0.00069382,0.00004658,0.00006221,0.27074503,-0.00045345
 ,-0.00278183,0.00032648,-0.00332939,0.00608211,0.00315749,0.00317144,0
 .00585142,0.00254881,0.06782241,-0.06701351,0.03807732,-0.00000737,-0.
 00106140,0.00050344,0.00113331,-0.00077760,-0.00209281,-0.07254899,0.0
 5642101,-0.00089178,-0.00106557,0.00094846,0.01385517,-0.00113472,0.01
 372854,0.00399541,0.00135985,-0.00034179,-0.11326695,0.03851152,-0.120
 21565,0.00076142,-0.00057789,0.00065945,0.00074407,-0.00047062,-0.0009
 9477,0.11806303,-0.04461326,0.11532530,-0.00336327,0.00002246,0.001224
 57,0.00188460,-0.01146386,0.02422465,-0.00083697,-0.00060030,0.0009962
 0,-0.06083796,-0.00681375,0.02777217,0.00034942,0.00048078,-0.00014015
 ,0.00011612,0.00215416,0.00142171,0.00541131,0.01326094,-0.02049004,0.
 05565172,0.00038977,0.00216852,-0.00115400,0.01617079,0.00633193,-0.00
 394512,-0.00484986,-0.00263837,-0.00795451,-0.01780070,-0.10102494,0.1
 4850820,-0.00028205,0.00061602,-0.00029377,-0.00329629,0.00353647,0.00
 495374,-0.00074959,0.00149914,0.00630279,0.01447362,0.12375461,0.00248
 736,0.00227694,-0.00017521,0.01280685,0.00474878,-0.01369373,-0.005767
 41,-0.00444280,-0.00459076,0.02187864,0.14102847,-0.24581868,-0.000108
 10,0.00032545,-0.00010589,-0.00129573,0.00482081,0.00463558,0.00293299
 ,0.00633354,-0.00817141,-0.03097021,-0.13363590,0.26891372,-0.00020928
 ,0.00005994,0.00001941,0.00233884,0.00080452,-0.00034160,0.00124531,-0
 .00012667,0.00164876,0.00012531,0.00112441,0.00150391,0.00090399,-0.00
 067934,-0.00012730,-0.28022819,-0.00457563,-0.11875411,-0.00001925,0.0
 0000887,-0.00002074,0.00009518,-0.00011772,0.00004615,0.29439417,-0.00
 114385,0.00098618,-0.00068907,0.00194474,0.00359798,-0.00517857,-0.015
 84416,-0.00069112,-0.00460537,0.00093634,-0.00139137,-0.00023897,0.000
 21341,-0.00259497,0.00141116,-0.01395629,-0.04159832,-0.02363064,-0.00
 010140,-0.00014232,-0.00006846,0.00034285,0.00016094,0.00039444,0.0059
 8715,0.03957187,-0.00081451,-0.00035744,-0.00019438,-0.00004234,-0.003
 92785,-0.00275113,-0.02633441,-0.00098687,-0.01080936,0.00027103,-0.00
 061824,-0.00152704,0.00009476,0.00208238,0.00041226,-0.11280181,-0.018
 49672,-0.09823080,-0.00004122,0.00012718,0.00007610,-0.00023654,0.0000
 2304,-0.00007601,0.12551390,0.02275987,0.10686488,-0.00045942,0.010410
 54,-0.00014490,-0.08311766,0.00348895,0.00129724,0.05400181,0.03377852
 ,0.07399363,0.02057006,-0.08062005,-0.09015291,0.00119208,-0.00347178,
 -0.00134727,-0.16875959,0.03577015,-0.02399523,-0.00046067,-0.00134529
 ,-0.00092726,0.00449939,0.01078747,0.00893041,-0.01771437,0.01923150,0
 .01211305,0.63886602,0.00008524,-0.00434553,0.00046417,0.03308102,-0.0
 0308275,-0.00095140,-0.01052612,-0.02343456,-0.03816517,-0.02182371,0.
 02713904,0.02624321,-0.00078593,0.00820641,-0.00273887,0.11355008,-0.1
 7957946,-0.05084527,0.00047096,-0.00132640,0.00014326,-0.00345658,-0.0
 0611298,-0.00430607,-0.00790776,0.00055776,0.00373471,-0.05319625,0.50
 036943,-0.00034342,0.00182276,0.00012614,-0.00614628,-0.00244917,-0.00
 053416,0.02144213,-0.02285501,-0.01716845,-0.00933265,-0.01446629,-0.0
 1626445,-0.00074413,-0.00372985,-0.00404467,0.03106556,-0.06938971,-0.
 10165856,-0.00037069,-0.00315032,-0.00109644,0.00038047,0.00177161,0.0
 0147657,-0.00976940,0.01254379,0.00374253,0.12671039,0.20583445,0.3634
 8654,0.00004400,-0.00114555,0.00011167,0.00624432,-0.00146512,-0.00082
 872,-0.00334901,0.00275279,-0.00471733,-0.00219067,0.00916683,0.008135
 85,-0.00007722,-0.00009092,0.00021617,0.00421898,0.01798814,0.01431253
 ,0.00003836,-0.00018484,0.00004484,-0.00030021,-0.00162326,-0.00042595
 ,0.00043103,-0.00042964,0.00031836,-0.05796433,-0.05774664,-0.04436895
 ,0.08887209,-0.00010146,-0.00045935,0.00000939,0.00131666,-0.00094925,
 -0.00038186,0.00539497,-0.00029869,-0.00194359,0.00114118,0.00435480,0
 .00167198,-0.00030996,0.00037386,-0.00190332,-0.00978774,-0.01271142,-
 0.01531382,0.00006434,0.00015633,-0.00003104,0.00020334,0.00023095,0.0
 0054040,0.00003073,-0.00038945,0.00122073,-0.04603382,-0.20696829,-0.1
 0429015,0.06039845,0.20609582,0.00012781,0.00064713,-0.00003914,-0.001
 02988,0.00149220,0.00133430,-0.00115935,-0.00349831,0.00507747,-0.0021
 9148,-0.00069438,0.00299573,0.00017467,0.00094814,0.00051495,-0.001426
 48,-0.01186327,-0.00028967,-0.00008146,-0.00063819,-0.00003195,-0.0003
 2520,-0.00071071,-0.00105291,0.00119836,0.00184712,-0.00126595,-0.0403
 8014,-0.10056971,-0.11800485,0.05956653,0.12423074,0.11552162,0.000220
 27,-0.00588933,0.00050467,0.05758725,0.00109447,0.00248482,-0.03359073
 ,-0.02079062,-0.04859280,-0.04273788,0.05077704,0.06133873,-0.00002998
 ,0.00387345,-0.00062682,-0.06792029,0.07290888,0.02282058,0.00073822,-
 0.00752764,-0.00186717,-0.00266933,-0.01310216,-0.01051500,-0.00136275
 ,0.00281936,0.00195973,-0.39065332,0.00825570,-0.10852302,-0.03596735,
 -0.01231669,-0.01447337,0.51638590,-0.00010015,-0.00363574,0.00062748,
 0.03748112,-0.00694736,-0.01323077,-0.01827894,-0.00530910,-0.01935897
 ,-0.00236215,0.00783706,0.04487331,-0.00052279,0.00105939,-0.00025612,
 0.02424885,0.02449409,0.02717466,-0.00073113,0.00309306,0.00164413,-0.
 00860366,-0.02852228,-0.01808406,0.00539150,0.00193283,-0.00556080,0.0
 7120006,-0.11142268,-0.00164211,-0.02762023,0.01056468,-0.01119078,-0.
 08010247,0.10685605,-0.00018699,-0.00966142,0.00103806,0.05759739,-0.0
 1825290,-0.01678365,-0.03011478,-0.00701575,-0.03627585,-0.00280478,0.
 06277106,0.04792890,-0.00045694,0.00532435,-0.00127104,-0.01718325,0.0
 3347376,0.04934285,0.00089666,-0.00057968,0.00011415,-0.00385762,-0.01
 386537,-0.00134128,-0.00091733,-0.00454531,0.00375889,-0.06609702,-0.0
 3884332,-0.11006019,-0.03236499,-0.00380943,-0.00475960,0.09548965,-0.
 00499598,0.06830877\\0.00060881,-0.00120018,0.00000063,-0.00060521,0.0
 0159841,0.00000083,-0.00002238,-0.00041867,0.00000854,0.00002632,0.000
 01474,-0.00000925,-0.00000127,0.00000424,-0.00000077,-0.00000429,0.000
 01335,-0.00000709,0.00000047,-0.00000425,0.00000018,-0.00000008,0.0000
 0855,0.00000506,-0.00000088,-0.00000127,0.,-0.00001659,-0.00001684,-0.
 00001866,-0.00000013,0.00000012,-0.00000269,0.00001522,0.00000180,0.00
 002321\\\@


 GROWING OLD ISN'T SO BAD -- WHEN YOU CONSIDER THE ALTERNATIVE.

                     -- MAURICE CHEVALIER
 Job cpu time:       0 days  0 hours 30 minutes 32.3 seconds.
 Elapsed time:       0 days  0 hours  2 minutes 33.8 seconds.
 File lengths (MBytes):  RWF=     54 Int=      0 D2E=      0 Chk=     32 Scr=      1
 Normal termination of Gaussian 16 at Fri Jun 10 03:37:08 2022.
