 Entering Gaussian System, Link 0=g16
 Input=ts_zmat_field_N25.gjf
 Output=ts_zmat_field_N25.out
 Initial command:
 /software/gaussian/g16-a03/l1.exe "/local_scratch/11171296/Gau-18546.inp" -scrdir="/local_scratch/11171296/"
 Entering Link 1 = /software/gaussian/g16-a03/l1.exe PID=     18547.
  
 Copyright (c) 1988,1990,1992,1993,1995,1998,2003,2009,2016,
            Gaussian, Inc.  All Rights Reserved.
  
 This is part of the Gaussian(R) 16 program.  It is based on
 the Gaussian(R) 09 system (copyright 2009, Gaussian, Inc.),
 the Gaussian(R) 03 system (copyright 2003, Gaussian, Inc.),
 the Gaussian(R) 98 system (copyright 1998, Gaussian, Inc.),
 the Gaussian(R) 94 system (copyright 1995, Gaussian, Inc.),
 the Gaussian 92(TM) system (copyright 1992, Gaussian, Inc.),
 the Gaussian 90(TM) system (copyright 1990, Gaussian, Inc.),
 the Gaussian 88(TM) system (copyright 1988, Gaussian, Inc.),
 the Gaussian 86(TM) system (copyright 1986, Carnegie Mellon
 University), and the Gaussian 82(TM) system (copyright 1983,
 Carnegie Mellon University). Gaussian is a federally registered
 trademark of Gaussian, Inc.
  
 This software contains proprietary and confidential information,
 including trade secrets, belonging to Gaussian, Inc.
  
 This software is provided under written license and may be
 used, copied, transmitted, or stored only in accord with that
 written license.
  
 The following legend is applicable only to US Government
 contracts under FAR:
  
                    RESTRICTED RIGHTS LEGEND
  
 Use, reproduction and disclosure by the US Government is
 subject to restrictions as set forth in subparagraphs (a)
 and (c) of the Commercial Computer Software - Restricted
 Rights clause in FAR 52.227-19.
  
 Gaussian, Inc.
 340 Quinnipiac St., Bldg. 40, Wallingford CT 06492
  
  
 ---------------------------------------------------------------
 Warning -- This program may not be used in any manner that
 competes with the business of Gaussian, Inc. or will provide
 assistance to any competitor of Gaussian, Inc.  The licensee
 of this program is prohibited from giving any competitor of
 Gaussian, Inc. access to this program.  By using this program,
 the user acknowledges that Gaussian, Inc. is engaged in the
 business of creating and licensing software in the field of
 computational chemistry and represents and warrants to the
 licensee that it is not a competitor of Gaussian, Inc. and that
 it will not use this program in any manner prohibited above.
 ---------------------------------------------------------------
  

 Cite this work as:
 Gaussian 16, Revision A.03,
 M. J. Frisch, G. W. Trucks, H. B. Schlegel, G. E. Scuseria, 
 M. A. Robb, J. R. Cheeseman, G. Scalmani, V. Barone, 
 G. A. Petersson, H. Nakatsuji, X. Li, M. Caricato, A. V. Marenich, 
 J. Bloino, B. G. Janesko, R. Gomperts, B. Mennucci, H. P. Hratchian, 
 J. V. Ortiz, A. F. Izmaylov, J. L. Sonnenberg, D. Williams-Young, 
 F. Ding, F. Lipparini, F. Egidi, J. Goings, B. Peng, A. Petrone, 
 T. Henderson, D. Ranasinghe, V. G. Zakrzewski, J. Gao, N. Rega, 
 G. Zheng, W. Liang, M. Hada, M. Ehara, K. Toyota, R. Fukuda, 
 J. Hasegawa, M. Ishida, T. Nakajima, Y. Honda, O. Kitao, H. Nakai, 
 T. Vreven, K. Throssell, J. A. Montgomery, Jr., J. E. Peralta, 
 F. Ogliaro, M. J. Bearpark, J. J. Heyd, E. N. Brothers, K. N. Kudin, 
 V. N. Staroverov, T. A. Keith, R. Kobayashi, J. Normand, 
 K. Raghavachari, A. P. Rendell, J. C. Burant, S. S. Iyengar, 
 J. Tomasi, M. Cossi, J. M. Millam, M. Klene, C. Adamo, R. Cammi, 
 J. W. Ochterski, R. L. Martin, K. Morokuma, O. Farkas, 
 J. B. Foresman, and D. J. Fox, Gaussian, Inc., Wallingford CT, 2016.
 
 ******************************************
 Gaussian 16:  ES64L-G16RevA.03 25-Dec-2016
                10-Jun-2022 
 ******************************************
 %nprocshared=12
 Will use up to   12 processors via shared memory.
 %chk=checkpoint.chk
 %mem=12GB
 ----------------------------------------------------------------------
 # Opt=(TS, CalcFC, noeigentest, Z-matrix, MaxStep=10) Field=read NoSym
 m B3LYP/Def2TZVP freq=noraman pop=none
 ----------------------------------------------------------------------
 1/5=1,8=10,10=4,11=1,18=40,26=3,38=1/1,3;
 2/12=2,15=1,17=6,18=5,29=3,40=1/2;
 3/5=44,7=101,11=2,14=-6,25=1,30=1,71=2,74=-5,140=1/1,2,3;
 4//1;
 5/5=2,38=5/2;
 8/6=4,10=90,11=11/1;
 11/6=1,8=1,9=11,15=111,16=1,31=1/1,2,10;
 10/6=1,13=1,31=1/2;
 7/10=1,18=20,25=1,30=1/1,2,3,16;
 1/5=1,8=10,10=4,11=1,18=40,26=3/3(2);
 2/15=1,29=3/2;
 99//99;
 2/15=1,29=3/2;
 3/5=44,7=101,11=2,14=-2,25=1,30=1,71=1,74=-5/1,2,3;
 4/5=5,16=3,69=1/1;
 5/5=2,38=5/2;
 7/30=1/1,2,3,16;
 1/5=1,8=10,11=1,18=40,26=3/3(-5);
 2/15=1,29=3/2;
 99/9=1/99;
 -----------------
 ts_zmat_initalOpt
 -----------------
 Symbolic Z-matrix:
 Charge =  0 Multiplicity = 1
 C
 C                    1    R2
 C                    1    R3       2    A3
 H                    1    R4       2    A4       3    D4       0
 H                    1    R5       2    A5       3    D5       0
 H                    3    R6       1    A6       2    D6       0
 H                    3    R7       1    A7       6    D7       0
 C                    2    R8       1    A8       3    D8       0
 H                    2    R9       1    A9       8    D9       0
 C                    8    R10      2    A10      1    D10      0
 H                    8    R11      2    A11      10   D11      0
 H                    10   R12      8    A12      2    D12      0
 H                    10   R13      8    A13      12   D13      0
       Variables:
  R2                    1.50547                  
  R3                    1.45933                  
  R4                    1.09295                  
  R5                    1.09595                  
  R6                    1.07871                  
  R7                    1.08047                  
  R8                    1.38898                  
  R9                    1.08703                  
  R10                   1.36997                  
  R11                   1.09297                  
  R12                   1.07697                  
  R13                   1.08422                  
  A3                  103.43863                  
  A4                  112.24803                  
  A5                  107.97209                  
  A6                  122.85703                  
  A7                  119.03922                  
  A8                  123.46834                  
  A9                  117.59259                  
  A10                 127.86756                  
  A11                 114.76605                  
  A12                 120.90319                  
  A13                 121.23389                  
  D4                 -122.96216                  
  D5                  118.46513                  
  D6                 -112.52617                  
  D7                  178.67074                  
  D8                   49.95402                  
  D9                  178.2753                   
  D10                 -30.67262                  
  D11                 177.67396                  
  D12                 -34.33522                  
  D13                -169.52736                  
 

 GradGradGradGradGradGradGradGradGradGradGradGradGradGradGradGradGradGrad
 Berny optimization.
 Initialization pass.
                       ----------------------------
                       !    Initial Parameters    !
                       ! (Angstroms and Degrees)  !
 ----------------------                            ----------------------
 !      Name          Value   Derivative information (Atomic Units)     !
 ------------------------------------------------------------------------
 !       R2          1.5055   calculate D2E/DX2 analytically            !
 !       R3          1.4593   calculate D2E/DX2 analytically            !
 !       R4          1.0929   calculate D2E/DX2 analytically            !
 !       R5          1.096    calculate D2E/DX2 analytically            !
 !       R6          1.0787   calculate D2E/DX2 analytically            !
 !       R7          1.0805   calculate D2E/DX2 analytically            !
 !       R8          1.389    calculate D2E/DX2 analytically            !
 !       R9          1.087    calculate D2E/DX2 analytically            !
 !       R10         1.37     calculate D2E/DX2 analytically            !
 !       R11         1.093    calculate D2E/DX2 analytically            !
 !       R12         1.077    calculate D2E/DX2 analytically            !
 !       R13         1.0842   calculate D2E/DX2 analytically            !
 !       A3        103.4386   calculate D2E/DX2 analytically            !
 !       A4        112.248    calculate D2E/DX2 analytically            !
 !       A5        107.9721   calculate D2E/DX2 analytically            !
 !       A6        122.857    calculate D2E/DX2 analytically            !
 !       A7        119.0392   calculate D2E/DX2 analytically            !
 !       A8        123.4683   calculate D2E/DX2 analytically            !
 !       A9        117.5926   calculate D2E/DX2 analytically            !
 !       A10       127.8676   calculate D2E/DX2 analytically            !
 !       A11       114.7661   calculate D2E/DX2 analytically            !
 !       A12       120.9032   calculate D2E/DX2 analytically            !
 !       A13       121.2339   calculate D2E/DX2 analytically            !
 !       D4       -122.9622   calculate D2E/DX2 analytically            !
 !       D5        118.4651   calculate D2E/DX2 analytically            !
 !       D6       -112.5262   calculate D2E/DX2 analytically            !
 !       D7        178.6707   calculate D2E/DX2 analytically            !
 !       D8         49.954    calculate D2E/DX2 analytically            !
 !       D9        178.2753   calculate D2E/DX2 analytically            !
 !       D10       -30.6726   calculate D2E/DX2 analytically            !
 !       D11       177.674    calculate D2E/DX2 analytically            !
 !       D12       -34.3352   calculate D2E/DX2 analytically            !
 !       D13      -169.5274   calculate D2E/DX2 analytically            !
 ------------------------------------------------------------------------
 Trust Radius=1.00D-01 FncErr=1.00D-07 GrdErr=1.00D-06 EigMax=2.50D+02 EigMin=1.00D-04
 Number of steps in this run=     43 maximum allowed number of steps=    100.
 Search for a saddle point of order  1.
 GradGradGradGradGradGradGradGradGradGradGradGradGradGradGradGradGradGrad

 ---------------------------------------------------------------------------------------------------
                            Z-MATRIX (ANGSTROMS AND DEGREES)
   CD    Cent   Atom    N1       Length/X        N2       Alpha/Y        N3        Beta/Z          J
 ---------------------------------------------------------------------------------------------------
      1      1  C 
      2      2  C        1   1.505466(     1)
      3      3  C        1   1.459328(     2)      2  103.439(    13)
      4      4  H        1   1.092947(     3)      2  112.248(    14)      3 -122.962(    24)      0
      5      5  H        1   1.095952(     4)      2  107.972(    15)      3  118.465(    25)      0
      6      6  H        3   1.078713(     5)      1  122.857(    16)      2 -112.526(    26)      0
      7      7  H        3   1.080469(     6)      1  119.039(    17)      6  178.671(    27)      0
      8      8  C        2   1.388977(     7)      1  123.468(    18)      3   49.954(    28)      0
      9      9  H        2   1.087030(     8)      1  117.593(    19)      8  178.275(    29)      0
     10     10  C        8   1.369970(     9)      2  127.868(    20)      1  -30.673(    30)      0
     11     11  H        8   1.092971(    10)      2  114.766(    21)     10  177.674(    31)      0
     12     12  H       10   1.076968(    11)      8  120.903(    22)      2  -34.335(    32)      0
     13     13  H       10   1.084224(    12)      8  121.234(    23)     12 -169.527(    33)      0
 ---------------------------------------------------------------------------------------------------
                         Z-Matrix orientation:                         
 ---------------------------------------------------------------------
 Center     Atomic      Atomic             Coordinates (Angstroms)
 Number     Number       Type             X           Y           Z
 ---------------------------------------------------------------------
      1          6           0        0.000000    0.000000    0.000000
      2          6           0        0.000000    0.000000    1.505466
      3          6           0        1.419370    0.000000   -0.339153
      4          1           0       -0.550386    0.848747   -0.413808
      5          1           0       -0.496869   -0.916449   -0.338160
      6          1           0        1.907917    0.837013   -0.812812
      7          1           0        2.018267   -0.863939   -0.089461
      8          6           0        0.745492    0.886996    2.271454
      9          1           0       -0.641766   -0.718516    2.008958
     10          6           0        1.949240    1.461748    1.959255
     11          1           0        0.282128    1.175754    3.218290
     12          1           0        2.686637    0.924781    1.386741
     13          1           0        2.261343    2.395184    2.414040
 ---------------------------------------------------------------------
                    Distance matrix (angstroms):
                    1          2          3          4          5
     1  C    0.000000
     2  C    1.505466   0.000000
     3  C    1.459328   2.327495   0.000000
     4  H    1.092947   2.169542   2.146133   0.000000
     5  H    1.095952   2.117951   2.124113   1.767627   0.000000
     6  H    2.236381   3.116914   1.078713   2.490501   3.013789
     7  H    2.197224   2.713593   1.080469   3.104267   2.527947
     8  C    2.549907   1.388977   2.838335   2.981844   3.406752
     9  H    2.228013   1.087030   3.205960   2.886947   2.359902
    10  C    3.126487   2.478339   2.774914   3.500761   4.113075
    11  H    3.437933   2.096607   3.915497   3.740609   4.199106
    12  H    3.161691   2.843824   2.332358   3.704872   4.062034
    13  H    4.083891   3.417028   3.745116   4.277150   5.113634
                    6          7          8          9         10
     6  H    0.000000
     7  H    1.851662   0.000000
     8  C    3.296427   3.203069   0.000000
     9  H    4.108886   3.391207   2.138003   0.000000
    10  C    2.841894   3.100133   1.369970   3.386640   0.000000
    11  H    4.359785   4.256259   1.092971   2.429881   2.108606
    12  H    2.334982   2.413589   2.133586   3.763754   1.076968
    13  H    3.600747   4.116854   2.143074   4.276361   1.084224
                   11         12         13
    11  H    0.000000
    12  H    3.033022   0.000000
    13  H    2.459902   1.843449   0.000000
 Symmetry turned off by external request.
 Stoichiometry    C5H8
 Framework group  C1[X(C5H8)]
 Deg. of freedom    33
 Full point group                 C1      NOp   1
 Rotational constants (GHZ):           8.4972827           4.4922933           3.1937431
 Standard basis: def2TZVP (5D, 7F)
 The following finite field(s) will be applied:
 An electric field of              0.0020  0.0016  0.0000
   203 basis functions,   319 primitive gaussians,   228 cartesian basis functions
    19 alpha electrons       19 beta electrons
       nuclear repulsion energy       162.0285214557 Hartrees.
 NAtoms=   13 NActive=   13 NUniq=   13 SFac= 1.00D+00 NAtFMM=   60 NAOKFM=F Big=F
 Integral buffers will be    131072 words long.
 Raffenetti 2 integral format.
 Two-electron integral symmetry is turned off.
 One-electron integrals computed using PRISM.
   1 Symmetry operations used in ECPInt.
 ECPInt:  NShTT=    3828 NPrTT=   11160 LenC2=    3812 LenP2D=    9471.
 LDataN:  DoStor=T MaxTD1= 6 Len=  172
 NBasis=   203 RedAO= T EigKep=  1.52D-04  NBF=   203
 NBsUse=   203 1.00D-06 EigRej= -1.00D+00 NBFU=   203
 The nuclear repulsion energy is now       162.2016775162 hartrees.
 ExpMin= 9.52D-02 ExpMax= 1.36D+04 ExpMxC= 4.63D+02 IAcc=3 IRadAn=         5 AccDes= 0.00D+00
 Harris functional with IExCor=  402 and IRadAn=       5 diagonalized for initial guess.
 HarFok:  IExCor=  402 AccDes= 0.00D+00 IRadAn=         5 IDoV= 1 UseB2=F ITyADJ=14
 ICtDFT=  3500011 ScaDFX=  1.000000  1.000000  1.000000  1.000000
 FoFCou: FMM=F IPFlag=           0 FMFlag=      100000 FMFlg1=           0
         NFxFlg=           0 DoJE=T BraDBF=F KetDBF=T FulRan=T
         wScrn=  0.000000 ICntrl=       500 IOpCl=  0 I1Cent=   200000004 NGrid=           0
         NMat0=    1 NMatS0=      1 NMatT0=    0 NMatD0=    1 NMtDS0=    0 NMtDT0=    0
 Symmetry not used in FoFCou.
 Requested convergence on RMS density matrix=1.00D-08 within 128 cycles.
 Requested convergence on MAX density matrix=1.00D-06.
 Requested convergence on             energy=1.00D-06.
 No special actions if energy rises.
 Integral accuracy reduced to 1.0D-05 until final iterations.
 Initial convergence to 1.0D-05 achieved.  Increase integral accuracy.
 SCF Done:  E(RB3LYP) =  -195.276940022     A.U. after   16 cycles
            NFock= 16  Conv=0.41D-08     -V/T= 2.0056
 DoSCS=F DFT=T ScalE2(SS,OS)=  1.000000  1.000000
 Range of M.O.s used for correlation:     1   203
 NBasis=   203 NAE=    19 NBE=    19 NFC=     0 NFV=     0
 NROrb=    203 NOA=    19 NOB=    19 NVA=   184 NVB=   184

 **** Warning!!: The largest alpha MO coefficient is  0.19864820D+02

   1 Symmetry operations used in ECPInt.
 ECPInt:  NShTT=    3828 NPrTT=   11160 LenC2=    3812 LenP2D=    9471.
 LDataN:  DoStor=T MaxTD1= 7 Len=  274
 Symmetrizing basis deriv contribution to polar:
 IMax=3 JMax=2 DiffMx= 0.00D+00
 G2DrvN: will do    14 centers at a time, making    1 passes.
 Calling FoFCou, ICntrl=  3107 FMM=F I1Cent=   0 AccDes= 0.00D+00.
 End of G2Drv F.D. properties file   721 does not exist.
 End of G2Drv F.D. properties file   722 does not exist.
 End of G2Drv F.D. properties file   788 does not exist.
          IDoAtm=1111111111111
          Differentiating once with respect to nuclear coordinates.
 Keep R1 ints in memory in canonical form, NReq=227048987.
          There are    42 degrees of freedom in the 1st order CPHF.  IDoFFX=6 NUNeed=     0.
     36 vectors produced by pass  0 Test12= 8.32D-15 2.38D-09 XBig12= 1.21D-01 1.39D-01.
 AX will form    36 AO Fock derivatives at one time.
     36 vectors produced by pass  1 Test12= 8.32D-15 2.38D-09 XBig12= 3.34D-02 6.96D-02.
     36 vectors produced by pass  2 Test12= 8.32D-15 2.38D-09 XBig12= 2.80D-04 2.71D-03.
     36 vectors produced by pass  3 Test12= 8.32D-15 2.38D-09 XBig12= 8.20D-07 1.91D-04.
     36 vectors produced by pass  4 Test12= 8.32D-15 2.38D-09 XBig12= 1.17D-09 5.45D-06.
     32 vectors produced by pass  5 Test12= 8.32D-15 2.38D-09 XBig12= 1.61D-12 1.81D-07.
      6 vectors produced by pass  6 Test12= 8.32D-15 2.38D-09 XBig12= 1.99D-15 6.34D-09.
 InvSVY:  IOpt=1 It=  1 EMax= 2.00D-15
 Solved reduced A of dimension   218 with    36 vectors.
 End of Minotr F.D. properties file   721 does not exist.
 End of Minotr F.D. properties file   722 does not exist.
 End of Minotr F.D. properties file   788 does not exist.
   1 Symmetry operations used in ECPInt.
 ECPInt:  NShTT=    3828 NPrTT=   11160 LenC2=    3812 LenP2D=    9471.
 LDataN:  DoStor=T MaxTD1= 8 Len=  415
 Calling FoFJK, ICntrl=    100147 FMM=F ISym2X=0 I1Cent= 0 IOpClX= 0 NMat=1 NMatS=1 NMatT=0.
 -------------------------------------------------------------------
 Center     Atomic                   Forces (Hartrees/Bohr)
 Number     Number              X              Y              Z
 -------------------------------------------------------------------
      1        6           0.000207854    0.000060493   -0.000455226
      2        6           0.000202003   -0.000125931    0.000613710
      3        6          -0.000393690   -0.000179215    0.000355357
      4        1          -0.000088987   -0.000208215    0.000100666
      5        1           0.000041874    0.000244160    0.000118390
      6        1          -0.000035331    0.000065855   -0.000170265
      7        1          -0.000031165   -0.000060215   -0.000022228
      8        6          -0.000585257   -0.000308949   -0.000146139
      9        1           0.000087389    0.000226569   -0.000248626
     10        6           0.000755211    0.000143268   -0.000422326
     11        1          -0.000166176   -0.000119023   -0.000108697
     12        1           0.000008592    0.000044641    0.000086819
     13        1          -0.000002316    0.000216562    0.000298566
 -------------------------------------------------------------------
 Cartesian Forces:  Max     0.000755211 RMS     0.000264373
 -----------------------------------------------------------------------------------------------
                       Internal Coordinate Forces (Hartree/Bohr or radian)
  Cent   Atom   N1       Length/X         N2         Alpha/Y        N3         Beta/Z          J
 -----------------------------------------------------------------------------------------------
      1  C 
      2  C        1   0.000073(     1)
      3  C        1  -0.000485(     2)      2   0.000057(    13)
      4  H        1  -0.000155(     3)      2  -0.000094(    14)      3  -0.000359(    24)     0
      5  H        1  -0.000260(     4)      2  -0.000083(    15)      3   0.000157(    25)     0
      6  H        3   0.000110(     5)      1  -0.000132(    16)      2  -0.000141(    26)     0
      7  H        3   0.000026(     6)      1  -0.000088(    17)      6   0.000091(    27)     0
      8  C        2  -0.000171(     7)      1   0.000564(    18)      3   0.000285(    28)     0
      9  H        2  -0.000317(     8)      1  -0.000236(    19)      8  -0.000156(    29)     0
     10  C        8   0.000847(     9)      2   0.000882(    20)      1  -0.000060(    30)     0
     11  H        8  -0.000055(    10)      2  -0.000460(    21)     10  -0.000061(    31)     0
     12  H       10  -0.000063(    11)      8   0.000092(    22)      2   0.000089(    32)     0
     13  H       10   0.000311(    12)      8  -0.000337(    23)     12   0.000194(    33)     0
 -----------------------------------------------------------------------------------------------
 Internal  Forces:  Max     0.000882012 RMS     0.000309666

 GradGradGradGradGradGradGradGradGradGradGradGradGradGradGradGradGradGrad
 Berny optimization.
 Search for a saddle point.
 Step number   1 out of a maximum of   43
 All quantities printed in internal units (Hartrees-Bohrs-Radians)
 Swapping is turned off.
 Second derivative matrix not updated -- analytic derivatives used.
 ITU=  0
     Eigenvalues ---   -0.15402   0.01548   0.01596   0.02469   0.04164
     Eigenvalues ---    0.05725   0.07668   0.10632   0.11631   0.11750
     Eigenvalues ---    0.13497   0.15376   0.16549   0.19511   0.23178
     Eigenvalues ---    0.24323   0.28210   0.29253   0.30858   0.32384
     Eigenvalues ---    0.32687   0.33453   0.33619   0.35434   0.35863
     Eigenvalues ---    0.36592   0.37149   0.37561   0.39786   0.40624
     Eigenvalues ---    0.47283   0.55745   0.90449
 Eigenvectors required to have negative eigenvalues:
                          D8        D12       A3        A8        D6
   1                    0.67338   0.36440  -0.34080   0.25493   0.24755
                          D9        A10       R8        D11       R10
   1                    0.21784   0.19672   0.15780  -0.12312  -0.11742
 RFO step:  Lambda0=1.045353129D-06 Lambda=-1.22731586D-05.
 Linear search not attempted -- option 19 set.
 Variable       Old X    -DE/DX   Delta X   Delta X   Delta X     New X
                                 (Linear)    (Quad)   (Total)
    R2        2.84492   0.00007   0.00000   0.00053   0.00053   2.84545
    R3        2.75773  -0.00049   0.00000  -0.00172  -0.00172   2.75601
    R4        2.06537  -0.00015   0.00000  -0.00046  -0.00046   2.06491
    R5        2.07105  -0.00026   0.00000  -0.00055  -0.00055   2.07050
    R6        2.03847   0.00011   0.00000   0.00033   0.00033   2.03880
    R7        2.04179   0.00003   0.00000  -0.00001  -0.00001   2.04179
    R8        2.62479  -0.00017   0.00000  -0.00133  -0.00133   2.62346
    R9        2.05419  -0.00032   0.00000  -0.00096  -0.00096   2.05323
   R10        2.58887   0.00085   0.00000   0.00176   0.00176   2.59063
   R11        2.06542  -0.00006   0.00000  -0.00006  -0.00006   2.06535
   R12        2.03517  -0.00006   0.00000  -0.00014  -0.00014   2.03503
   R13        2.04889   0.00031   0.00000   0.00082   0.00082   2.04970
    A3        1.80534   0.00006   0.00000   0.00021   0.00021   1.80556
    A4        1.95910  -0.00009   0.00000  -0.00036  -0.00036   1.95873
    A5        1.88447  -0.00008   0.00000  -0.00152  -0.00152   1.88295
    A6        2.14426  -0.00013   0.00000  -0.00014  -0.00014   2.14412
    A7        2.07763  -0.00009   0.00000  -0.00022  -0.00022   2.07740
    A8        2.15493   0.00056   0.00000   0.00020   0.00020   2.15513
    A9        2.05238  -0.00024   0.00000  -0.00118  -0.00118   2.05120
   A10        2.23171   0.00088   0.00000   0.00191   0.00191   2.23362
   A11        2.00305  -0.00046   0.00000  -0.00254  -0.00254   2.00050
   A12        2.11016   0.00009   0.00000   0.00082   0.00082   2.11098
   A13        2.11593  -0.00034   0.00000  -0.00235  -0.00235   2.11358
    D4       -2.14609  -0.00036   0.00000  -0.00312  -0.00312  -2.14922
    D5        2.06761   0.00016   0.00000  -0.00035  -0.00035   2.06726
    D6       -1.96395  -0.00014   0.00000  -0.00544  -0.00544  -1.96939
    D7        3.11839   0.00009   0.00000   0.00651   0.00651   3.12491
    D8        0.87186   0.00028   0.00000  -0.00003  -0.00003   0.87183
    D9        3.11149  -0.00016   0.00000  -0.00349  -0.00349   3.10800
   D10       -0.53534  -0.00006   0.00000   0.00105   0.00105  -0.53428
   D11        3.10100  -0.00006   0.00000  -0.00036  -0.00036   3.10064
   D12       -0.59926   0.00009   0.00000  -0.00221  -0.00221  -0.60147
   D13       -2.95881   0.00019   0.00000   0.00397   0.00397  -2.95484
         Item               Value     Threshold  Converged?
 Maximum Force            0.000882     0.000450     NO 
 RMS     Force            0.000310     0.000300     NO 
 Maximum Displacement     0.006514     0.001800     NO 
 RMS     Displacement     0.002108     0.001200     NO 
 Predicted change in Energy=-5.613899D-06
 GradGradGradGradGradGradGradGradGradGradGradGradGradGradGradGradGradGrad

 ---------------------------------------------------------------------------------------------------
                            Z-MATRIX (ANGSTROMS AND DEGREES)
   CD    Cent   Atom    N1       Length/X        N2       Alpha/Y        N3        Beta/Z          J
 ---------------------------------------------------------------------------------------------------
      1      1  C 
      2      2  C        1   1.505747(     1)
      3      3  C        1   1.458420(     2)      2  103.451(    13)
      4      4  H        1   1.092705(     3)      2  112.227(    14)      3 -123.141(    24)      0
      5      5  H        1   1.095661(     4)      2  107.885(    15)      3  118.445(    25)      0
      6      6  H        3   1.078886(     5)      1  122.849(    16)      2 -112.838(    26)      0
      7      7  H        3   1.080466(     6)      1  119.026(    17)      6  179.044(    27)      0
      8      8  C        2   1.388276(     7)      1  123.480(    18)      3   49.952(    28)      0
      9      9  H        2   1.086521(     8)      1  117.525(    19)      8  178.075(    29)      0
     10     10  C        8   1.370901(     9)      2  127.977(    20)      1  -30.612(    30)      0
     11     11  H        8   1.092937(    10)      2  114.620(    21)     10  177.654(    31)      0
     12     12  H       10   1.076894(    11)      8  120.950(    22)      2  -34.462(    32)      0
     13     13  H       10   1.084656(    12)      8  121.099(    23)     12 -169.300(    33)      0
 ---------------------------------------------------------------------------------------------------
                         Z-Matrix orientation:                         
 ---------------------------------------------------------------------
 Center     Atomic      Atomic             Coordinates (Angstroms)
 Number     Number       Type             X           Y           Z
 ---------------------------------------------------------------------
      1          6           0        0.000000    0.000000    0.000000
      2          6           0        0.000000    0.000000    1.505747
      3          6           0        1.418416    0.000000   -0.339243
      4          1           0       -0.552994    0.846962   -0.413347
      5          1           0       -0.496661   -0.916832   -0.336483
      6          1           0        1.905753    0.835321   -0.817506
      7          1           0        2.016952   -0.864455   -0.090487
      8          6           0        0.745042    0.886409    2.271580
      9          1           0       -0.644388   -0.716356    2.007868
     10          6           0        1.949111    1.463699    1.961218
     11          1           0        0.279708    1.172876    3.218106
     12          1           0        2.689057    0.928669    1.390321
     13          1           0        2.258181    2.396426    2.420538
 ---------------------------------------------------------------------
                    Distance matrix (angstroms):
                    1          2          3          4          5
     1  C    0.000000
     2  C    1.505747   0.000000
     3  C    1.458420   2.327206   0.000000
     4  H    1.092705   2.169348   2.146927   0.000000
     5  H    1.095661   2.116852   2.123230   1.766367   0.000000
     6  H    2.235614   3.118839   1.078886   2.491770   3.012145
     7  H    2.196261   2.713547   1.080466   3.104482   2.526164
     8  C    2.549683   1.388276   2.838230   2.982498   3.405216
     9  H    2.227092   1.086521   3.205816   2.883505   2.357540
    10  C    3.128550   2.479698   2.777800   3.504205   4.114384
    11  H    3.436580   2.094290   3.914974   3.739929   4.195799
    12  H    3.166456   2.847240   2.338450   3.710902   4.066512
    13  H    4.086715   3.417467   3.750260   4.281874   5.115466
                    6          7          8          9         10
     6  H    0.000000
     7  H    1.852070   0.000000
     8  C    3.300350   3.203535   0.000000
     9  H    4.110190   3.392308   2.137502   0.000000
    10  C    2.849218   3.103932   1.370901   3.388370   0.000000
    11  H    4.363958   4.256233   1.092937   2.426484   2.109799
    12  H    2.344521   2.420705   2.134853   3.768200   1.076894
    13  H    3.611950   4.122715   2.142879   4.276051   1.084656
                   11         12         13
    11  H    0.000000
    12  H    3.034040   0.000000
    13  H    2.459176   1.844265   0.000000
 Symmetry turned off by external request.
 Stoichiometry    C5H8
 Framework group  C1[X(C5H8)]
 Deg. of freedom    33
 Full point group                 C1      NOp   1
 Rotational constants (GHZ):           8.5000428           4.4871303           3.1912640
 Standard basis: def2TZVP (5D, 7F)
 The following finite field(s) will be applied:
 An electric field of              0.0020  0.0016  0.0000
   203 basis functions,   319 primitive gaussians,   228 cartesian basis functions
    19 alpha electrons       19 beta electrons
       nuclear repulsion energy       162.0056469603 Hartrees.
 NAtoms=   13 NActive=   13 NUniq=   13 SFac= 1.00D+00 NAtFMM=   60 NAOKFM=F Big=F
 Integral buffers will be    131072 words long.
 Raffenetti 2 integral format.
 Two-electron integral symmetry is turned off.
 One-electron integrals computed using PRISM.
   1 Symmetry operations used in ECPInt.
 ECPInt:  NShTT=    3828 NPrTT=   11160 LenC2=    3812 LenP2D=    9471.
 LDataN:  DoStor=T MaxTD1= 6 Len=  172
 NBasis=   203 RedAO= T EigKep=  1.52D-04  NBF=   203
 NBsUse=   203 1.00D-06 EigRej= -1.00D+00 NBFU=   203
 The nuclear repulsion energy is now       162.1787512441 hartrees.
 Initial guess from the checkpoint file:  "checkpoint.chk"
 B after Tr=    -0.000484    0.000057    0.000650
         Rot=    1.000000   -0.000091    0.000041   -0.000222 Ang=  -0.03 deg.
 Requested convergence on RMS density matrix=1.00D-08 within 128 cycles.
 Requested convergence on MAX density matrix=1.00D-06.
 Requested convergence on             energy=1.00D-06.
 No special actions if energy rises.
 SCF Done:  E(RB3LYP) =  -195.276945644     A.U. after    9 cycles
            NFock=  9  Conv=0.75D-08     -V/T= 2.0056
   1 Symmetry operations used in ECPInt.
 ECPInt:  NShTT=    3828 NPrTT=   11160 LenC2=    3812 LenP2D=    9471.
 LDataN:  DoStor=T MaxTD1= 7 Len=  274
 Calling FoFJK, ICntrl=      2127 FMM=F ISym2X=0 I1Cent= 0 IOpClX= 0 NMat=1 NMatS=1 NMatT=0.
 -------------------------------------------------------------------
 Center     Atomic                   Forces (Hartrees/Bohr)
 Number     Number              X              Y              Z
 -------------------------------------------------------------------
      1        6          -0.000110887   -0.000081862    0.000000786
      2        6           0.000108561    0.000073710   -0.000000548
      3        6           0.000001904    0.000007336   -0.000001631
      4        1          -0.000000137    0.000000107   -0.000000014
      5        1           0.000000126   -0.000000384    0.000000013
      6        1          -0.000000458    0.000000098   -0.000001035
      7        1          -0.000000241   -0.000000643    0.000000267
      8        6          -0.000001214    0.000000123    0.000000720
      9        1          -0.000000330   -0.000000447   -0.000000038
     10        6           0.000002507    0.000001170   -0.000000235
     11        1           0.000000113    0.000000327    0.000000071
     12        1           0.000000015    0.000000037    0.000001107
     13        1           0.000000040    0.000000427    0.000000537
 -------------------------------------------------------------------
 Cartesian Forces:  Max     0.000110887 RMS     0.000030505
 -----------------------------------------------------------------------------------------------
                       Internal Coordinate Forces (Hartree/Bohr or radian)
  Cent   Atom   N1       Length/X         N2         Alpha/Y        N3         Beta/Z          J
 -----------------------------------------------------------------------------------------------
      1  C 
      2  C        1   0.000002(     1)
      3  C        1   0.000002(     2)      2   0.000007(    13)
      4  H        1   0.000000(     3)      2  -0.000000(    14)      3  -0.000000(    24)     0
      5  H        1   0.000000(     4)      2  -0.000000(    15)      3  -0.000001(    25)     0
      6  H        3   0.000000(     5)      1  -0.000001(    16)      2  -0.000002(    26)     0
      7  H        3   0.000000(     6)      1  -0.000001(    17)      6   0.000000(    27)     0
      8  C        2   0.000003(     7)      1   0.000006(    18)      3   0.000001(    28)     0
      9  H        2   0.000000(     8)      1  -0.000001(    19)      8   0.000000(    29)     0
     10  C        8   0.000003(     9)      2   0.000006(    20)      1  -0.000003(    30)     0
     11  H        8   0.000000(    10)      2   0.000001(    21)     10  -0.000000(    31)     0
     12  H       10  -0.000001(    11)      8   0.000000(    22)      2  -0.000001(    32)     0
     13  H       10   0.000001(    12)      8  -0.000001(    23)     12   0.000000(    33)     0
 -----------------------------------------------------------------------------------------------
 Internal  Forces:  Max     0.000006608 RMS     0.000002256

 GradGradGradGradGradGradGradGradGradGradGradGradGradGradGradGradGradGrad
 Berny optimization.
 Search for a saddle point.
 Step number   2 out of a maximum of   43
 All quantities printed in internal units (Hartrees-Bohrs-Radians)
 Swapping is turned off.
 Update second derivatives using D2CorN and points    1    2
 ITU=  0  0
     Eigenvalues ---   -0.15400   0.01547   0.01595   0.02469   0.04164
     Eigenvalues ---    0.05724   0.07665   0.10627   0.11631   0.11749
     Eigenvalues ---    0.13497   0.15377   0.16549   0.19511   0.23177
     Eigenvalues ---    0.24322   0.28210   0.29252   0.30858   0.32384
     Eigenvalues ---    0.32687   0.33454   0.33619   0.35434   0.35863
     Eigenvalues ---    0.36592   0.37149   0.37561   0.39787   0.40624
     Eigenvalues ---    0.47283   0.55743   0.90444
 Eigenvectors required to have negative eigenvalues:
                          D8        D12       A3        A8        D6
   1                    0.67339   0.36436  -0.34090   0.25489   0.24752
                          D9        A10       R8        D11       R10
   1                    0.21781   0.19667   0.15776  -0.12313  -0.11745
 RFO step:  Lambda0=4.738778814D-12 Lambda= 0.00000000D+00.
 Linear search not attempted -- option 19 set.
 Variable       Old X    -DE/DX   Delta X   Delta X   Delta X     New X
                                 (Linear)    (Quad)   (Total)
    R2        2.84545   0.00000   0.00000  -0.00000  -0.00000   2.84545
    R3        2.75601   0.00000   0.00000   0.00001   0.00001   2.75602
    R4        2.06491   0.00000   0.00000   0.00000   0.00000   2.06491
    R5        2.07050   0.00000   0.00000   0.00000   0.00000   2.07050
    R6        2.03880   0.00000   0.00000   0.00000   0.00000   2.03880
    R7        2.04179   0.00000   0.00000   0.00000   0.00000   2.04179
    R8        2.62346   0.00000   0.00000   0.00000   0.00000   2.62346
    R9        2.05323   0.00000   0.00000   0.00000   0.00000   2.05323
   R10        2.59063   0.00000   0.00000   0.00000   0.00000   2.59063
   R11        2.06535   0.00000   0.00000   0.00000   0.00000   2.06535
   R12        2.03503  -0.00000   0.00000  -0.00000  -0.00000   2.03503
   R13        2.04970   0.00000   0.00000   0.00000   0.00000   2.04970
    A3        1.80556   0.00001   0.00000   0.00001   0.00001   1.80557
    A4        1.95873  -0.00000   0.00000  -0.00000  -0.00000   1.95873
    A5        1.88295  -0.00000   0.00000  -0.00000  -0.00000   1.88294
    A6        2.14412  -0.00000   0.00000  -0.00000  -0.00000   2.14412
    A7        2.07740  -0.00000   0.00000  -0.00001  -0.00001   2.07740
    A8        2.15513   0.00001   0.00000   0.00000   0.00000   2.15513
    A9        2.05120  -0.00000   0.00000  -0.00000  -0.00000   2.05120
   A10        2.23362   0.00001   0.00000   0.00001   0.00001   2.23362
   A11        2.00050   0.00000   0.00000  -0.00000  -0.00000   2.00050
   A12        2.11098   0.00000   0.00000   0.00000   0.00000   2.11098
   A13        2.11358  -0.00000   0.00000  -0.00000  -0.00000   2.11357
    D4       -2.14922  -0.00000   0.00000  -0.00001  -0.00001  -2.14923
    D5        2.06726  -0.00000   0.00000  -0.00000  -0.00000   2.06725
    D6       -1.96939  -0.00000   0.00000  -0.00002  -0.00002  -1.96941
    D7        3.12491   0.00000   0.00000   0.00001   0.00001   3.12492
    D8        0.87183   0.00000   0.00000   0.00000   0.00000   0.87184
    D9        3.10800   0.00000   0.00000  -0.00001  -0.00001   3.10799
   D10       -0.53428  -0.00000   0.00000  -0.00001  -0.00001  -0.53429
   D11        3.10064  -0.00000   0.00000   0.00000   0.00000   3.10064
   D12       -0.60147  -0.00000   0.00000   0.00001   0.00001  -0.60146
   D13       -2.95484   0.00000   0.00000   0.00001   0.00001  -2.95483
         Item               Value     Threshold  Converged?
 Maximum Force            0.000007     0.000450     YES
 RMS     Force            0.000002     0.000300     YES
 Maximum Displacement     0.000022     0.001800     YES
 RMS     Displacement     0.000007     0.001200     YES
 Predicted change in Energy=-1.399353D-10
 Optimization completed.
    -- Stationary point found.
                       ----------------------------
                       !   Optimized Parameters   !
                       ! (Angstroms and Degrees)  !
 ----------------------                            ----------------------
 !      Name          Value   Derivative information (Atomic Units)     !
 ------------------------------------------------------------------------
 !       R2          1.5057   -DE/DX =    0.0                           !
 !       R3          1.4584   -DE/DX =    0.0                           !
 !       R4          1.0927   -DE/DX =    0.0                           !
 !       R5          1.0957   -DE/DX =    0.0                           !
 !       R6          1.0789   -DE/DX =    0.0                           !
 !       R7          1.0805   -DE/DX =    0.0                           !
 !       R8          1.3883   -DE/DX =    0.0                           !
 !       R9          1.0865   -DE/DX =    0.0                           !
 !       R10         1.3709   -DE/DX =    0.0                           !
 !       R11         1.0929   -DE/DX =    0.0                           !
 !       R12         1.0769   -DE/DX =    0.0                           !
 !       R13         1.0847   -DE/DX =    0.0                           !
 !       A3        103.4508   -DE/DX =    0.0                           !
 !       A4        112.2271   -DE/DX =    0.0                           !
 !       A5        107.8848   -DE/DX =    0.0                           !
 !       A6        122.8491   -DE/DX =    0.0                           !
 !       A7        119.0263   -DE/DX =    0.0                           !
 !       A8        123.4798   -DE/DX =    0.0                           !
 !       A9        117.5251   -DE/DX =    0.0                           !
 !       A10       127.9768   -DE/DX =    0.0                           !
 !       A11       114.6204   -DE/DX =    0.0                           !
 !       A12       120.9504   -DE/DX =    0.0                           !
 !       A13       121.099    -DE/DX =    0.0                           !
 !       D4       -123.1411   -DE/DX =    0.0                           !
 !       D5        118.445    -DE/DX =    0.0                           !
 !       D6       -112.8378   -DE/DX =    0.0                           !
 !       D7        179.044    -DE/DX =    0.0                           !
 !       D8         49.9523   -DE/DX =    0.0                           !
 !       D9        178.0751   -DE/DX =    0.0                           !
 !       D10       -30.6123   -DE/DX =    0.0                           !
 !       D11       177.6536   -DE/DX =    0.0                           !
 !       D12       -34.4616   -DE/DX =    0.0                           !
 !       D13      -169.2997   -DE/DX =    0.0                           !
 ------------------------------------------------------------------------
 GradGradGradGradGradGradGradGradGradGradGradGradGradGradGradGradGradGrad

 ---------------------------------------------------------------------------------------------------
                            Z-MATRIX (ANGSTROMS AND DEGREES)
   CD    Cent   Atom    N1       Length/X        N2       Alpha/Y        N3        Beta/Z          J
 ---------------------------------------------------------------------------------------------------
      1      1  C 
      2      2  C        1   1.505747(     1)
      3      3  C        1   1.458420(     2)      2  103.451(    13)
      4      4  H        1   1.092705(     3)      2  112.227(    14)      3 -123.141(    24)      0
      5      5  H        1   1.095661(     4)      2  107.885(    15)      3  118.445(    25)      0
      6      6  H        3   1.078886(     5)      1  122.849(    16)      2 -112.838(    26)      0
      7      7  H        3   1.080466(     6)      1  119.026(    17)      6  179.044(    27)      0
      8      8  C        2   1.388276(     7)      1  123.480(    18)      3   49.952(    28)      0
      9      9  H        2   1.086521(     8)      1  117.525(    19)      8  178.075(    29)      0
     10     10  C        8   1.370901(     9)      2  127.977(    20)      1  -30.612(    30)      0
     11     11  H        8   1.092937(    10)      2  114.620(    21)     10  177.654(    31)      0
     12     12  H       10   1.076894(    11)      8  120.950(    22)      2  -34.462(    32)      0
     13     13  H       10   1.084656(    12)      8  121.099(    23)     12 -169.300(    33)      0
 ---------------------------------------------------------------------------------------------------
                         Z-Matrix orientation:                         
 ---------------------------------------------------------------------
 Center     Atomic      Atomic             Coordinates (Angstroms)
 Number     Number       Type             X           Y           Z
 ---------------------------------------------------------------------
      1          6           0        0.000000    0.000000    0.000000
      2          6           0        0.000000    0.000000    1.505747
      3          6           0        1.418416    0.000000   -0.339243
      4          1           0       -0.552994    0.846962   -0.413347
      5          1           0       -0.496661   -0.916832   -0.336483
      6          1           0        1.905753    0.835321   -0.817506
      7          1           0        2.016952   -0.864455   -0.090487
      8          6           0        0.745042    0.886409    2.271580
      9          1           0       -0.644388   -0.716356    2.007868
     10          6           0        1.949111    1.463699    1.961218
     11          1           0        0.279708    1.172876    3.218106
     12          1           0        2.689057    0.928669    1.390321
     13          1           0        2.258181    2.396426    2.420538
 ---------------------------------------------------------------------
                    Distance matrix (angstroms):
                    1          2          3          4          5
     1  C    0.000000
     2  C    1.505747   0.000000
     3  C    1.458420   2.327206   0.000000
     4  H    1.092705   2.169348   2.146927   0.000000
     5  H    1.095661   2.116852   2.123230   1.766367   0.000000
     6  H    2.235614   3.118839   1.078886   2.491770   3.012145
     7  H    2.196261   2.713547   1.080466   3.104482   2.526164
     8  C    2.549683   1.388276   2.838230   2.982498   3.405216
     9  H    2.227092   1.086521   3.205816   2.883505   2.357540
    10  C    3.128550   2.479698   2.777800   3.504205   4.114384
    11  H    3.436580   2.094290   3.914974   3.739929   4.195799
    12  H    3.166456   2.847240   2.338450   3.710902   4.066512
    13  H    4.086715   3.417467   3.750260   4.281874   5.115466
                    6          7          8          9         10
     6  H    0.000000
     7  H    1.852070   0.000000
     8  C    3.300350   3.203535   0.000000
     9  H    4.110190   3.392308   2.137502   0.000000
    10  C    2.849218   3.103932   1.370901   3.388370   0.000000
    11  H    4.363958   4.256233   1.092937   2.426484   2.109799
    12  H    2.344521   2.420705   2.134853   3.768200   1.076894
    13  H    3.611950   4.122715   2.142879   4.276051   1.084656
                   11         12         13
    11  H    0.000000
    12  H    3.034040   0.000000
    13  H    2.459176   1.844265   0.000000
 Symmetry turned off by external request.
 Stoichiometry    C5H8
 Framework group  C1[X(C5H8)]
 Deg. of freedom    33
 Full point group                 C1      NOp   1
 Rotational constants (GHZ):           8.5000428           4.4871303           3.1912640
 1\1\GINC-BHC0034\FTS\RB3LYP\def2TZVP\C5H8\DHANAWAY\10-Jun-2022\1\\# Op
 t=(TS, CalcFC, noeigentest, Z-matrix, MaxStep=10) Field=read NoSymm B3
 LYP/Def2TZVP freq=noraman pop=none\\ts_zmat_initalOpt\\0,1\C\C,1,R2\C,
 1,R3,2,A3\H,1,R4,2,A4,3,D4,0\H,1,R5,2,A5,3,D5,0\H,3,R6,1,A6,2,D6,0\H,3
 ,R7,1,A7,6,D7,0\C,2,R8,1,A8,3,D8,0\H,2,R9,1,A9,8,D9,0\C,8,R10,2,A10,1,
 D10,0\H,8,R11,2,A11,10,D11,0\H,10,R12,8,A12,2,D12,0\H,10,R13,8,A13,12,
 D13,0\\R2=1.5057467\R3=1.45841998\R4=1.09270499\R5=1.09566121\R6=1.078
 88586\R7=1.08046633\R8=1.38827563\R9=1.08652109\R10=1.37090076\R11=1.0
 9293699\R12=1.07689395\R13=1.08465631\A3=103.45077303\A4=112.22712749\
 A5=107.88483054\A6=122.84911294\A7=119.02634574\A8=123.47984167\A9=117
 .52508845\A10=127.97676696\A11=114.62044597\A12=120.95043345\A13=121.0
 9900205\D4=-123.14112217\D5=118.44502649\D6=-112.837784\D7=179.0439917
 8\D8=49.95234082\D9=178.07513672\D10=-30.6122646\D11=177.65361229\D12=
 -34.46160552\D13=-169.29973088\\Version=ES64L-G16RevA.03\HF=-195.27694
 56\RMSD=7.505e-09\RMSF=3.050e-05\Dipole=-0.3329179,-0.254035,-0.127115
 2\PG=C01 [X(C5H8)]\\@


 Make no judgements where you have no compassion.
                               -- Anne McCaffrey
 Job cpu time:       0 days  0 hours 32 minutes 27.7 seconds.
 Elapsed time:       0 days  0 hours  2 minutes 43.1 seconds.
 File lengths (MBytes):  RWF=     47 Int=      0 D2E=      0 Chk=     32 Scr=      1
 Normal termination of Gaussian 16 at Fri Jun 10 02:47:08 2022.
 Link1:  Proceeding to internal job step number  2.
 --------------------------------------------------------------------
 #N Geom=AllCheck Guess=TCheck SCRF=Check GenChk RB3LYP/def2TZVP Freq
 --------------------------------------------------------------------
 1/5=1,8=10,10=4,11=1,29=7,30=1,38=1,40=1/1,3;
 2/12=2,15=1,40=1/2;
 3/5=44,7=101,11=2,14=-4,25=1,30=1,70=2,71=2,74=-5,116=1,140=1/1,2,3;
 4/5=101/1;
 5/5=2,38=6,98=1/2;
 8/6=4,10=90,11=11/1;
 11/6=1,8=1,9=11,15=111,16=1,31=1/1,2,10;
 10/6=1,31=1/2;
 7/8=1,10=1,25=1,30=1/1,2,3,16;
 1/5=1,8=10,10=4,11=1,30=1/3;
 99//99;
 Structure from the checkpoint file:  "checkpoint.chk"
 -----------------
 ts_zmat_initalOpt
 -----------------
 Charge =  0 Multiplicity = 1
 Z-Matrix found in chk file.
 C
 C,1,R2
 C,1,R3,2,A3
 H,1,R4,2,A4,3,D4,0
 H,1,R5,2,A5,3,D5,0
 H,3,R6,1,A6,2,D6,0
 H,3,R7,1,A7,6,D7,0
 C,2,R8,1,A8,3,D8,0
 H,2,R9,1,A9,8,D9,0
 C,8,R10,2,A10,1,D10,0
 H,8,R11,2,A11,10,D11,0
 H,10,R12,8,A12,2,D12,0
 H,10,R13,8,A13,12,D13,0
      Variables:
 R2=1.5057467
 R3=1.45841998
 R4=1.09270499
 R5=1.09566121
 R6=1.07888586
 R7=1.08046633
 R8=1.38827563
 R9=1.08652109
 R10=1.37090076
 R11=1.09293699
 R12=1.07689395
 R13=1.08465631
 A3=103.45077303
 A4=112.22712749
 A5=107.88483054
 A6=122.84911294
 A7=119.02634574
 A8=123.47984167
 A9=117.52508845
 A10=127.97676696
 A11=114.62044597
 A12=120.95043345
 A13=121.09900205
 D4=-123.14112217
 D5=118.44502649
 D6=-112.837784
 D7=179.04399178
 D8=49.95234082
 D9=178.07513672
 D10=-30.6122646
 D11=177.65361229
 D12=-34.46160552
 D13=-169.29973088
 Recover connectivity data from disk.

 GradGradGradGradGradGradGradGradGradGradGradGradGradGradGradGradGradGrad
 Berny optimization.
 Initialization pass.
                       ----------------------------
                       !    Initial Parameters    !
                       ! (Angstroms and Degrees)  !
 ----------------------                            ----------------------
 !      Name          Value   Derivative information (Atomic Units)     !
 ------------------------------------------------------------------------
 !       R2          1.5057   calculate D2E/DX2 analytically            !
 !       R3          1.4584   calculate D2E/DX2 analytically            !
 !       R4          1.0927   calculate D2E/DX2 analytically            !
 !       R5          1.0957   calculate D2E/DX2 analytically            !
 !       R6          1.0789   calculate D2E/DX2 analytically            !
 !       R7          1.0805   calculate D2E/DX2 analytically            !
 !       R8          1.3883   calculate D2E/DX2 analytically            !
 !       R9          1.0865   calculate D2E/DX2 analytically            !
 !       R10         1.3709   calculate D2E/DX2 analytically            !
 !       R11         1.0929   calculate D2E/DX2 analytically            !
 !       R12         1.0769   calculate D2E/DX2 analytically            !
 !       R13         1.0847   calculate D2E/DX2 analytically            !
 !       A3        103.4508   calculate D2E/DX2 analytically            !
 !       A4        112.2271   calculate D2E/DX2 analytically            !
 !       A5        107.8848   calculate D2E/DX2 analytically            !
 !       A6        122.8491   calculate D2E/DX2 analytically            !
 !       A7        119.0263   calculate D2E/DX2 analytically            !
 !       A8        123.4798   calculate D2E/DX2 analytically            !
 !       A9        117.5251   calculate D2E/DX2 analytically            !
 !       A10       127.9768   calculate D2E/DX2 analytically            !
 !       A11       114.6204   calculate D2E/DX2 analytically            !
 !       A12       120.9504   calculate D2E/DX2 analytically            !
 !       A13       121.099    calculate D2E/DX2 analytically            !
 !       D4       -123.1411   calculate D2E/DX2 analytically            !
 !       D5        118.445    calculate D2E/DX2 analytically            !
 !       D6       -112.8378   calculate D2E/DX2 analytically            !
 !       D7        179.044    calculate D2E/DX2 analytically            !
 !       D8         49.9523   calculate D2E/DX2 analytically            !
 !       D9        178.0751   calculate D2E/DX2 analytically            !
 !       D10       -30.6123   calculate D2E/DX2 analytically            !
 !       D11       177.6536   calculate D2E/DX2 analytically            !
 !       D12       -34.4616   calculate D2E/DX2 analytically            !
 !       D13      -169.2997   calculate D2E/DX2 analytically            !
 ------------------------------------------------------------------------
 Trust Radius=1.00D-01 FncErr=1.00D-07 GrdErr=1.00D-07 EigMax=2.50D+02 EigMin=1.00D-04
 Number of steps in this run=      2 maximum allowed number of steps=      2.
 Search for a saddle point of order  1.
 GradGradGradGradGradGradGradGradGradGradGradGradGradGradGradGradGradGrad

                          Input orientation:                          
 ---------------------------------------------------------------------
 Center     Atomic      Atomic             Coordinates (Angstroms)
 Number     Number       Type             X           Y           Z
 ---------------------------------------------------------------------
      1          6           0        0.000000    0.000000    0.000000
      2          6           0        0.000000    0.000000    1.505747
      3          6           0        1.418416    0.000000   -0.339243
      4          1           0       -0.552994    0.846962   -0.413347
      5          1           0       -0.496661   -0.916832   -0.336483
      6          1           0        1.905753    0.835321   -0.817506
      7          1           0        2.016952   -0.864455   -0.090487
      8          6           0        0.745042    0.886409    2.271580
      9          1           0       -0.644388   -0.716356    2.007868
     10          6           0        1.949111    1.463699    1.961218
     11          1           0        0.279708    1.172876    3.218106
     12          1           0        2.689057    0.928669    1.390321
     13          1           0        2.258181    2.396426    2.420538
 ---------------------------------------------------------------------
                    Distance matrix (angstroms):
                    1          2          3          4          5
     1  C    0.000000
     2  C    1.505747   0.000000
     3  C    1.458420   2.327206   0.000000
     4  H    1.092705   2.169348   2.146927   0.000000
     5  H    1.095661   2.116852   2.123230   1.766367   0.000000
     6  H    2.235614   3.118839   1.078886   2.491770   3.012145
     7  H    2.196261   2.713547   1.080466   3.104482   2.526164
     8  C    2.549683   1.388276   2.838230   2.982498   3.405216
     9  H    2.227092   1.086521   3.205816   2.883505   2.357540
    10  C    3.128550   2.479698   2.777800   3.504205   4.114384
    11  H    3.436580   2.094290   3.914974   3.739929   4.195799
    12  H    3.166456   2.847240   2.338450   3.710902   4.066512
    13  H    4.086715   3.417467   3.750260   4.281874   5.115466
                    6          7          8          9         10
     6  H    0.000000
     7  H    1.852070   0.000000
     8  C    3.300350   3.203535   0.000000
     9  H    4.110190   3.392308   2.137502   0.000000
    10  C    2.849218   3.103932   1.370901   3.388370   0.000000
    11  H    4.363958   4.256233   1.092937   2.426484   2.109799
    12  H    2.344521   2.420705   2.134853   3.768200   1.076894
    13  H    3.611950   4.122715   2.142879   4.276051   1.084656
                   11         12         13
    11  H    0.000000
    12  H    3.034040   0.000000
    13  H    2.459176   1.844265   0.000000
 Symmetry turned off by external request.
 Stoichiometry    C5H8
 Framework group  C1[X(C5H8)]
 Deg. of freedom    33
 Full point group                 C1      NOp   1
 Rotational constants (GHZ):           8.5000428           4.4871303           3.1912640
 Standard basis: def2TZVP (5D, 7F)
 The following finite field(s) will be applied:
 An electric field of              0.0020  0.0016  0.0000
   203 basis functions,   319 primitive gaussians,   228 cartesian basis functions
    19 alpha electrons       19 beta electrons
       nuclear repulsion energy       162.0056469603 Hartrees.
 NAtoms=   13 NActive=   13 NUniq=   13 SFac= 1.00D+00 NAtFMM=   60 NAOKFM=F Big=F
 Integral buffers will be    131072 words long.
 Raffenetti 2 integral format.
 Two-electron integral symmetry is turned off.
 One-electron integrals computed using PRISM.
   1 Symmetry operations used in ECPInt.
 ECPInt:  NShTT=    3828 NPrTT=   11160 LenC2=    3812 LenP2D=    9471.
 LDataN:  DoStor=T MaxTD1= 6 Len=  172
 NBasis=   203 RedAO= T EigKep=  1.52D-04  NBF=   203
 NBsUse=   203 1.00D-06 EigRej= -1.00D+00 NBFU=   203
 The nuclear repulsion energy is now       162.1787512441 hartrees.
 Initial guess from the checkpoint file:  "checkpoint.chk"
 B after Tr=     0.000000    0.000000    0.000000
         Rot=    1.000000    0.000000    0.000000    0.000000 Ang=   0.00 deg.
 Requested convergence on RMS density matrix=1.00D-08 within 128 cycles.
 Requested convergence on MAX density matrix=1.00D-06.
 Requested convergence on             energy=1.00D-06.
 No special actions if energy rises.
 SCF Done:  E(RB3LYP) =  -195.276945644     A.U. after    1 cycles
            NFock=  1  Conv=0.29D-08     -V/T= 2.0056
 DoSCS=F DFT=T ScalE2(SS,OS)=  1.000000  1.000000
 Range of M.O.s used for correlation:     1   203
 NBasis=   203 NAE=    19 NBE=    19 NFC=     0 NFV=     0
 NROrb=    203 NOA=    19 NOB=    19 NVA=   184 NVB=   184

 **** Warning!!: The largest alpha MO coefficient is  0.19996077D+02

   1 Symmetry operations used in ECPInt.
 ECPInt:  NShTT=    3828 NPrTT=   11160 LenC2=    3812 LenP2D=    9471.
 LDataN:  DoStor=T MaxTD1= 7 Len=  274
 Symmetrizing basis deriv contribution to polar:
 IMax=3 JMax=2 DiffMx= 0.00D+00
 G2DrvN: will do    14 centers at a time, making    1 passes.
 Calling FoFCou, ICntrl=  3107 FMM=F I1Cent=   0 AccDes= 0.00D+00.
 End of G2Drv F.D. properties file   721 does not exist.
 End of G2Drv F.D. properties file   722 does not exist.
 End of G2Drv F.D. properties file   788 does not exist.
          IDoAtm=1111111111111
          Differentiating once with respect to electric field.
                with respect to dipole field.
          Differentiating once with respect to nuclear coordinates.
 Keep R1 ints in memory in canonical form, NReq=227048987.
          There are    42 degrees of freedom in the 1st order CPHF.  IDoFFX=6 NUNeed=     3.
     39 vectors produced by pass  0 Test12= 8.32D-15 2.38D-09 XBig12= 1.42D+02 7.33D+00.
 AX will form    39 AO Fock derivatives at one time.
     39 vectors produced by pass  1 Test12= 8.32D-15 2.38D-09 XBig12= 1.95D+01 1.07D+00.
     39 vectors produced by pass  2 Test12= 8.32D-15 2.38D-09 XBig12= 2.72D-01 6.91D-02.
     39 vectors produced by pass  3 Test12= 8.32D-15 2.38D-09 XBig12= 8.51D-04 4.29D-03.
     39 vectors produced by pass  4 Test12= 8.32D-15 2.38D-09 XBig12= 1.31D-06 1.67D-04.
     28 vectors produced by pass  5 Test12= 8.32D-15 2.38D-09 XBig12= 1.20D-09 4.05D-06.
      5 vectors produced by pass  6 Test12= 8.32D-15 2.38D-09 XBig12= 1.21D-12 1.25D-07.
      3 vectors produced by pass  7 Test12= 8.32D-15 2.38D-09 XBig12= 1.31D-15 4.50D-09.
 InvSVY:  IOpt=1 It=  1 EMax= 1.42D-14
 Solved reduced A of dimension   231 with    42 vectors.
 Isotropic polarizability for W=    0.000000       74.70 Bohr**3.
 End of Minotr F.D. properties file   721 does not exist.
 End of Minotr F.D. properties file   722 does not exist.
 End of Minotr F.D. properties file   788 does not exist.
   1 Symmetry operations used in ECPInt.
 ECPInt:  NShTT=    3828 NPrTT=   11160 LenC2=    3812 LenP2D=    9471.
 LDataN:  DoStor=T MaxTD1= 8 Len=  415
 Calling FoFJK, ICntrl=    100127 FMM=F ISym2X=0 I1Cent= 0 IOpClX= 0 NMat=1 NMatS=1 NMatT=0.
 Full mass-weighted force constant matrix:
 Low frequencies --- -420.3487   -0.0005    0.0003    0.0005    1.0537    7.6824
 Low frequencies ---   10.0224  220.8869  258.9121
 ******    1 imaginary frequencies (negative Signs) ****** 
 Diagonal vibrational polarizability:
        2.6826812       4.0170277       5.4774366
 Harmonic frequencies (cm**-1), IR intensities (KM/Mole), Raman scattering
 activities (A**4/AMU), depolarization ratios for plane and unpolarized
 incident light, reduced masses (AMU), force constants (mDyne/A),
 and normal coordinates:
                      1                      2                      3
                      A                      A                      A
 Frequencies --   -420.3486               220.8868               258.9109
 Red. masses --      1.9572                 2.1980                 2.3149
 Frc consts  --      0.2038                 0.0632                 0.0914
 IR Inten    --      0.0666                 0.5872                 1.4935
  Atom  AN      X      Y      Z        X      Y      Z        X      Y      Z
     1   6    -0.09   0.03  -0.07    -0.02  -0.17  -0.03    -0.07  -0.04  -0.02
     2   6     0.12  -0.04  -0.07    -0.03   0.10  -0.02     0.05  -0.07  -0.02
     3   6    -0.07  -0.13   0.00    -0.04   0.05  -0.12    -0.02   0.15   0.20
     4   1     0.03   0.12  -0.03    -0.27  -0.42  -0.21    -0.16  -0.10  -0.02
     5   1    -0.19   0.09  -0.05     0.20  -0.37   0.21     0.09  -0.11  -0.04
     6   1     0.10   0.01   0.42    -0.21   0.14  -0.14    -0.00   0.30   0.49
     7   1    -0.18  -0.24  -0.12     0.14   0.19  -0.08    -0.03   0.07  -0.05
     8   6     0.03   0.07  -0.01     0.00   0.08  -0.01    -0.04   0.09  -0.09
     9   1     0.42  -0.30  -0.05    -0.03   0.14   0.05     0.22  -0.19   0.02
    10   6     0.00   0.08   0.13     0.09  -0.04   0.18     0.05  -0.12  -0.08
    11   1    -0.08   0.06  -0.06    -0.05   0.10  -0.05    -0.12   0.30  -0.20
    12   1    -0.12   0.27  -0.21     0.02   0.00   0.03     0.08  -0.37   0.21
    13   1     0.06  -0.06   0.36     0.19  -0.16   0.36     0.15  -0.08  -0.20
                      4                      5                      6
                      A                      A                      A
 Frequencies --    373.5390               544.8637               583.1898
 Red. masses --      2.2709                 1.2786                 1.3118
 Frc consts  --      0.1867                 0.2236                 0.2629
 IR Inten    --      6.6162                 7.0383                 4.2558
  Atom  AN      X      Y      Z        X      Y      Z        X      Y      Z
     1   6    -0.06  -0.03  -0.09    -0.03  -0.00  -0.01    -0.02  -0.01   0.04
     2   6    -0.09   0.10  -0.08     0.01  -0.03  -0.01     0.00  -0.08  -0.02
     3   6    -0.02   0.03   0.19    -0.03  -0.01   0.01    -0.02   0.01   0.01
     4   1    -0.11  -0.17  -0.29    -0.08  -0.00   0.05     0.15   0.18   0.19
     5   1     0.09  -0.17   0.05    -0.02  -0.01  -0.01    -0.22   0.17  -0.15
     6   1     0.03   0.01   0.22     0.00  -0.02   0.03    -0.15  -0.11  -0.34
     7   1    -0.02   0.10   0.43    -0.14  -0.17  -0.29     0.16   0.32   0.63
     8   6     0.12  -0.14  -0.02     0.04  -0.06  -0.06    -0.00   0.02  -0.12
     9   1    -0.03   0.06  -0.06    -0.25   0.21   0.00     0.01  -0.03   0.05
    10   6     0.03   0.07  -0.04     0.05   0.07   0.06     0.05   0.00   0.04
    11   1     0.29  -0.40   0.14    -0.09   0.03  -0.14    -0.04   0.09  -0.16
    12   1     0.08   0.34  -0.23     0.43   0.02   0.59     0.13   0.11   0.05
    13   1    -0.06   0.00   0.16    -0.32   0.26  -0.06    -0.03  -0.05   0.20
                      7                      8                      9
                      A                      A                      A
 Frequencies --    649.9538               705.8901               760.8142
 Red. masses --      1.4343                 1.4035                 1.2552
 Frc consts  --      0.3570                 0.4120                 0.4281
 IR Inten    --     20.1454                32.1155                47.6356
  Atom  AN      X      Y      Z        X      Y      Z        X      Y      Z
     1   6     0.03  -0.02   0.07    -0.03  -0.04  -0.05    -0.02   0.05   0.02
     2   6    -0.12  -0.03   0.05     0.04   0.06  -0.00     0.08  -0.02  -0.04
     3   6     0.04  -0.02  -0.08    -0.02  -0.05  -0.10    -0.02  -0.01  -0.05
     4   1     0.14   0.08   0.13     0.13   0.06  -0.05    -0.20  -0.11  -0.07
     5   1    -0.06   0.08  -0.06    -0.23   0.04   0.03     0.13  -0.09   0.14
     6   1     0.06   0.40   0.68    -0.02   0.21   0.34     0.17   0.03   0.20
     7   1     0.18   0.07  -0.09     0.19   0.24   0.40    -0.07   0.10   0.43
     8   6     0.02  -0.02  -0.08    -0.01  -0.01   0.10     0.02  -0.03   0.05
     9   1    -0.23   0.11   0.10     0.18  -0.09  -0.03    -0.24   0.20  -0.13
    10   6     0.01   0.00  -0.03    -0.02   0.03  -0.05     0.01  -0.05   0.05
    11   1     0.05   0.13  -0.11     0.01  -0.12   0.14    -0.23   0.24  -0.16
    12   1     0.03   0.21  -0.20     0.17  -0.30   0.51    -0.12   0.10  -0.26
    13   1    -0.04  -0.08   0.18     0.06   0.02  -0.09    -0.19   0.24  -0.41
                     10                     11                     12
                      A                      A                      A
 Frequencies --    776.0867               828.1572               898.9937
 Red. masses --      1.3645                 1.5015                 1.4703
 Frc consts  --      0.4842                 0.6068                 0.7001
 IR Inten    --     30.5054                 7.4585                 3.8015
  Atom  AN      X      Y      Z        X      Y      Z        X      Y      Z
     1   6     0.01   0.08   0.08    -0.02  -0.06   0.03     0.01  -0.01  -0.05
     2   6     0.05  -0.03  -0.01     0.15   0.01  -0.09    -0.01   0.00   0.01
     3   6    -0.01  -0.00  -0.05    -0.01  -0.01   0.07    -0.01   0.01   0.03
     4   1    -0.29  -0.16  -0.00     0.15   0.10   0.12     0.06   0.02  -0.09
     5   1     0.29  -0.12   0.20    -0.23   0.07   0.01    -0.02   0.00  -0.04
     6   1     0.30  -0.11   0.08    -0.28   0.13   0.04    -0.13  -0.02  -0.14
     7   1    -0.24  -0.08   0.25     0.17   0.05  -0.19     0.05   0.03  -0.06
     8   6    -0.03   0.00  -0.05    -0.03   0.00   0.01     0.10  -0.07   0.12
     9   1    -0.11   0.10  -0.04    -0.46   0.55  -0.12    -0.06  -0.02  -0.07
    10   6    -0.06   0.03  -0.08    -0.04   0.01  -0.02    -0.06   0.02  -0.08
    11   1     0.05  -0.11   0.01    -0.05  -0.22   0.06    -0.33   0.70  -0.33
    12   1     0.08  -0.10   0.23    -0.16  -0.06  -0.10     0.05   0.04   0.05
    13   1     0.18  -0.33   0.49     0.18  -0.13   0.12     0.07  -0.23   0.35
                     13                     14                     15
                      A                      A                      A
 Frequencies --    930.2157              1030.6003              1063.2768
 Red. masses --      1.8798                 1.5596                 1.6673
 Frc consts  --      0.9584                 0.9760                 1.1106
 IR Inten    --      2.7803                 0.0904                13.9606
  Atom  AN      X      Y      Z        X      Y      Z        X      Y      Z
     1   6     0.05   0.06   0.15     0.04   0.04   0.07    -0.05  -0.12   0.06
     2   6     0.03   0.13  -0.09    -0.08  -0.03  -0.05     0.00   0.12  -0.07
     3   6    -0.02  -0.05   0.02    -0.03  -0.03   0.01     0.07   0.08  -0.03
     4   1     0.07  -0.04  -0.08     0.03  -0.02  -0.05    -0.15   0.05   0.51
     5   1    -0.05  -0.02   0.53     0.11  -0.01   0.10    -0.21   0.07  -0.19
     6   1    -0.30   0.10  -0.01    -0.15   0.05   0.03     0.45  -0.13  -0.00
     7   1     0.21   0.06  -0.17     0.08   0.04  -0.02    -0.25  -0.14   0.04
     8   6    -0.00  -0.05  -0.07     0.04  -0.07  -0.04     0.04  -0.07  -0.01
     9   1     0.40  -0.21  -0.12     0.02  -0.15  -0.09     0.28   0.09   0.25
    10   6    -0.06  -0.09  -0.01     0.03   0.13   0.05    -0.04  -0.00   0.01
    11   1    -0.09   0.00  -0.14    -0.33  -0.15  -0.20    -0.25  -0.03  -0.17
    12   1     0.12   0.10   0.05    -0.33  -0.38   0.05    -0.14  -0.09  -0.03
    13   1    -0.41   0.00   0.03     0.60   0.08  -0.25     0.02  -0.01  -0.03
                     16                     17                     18
                      A                      A                      A
 Frequencies --   1128.5450              1153.7014              1220.9722
 Red. masses --      2.2373                 1.9122                 1.2446
 Frc consts  --      1.6788                 1.4996                 1.0932
 IR Inten    --     15.8492                 0.0812                 5.0185
  Atom  AN      X      Y      Z        X      Y      Z        X      Y      Z
     1   6    -0.20   0.09  -0.05     0.09   0.02  -0.11     0.07  -0.05  -0.07
     2   6     0.01  -0.04   0.07     0.07   0.04   0.14    -0.01  -0.02   0.05
     3   6     0.21  -0.03  -0.00    -0.10   0.01   0.00    -0.02   0.07  -0.00
     4   1    -0.28  -0.07  -0.28     0.26   0.06  -0.22     0.17   0.09   0.07
     5   1    -0.33  -0.01   0.41     0.13  -0.03  -0.04    -0.48  -0.03   0.71
     6   1     0.10  -0.02  -0.14    -0.10   0.03   0.06     0.18  -0.05   0.01
     7   1     0.47   0.10  -0.13    -0.14   0.01   0.11    -0.25  -0.08   0.04
     8   6     0.03  -0.02  -0.05     0.05  -0.04  -0.10    -0.01  -0.00  -0.02
     9   1     0.01   0.13   0.32     0.15   0.32   0.65    -0.14  -0.10  -0.22
    10   6    -0.04   0.01   0.02    -0.09  -0.03   0.04     0.02   0.01   0.00
    11   1     0.01   0.01  -0.07    -0.16  -0.15  -0.18    -0.02   0.00  -0.03
    12   1    -0.15  -0.13   0.02    -0.24  -0.18  -0.01    -0.02   0.02  -0.05
    13   1     0.03  -0.01   0.01    -0.12  -0.03   0.01     0.06  -0.01   0.01
                     19                     20                     21
                      A                      A                      A
 Frequencies --   1266.3025              1306.2670              1400.4822
 Red. masses --      1.2629                 1.3045                 1.3590
 Frc consts  --      1.1931                 1.3115                 1.5705
 IR Inten    --     17.0187                 6.4969                 3.3089
  Atom  AN      X      Y      Z        X      Y      Z        X      Y      Z
     1   6     0.00  -0.02   0.02     0.07   0.04  -0.12     0.05   0.02   0.01
     2   6     0.00   0.00  -0.03    -0.01   0.02   0.01    -0.03  -0.06  -0.13
     3   6    -0.01   0.01  -0.00    -0.00  -0.07   0.03     0.00   0.01  -0.00
     4   1     0.05  -0.00  -0.01    -0.58   0.01   0.71     0.01  -0.04  -0.07
     5   1    -0.01   0.01  -0.05     0.03  -0.02   0.11    -0.11   0.03   0.19
     6   1     0.02  -0.01   0.00    -0.27   0.09   0.03    -0.12   0.07   0.00
     7   1    -0.05  -0.00   0.02     0.15   0.04   0.04    -0.16  -0.08   0.05
     8   6     0.07  -0.02  -0.05     0.00  -0.00  -0.01    -0.07  -0.03   0.05
     9   1    -0.06  -0.02  -0.16     0.00   0.00   0.02     0.19   0.26   0.62
    10   6    -0.09   0.01   0.07    -0.01  -0.00   0.01    -0.00   0.01   0.01
    11   1     0.72   0.44   0.13     0.07   0.04   0.01     0.24   0.25   0.11
    12   1    -0.30  -0.31   0.11    -0.03  -0.02  -0.00     0.22   0.25   0.04
    13   1    -0.07   0.04  -0.04     0.01  -0.00  -0.01     0.32   0.00  -0.16
                     22                     23                     24
                      A                      A                      A
 Frequencies --   1423.3578              1481.4266              1497.2416
 Red. masses --      1.1093                 1.2524                 1.4642
 Frc consts  --      1.3242                 1.6194                 1.9339
 IR Inten    --     11.3536                 6.4459                 2.0813
  Atom  AN      X      Y      Z        X      Y      Z        X      Y      Z
     1   6    -0.09  -0.00  -0.03     0.03  -0.00  -0.01    -0.05  -0.01  -0.00
     2   6    -0.00   0.01  -0.01     0.03   0.03   0.04     0.05   0.07   0.10
     3   6    -0.00  -0.00  -0.00    -0.10  -0.00   0.02     0.09  -0.00  -0.02
     4   1     0.39   0.45   0.31    -0.10  -0.10  -0.04     0.02   0.01  -0.04
     5   1     0.50  -0.40   0.24    -0.09   0.10  -0.10     0.06  -0.01  -0.13
     6   1     0.11  -0.07  -0.01     0.46  -0.30   0.05    -0.37   0.24  -0.05
     7   1     0.13   0.07  -0.05     0.43   0.28  -0.22    -0.33  -0.23   0.17
     8   6    -0.02  -0.02   0.00    -0.03  -0.04  -0.04    -0.02  -0.05  -0.06
     9   1     0.02   0.02   0.03     0.00  -0.01  -0.08    -0.03  -0.11  -0.28
    10   6    -0.00   0.00   0.00    -0.05  -0.02   0.02    -0.07  -0.02   0.03
    11   1     0.05   0.06   0.01     0.08   0.08  -0.03     0.04   0.05  -0.07
    12   1     0.04   0.06   0.00     0.20   0.29   0.05     0.23   0.35   0.06
    13   1     0.08  -0.00  -0.04     0.37  -0.04  -0.19     0.45  -0.06  -0.24
                     25                     26                     27
                      A                      A                      A
 Frequencies --   1591.6667              3010.8374              3056.7925
 Red. masses --      4.0768                 1.0584                 1.1001
 Frc consts  --      6.0851                 5.6529                 6.0566
 IR Inten    --     17.7879                18.4167                11.9805
  Atom  AN      X      Y      Z        X      Y      Z        X      Y      Z
     1   6     0.01  -0.01   0.01    -0.05  -0.02  -0.04     0.02  -0.09   0.01
     2   6    -0.11  -0.11  -0.09     0.00   0.00  -0.00     0.00   0.00  -0.00
     3   6     0.00   0.01  -0.00     0.00   0.00  -0.00    -0.00   0.00  -0.00
     4   1     0.03   0.05   0.09     0.26  -0.44   0.20    -0.41   0.63  -0.31
     5   1    -0.01  -0.04   0.12     0.37   0.70   0.25     0.24   0.43   0.16
     6   1     0.02  -0.01  -0.04    -0.00  -0.01  -0.00    -0.01  -0.02   0.01
     7   1    -0.02   0.00  -0.01    -0.00   0.00   0.00     0.02  -0.03   0.01
     8   6     0.32   0.26   0.04     0.00  -0.00  -0.00    -0.01   0.01   0.02
     9   1    -0.15  -0.02   0.02    -0.04  -0.03   0.02    -0.05  -0.06   0.04
    10   6    -0.24  -0.13   0.04    -0.00  -0.00   0.00    -0.00  -0.00  -0.00
    11   1    -0.19  -0.50   0.01    -0.01   0.00   0.01     0.10  -0.07  -0.21
    12   1     0.24   0.30   0.29    -0.00   0.00   0.00     0.00  -0.00  -0.00
    13   1     0.20  -0.12  -0.30    -0.00  -0.00  -0.00     0.01   0.02   0.01
                     28                     29                     30
                      A                      A                      A
 Frequencies --   3061.5689              3135.9489              3140.0623
 Red. masses --      1.0841                 1.0813                 1.0705
 Frc consts  --      5.9871                 6.2651                 6.2190
 IR Inten    --     16.0716                22.8228                 3.6685
  Atom  AN      X      Y      Z        X      Y      Z        X      Y      Z
     1   6     0.00  -0.02   0.00    -0.00  -0.01  -0.00     0.00   0.00   0.00
     2   6    -0.00  -0.00   0.00    -0.05  -0.05   0.03     0.02   0.03  -0.02
     3   6    -0.00   0.00  -0.00    -0.00   0.00  -0.00     0.00  -0.00  -0.00
     4   1    -0.11   0.17  -0.08    -0.01   0.02  -0.01     0.01  -0.01   0.01
     5   1     0.06   0.11   0.04     0.03   0.06   0.02    -0.02  -0.03  -0.01
     6   1    -0.00  -0.01   0.00     0.00   0.01  -0.00    -0.00  -0.01   0.01
     7   1     0.00  -0.01   0.00     0.01  -0.02   0.01    -0.01   0.01  -0.00
     8   6     0.03  -0.02  -0.07     0.00   0.00   0.01     0.01  -0.00  -0.01
     9   1     0.04   0.05  -0.04     0.52   0.58  -0.40    -0.27  -0.29   0.20
    10   6     0.00   0.00   0.00    -0.02  -0.02  -0.01    -0.04  -0.05  -0.01
    11   1    -0.40   0.25   0.83     0.02  -0.02  -0.05    -0.05   0.03   0.09
    12   1     0.00   0.00  -0.00     0.13  -0.11  -0.11     0.22  -0.18  -0.18
    13   1    -0.02  -0.07  -0.03     0.12   0.36   0.18     0.23   0.70   0.35
                     31                     32                     33
                      A                      A                      A
 Frequencies --   3165.3081              3256.5487              3268.4962
 Red. masses --      1.0514                 1.1050                 1.1185
 Frc consts  --      6.2066                 6.9043                 7.0404
 IR Inten    --      4.3208                10.0261                 3.0588
  Atom  AN      X      Y      Z        X      Y      Z        X      Y      Z
     1   6    -0.00  -0.00   0.00    -0.00   0.00  -0.00     0.00  -0.00   0.00
     2   6    -0.00  -0.00   0.00     0.00   0.00  -0.00    -0.00   0.00   0.00
     3   6     0.06  -0.01  -0.01    -0.00   0.01  -0.00     0.00  -0.09   0.04
     4   1    -0.01   0.01  -0.00     0.00  -0.01   0.00    -0.02   0.03  -0.01
     5   1     0.00  -0.00  -0.00    -0.00  -0.00  -0.00     0.01   0.02   0.01
     6   1    -0.28  -0.51   0.29    -0.03  -0.06   0.03     0.34   0.58  -0.33
     7   1    -0.41   0.61  -0.17     0.04  -0.06   0.02    -0.36   0.51  -0.15
     8   6     0.00   0.00   0.00     0.00   0.00   0.00    -0.00  -0.00   0.00
     9   1     0.02   0.02  -0.01    -0.01  -0.02   0.01     0.00   0.00  -0.00
    10   6    -0.00   0.00   0.00    -0.05   0.06   0.05    -0.00   0.01   0.01
    11   1     0.00  -0.00  -0.00     0.01  -0.01  -0.02     0.00  -0.00  -0.00
    12   1     0.00  -0.00  -0.00     0.63  -0.46  -0.48     0.07  -0.05  -0.05
    13   1    -0.00  -0.01  -0.00    -0.11  -0.32  -0.15    -0.01  -0.03  -0.02

 -------------------
 - Thermochemistry -
 -------------------
 Temperature   298.150 Kelvin.  Pressure   1.00000 Atm.
 Atom     1 has atomic number  6 and mass  12.00000
 Atom     2 has atomic number  6 and mass  12.00000
 Atom     3 has atomic number  6 and mass  12.00000
 Atom     4 has atomic number  1 and mass   1.00783
 Atom     5 has atomic number  1 and mass   1.00783
 Atom     6 has atomic number  1 and mass   1.00783
 Atom     7 has atomic number  1 and mass   1.00783
 Atom     8 has atomic number  6 and mass  12.00000
 Atom     9 has atomic number  1 and mass   1.00783
 Atom    10 has atomic number  6 and mass  12.00000
 Atom    11 has atomic number  1 and mass   1.00783
 Atom    12 has atomic number  1 and mass   1.00783
 Atom    13 has atomic number  1 and mass   1.00783
 Molecular mass:    68.06260 amu.
 Principal axes and moments of inertia in atomic units:
                           1         2         3
     Eigenvalues --   212.32142 402.20388 565.52551
           X            0.31786   0.85292  -0.41412
           Y            0.47579   0.23431   0.84778
           Z            0.82012  -0.46651  -0.33133
 This molecule is an asymmetric top.
[...]
    D5        2.06726  -0.00000   0.00000  -0.00000  -0.00000   2.06725
    D6       -1.96939  -0.00000   0.00000  -0.00002  -0.00002  -1.96941
    D7        3.12491   0.00000   0.00000   0.00001   0.00001   3.12492
    D8        0.87183   0.00000   0.00000   0.00000   0.00000   0.87184
    D9        3.10800   0.00000   0.00000  -0.00001  -0.00001   3.10799
   D10       -0.53428  -0.00000   0.00000  -0.00001  -0.00001  -0.53429
   D11        3.10064  -0.00000   0.00000   0.00000   0.00000   3.10064
   D12       -0.60147  -0.00000   0.00000   0.00001   0.00001  -0.60146
   D13       -2.95484   0.00000   0.00000   0.00001   0.00001  -2.95483
         Item               Value     Threshold  Converged?
 Maximum Force            0.000007     0.000450     YES
 RMS     Force            0.000002     0.000300     YES
 Maximum Displacement     0.000022     0.001800     YES
 RMS     Displacement     0.000007     0.001200     YES
 Predicted change in Energy=-1.408926D-10
 Optimization completed.
    -- Stationary point found.
                       ----------------------------
                       !   Optimized Parameters   !
                       ! (Angstroms and Degrees)  !
 ----------------------                            ----------------------
 !      Name          Value   Derivative information (Atomic Units)     !
 ------------------------------------------------------------------------
 !       R2          1.5057   -DE/DX =    0.0                           !
 !       R3          1.4584   -DE/DX =    0.0                           !
 !       R4          1.0927   -DE/DX =    0.0                           !
 !       R5          1.0957   -DE/DX =    0.0                           !
 !       R6          1.0789   -DE/DX =    0.0                           !
 !       R7          1.0805   -DE/DX =    0.0                           !
 !       R8          1.3883   -DE/DX =    0.0                           !
 !       R9          1.0865   -DE/DX =    0.0                           !
 !       R10         1.3709   -DE/DX =    0.0                           !
 !       R11         1.0929   -DE/DX =    0.0                           !
 !       R12         1.0769   -DE/DX =    0.0                           !
 !       R13         1.0847   -DE/DX =    0.0                           !
 !       A3        103.4508   -DE/DX =    0.0                           !
 !       A4        112.2271   -DE/DX =    0.0                           !
 !       A5        107.8848   -DE/DX =    0.0                           !
 !       A6        122.8491   -DE/DX =    0.0                           !
 !       A7        119.0263   -DE/DX =    0.0                           !
 !       A8        123.4798   -DE/DX =    0.0                           !
 !       A9        117.5251   -DE/DX =    0.0                           !
 !       A10       127.9768   -DE/DX =    0.0                           !
 !       A11       114.6204   -DE/DX =    0.0                           !
 !       A12       120.9504   -DE/DX =    0.0                           !
 !       A13       121.099    -DE/DX =    0.0                           !
 !       D4       -123.1411   -DE/DX =    0.0                           !
 !       D5        118.445    -DE/DX =    0.0                           !
 !       D6       -112.8378   -DE/DX =    0.0                           !
 !       D7        179.044    -DE/DX =    0.0                           !
 !       D8         49.9523   -DE/DX =    0.0                           !
 !       D9        178.0751   -DE/DX =    0.0                           !
 !       D10       -30.6123   -DE/DX =    0.0                           !
 !       D11       177.6536   -DE/DX =    0.0                           !
 !       D12       -34.4616   -DE/DX =    0.0                           !
 !       D13      -169.2997   -DE/DX =    0.0                           !
 ------------------------------------------------------------------------
 GradGradGradGradGradGradGradGradGradGradGradGradGradGradGradGradGradGrad


 ----------------------------------------------------------------------

 Electric dipole moment (input orientation):
 (Debye = 10**-18 statcoulomb cm , SI units = C m)
                  (au)            (Debye)         (10**-30 SI)
   Tot        0.437639D+00      0.111237D+01      0.371046D+01
   x         -0.332919D+00     -0.846195D+00     -0.282260D+01
   y         -0.254036D+00     -0.645694D+00     -0.215380D+01
   z         -0.127117D+00     -0.323098D+00     -0.107774D+01

 Dipole polarizability, Alpha (input orientation).
 (esu units = cm**3 , SI units = C**2 m**2 J**-1)
 Alpha(0;0):
               (au)            (10**-24 esu)      (10**-40 SI)
   iso        0.747026D+02      0.110698D+02      0.123168D+02
   aniso      0.489801D+02      0.725810D+01      0.807573D+01
   xx         0.688599D+02      0.102040D+02      0.113535D+02
   yx         0.119730D+02      0.177422D+01      0.197409D+01
   yy         0.628448D+02      0.931264D+01      0.103617D+02
   zx        -0.347874D+01     -0.515495D+00     -0.573566D+00
   zy         0.200050D+02      0.296444D+01      0.329838D+01
   zz         0.924032D+02      0.136927D+02      0.152352D+02

 ----------------------------------------------------------------------

 Dipole orientation:
     6          0.00000000          0.00000000         -0.00000000
     6         -2.16457834          1.65169471         -0.82648927
     6          1.96609842          0.54506532         -1.85282913
     1         -0.52985450         -1.99361792          0.09278039
     1          0.55888800          0.58993008          1.90436219
     1          2.62143366         -0.83079594         -3.20717106
     1          2.79133955          2.41201242         -1.90154664
     6         -3.06211496          1.73582269         -3.29020530
     1         -3.09483217          2.78606093          0.61002852
     6         -1.73424253          1.36788756         -5.48399808
     1         -5.09304745          2.07319552         -3.45503841
     1          0.20366326          1.96719432         -5.64745596
     1         -2.67551972          0.76920408         -7.20355011

 Electric dipole moment (dipole orientation):
 (Debye = 10**-18 statcoulomb cm , SI units = C m)
                  (au)            (Debye)         (10**-30 SI)
   Tot        0.437639D+00      0.111237D+01      0.371046D+01
   x          0.000000D+00      0.000000D+00      0.000000D+00
   y          0.000000D+00      0.000000D+00      0.000000D+00
   z          0.437639D+00      0.111237D+01      0.371046D+01

 Dipole polarizability, Alpha (dipole orientation).
 (esu units = cm**3 , SI units = C**2 m**2 J**-1)
 Alpha(0;0):
               (au)            (10**-24 esu)      (10**-40 SI)
   iso        0.747026D+02      0.110698D+02      0.123168D+02
   aniso      0.489801D+02      0.725810D+01      0.807573D+01
   xx         0.905944D+02      0.134247D+02      0.149370D+02
   yx        -0.111355D+02     -0.165011D+01     -0.183600D+01
   yy         0.489117D+02      0.724797D+01      0.806445D+01
   zx         0.126568D+02      0.187554D+01      0.208682D+01
   zy        -0.276285D+01     -0.409411D+00     -0.455532D+00
   zz         0.846019D+02      0.125367D+02      0.139490D+02

 ----------------------------------------------------------------------
 1\1\GINC-BHC0034\Freq\RB3LYP\def2TZVP\C5H8\DHANAWAY\10-Jun-2022\1\\#N 
 Geom=AllCheck Guess=TCheck SCRF=Check GenChk RB3LYP/def2TZVP Freq\\ts_
 zmat_initalOpt\\0,1\C\C,1,R2\C,1,R3,2,A3\H,1,R4,2,A4,3,D4,0\H,1,R5,2,A
 5,3,D5,0\H,3,R6,1,A6,2,D6,0\H,3,R7,1,A7,6,D7,0\C,2,R8,1,A8,3,D8,0\H,2,
 R9,1,A9,8,D9,0\C,8,R10,2,A10,1,D10,0\H,8,R11,2,A11,10,D11,0\H,10,R12,8
 ,A12,2,D12,0\H,10,R13,8,A13,12,D13,0\\R2=1.5057467\R3=1.45841998\R4=1.
 09270499\R5=1.09566121\R6=1.07888586\R7=1.08046633\R8=1.38827563\R9=1.
 08652109\R10=1.37090076\R11=1.09293699\R12=1.07689395\R13=1.08465631\A
 3=103.45077303\A4=112.22712749\A5=107.88483054\A6=122.84911294\A7=119.
 02634574\A8=123.47984167\A9=117.52508845\A10=127.97676696\A11=114.6204
 4597\A12=120.95043345\A13=121.09900205\D4=-123.14112217\D5=118.4450264
 9\D6=-112.837784\D7=179.04399178\D8=49.95234082\D9=178.07513672\D10=-3
 0.6122646\D11=177.65361229\D12=-34.46160552\D13=-169.29973088\\Version
 =ES64L-G16RevA.03\HF=-195.2769456\RMSD=2.879e-09\RMSF=3.051e-05\ZeroPo
 int=0.109787\Thermal=0.1150856\Dipole=-0.3329187,-0.2540357,-0.1271166
 \DipoleDeriv=-0.0018416,-0.157949,-0.0400959,-0.0866017,0.0539698,-0.0
 699862,0.1011833,0.1789624,0.2371877,-0.1737192,0.1063847,-0.1111258,0
 .0833129,-0.0807035,0.0364363,-0.1281553,-0.2253804,-0.0236601,0.05978
 96,0.1922321,0.305879,0.0297031,0.0932781,-0.1094207,-0.0062625,-0.207
 5986,-0.4528631,0.0147886,0.0459371,-0.0634613,0.1227881,-0.0223047,0.
 0783127,-0.0683437,0.0255145,0.0442142,0.0606451,-0.0873824,-0.0958717
 ,-0.0929417,-0.0193289,-0.027486,-0.0299687,-0.035679,0.07628,0.009077
 ,-0.0049153,0.0427452,-0.0289978,-0.0090964,0.0585437,0.0439318,0.0408
 628,0.0885049,-0.0132316,0.0282857,0.0155793,0.0445929,-0.0115177,0.04
 19926,-0.0217775,0.0423891,0.0611312,0.1529805,0.2335588,0.0417204,0.1
 650589,0.0043882,0.1537054,-0.0172155,0.1013646,-0.0594814,0.0354338,-
 0.1147565,0.0542692,-0.1086462,0.0206286,0.0040483,0.0646533,0.0612037
 ,0.0509414,-0.3040317,-0.1185137,-0.2131604,-0.0250666,-0.066695,0.063
 3177,-0.0253261,0.3130395,-0.1277912,0.0741677,-0.0023717,0.0916089,-0
 .0087922,0.0962309,-0.0685107,0.102147,-0.0646334,-0.0789204,0.0286714
 ,-0.0438148,-0.0171778,-0.0037261,-0.0232645,-0.0758607,0.029674,-0.09
 32858,0.1045892,0.0572704,-0.0766952,-0.0109092,-0.0906837,-0.035585,-
 0.0850924,-0.0445399,-0.1367594,0.0798675\Polar=68.8599064,11.9730265,
 62.8448364,-3.478735,20.0050266,92.4031987\PG=C01 [X(C5H8)]\NImag=1\\0
 .52218951,-0.00510650,0.56533911,0.04760001,-0.02297383,0.39345740,-0.
 03691695,-0.00502017,-0.00620715,0.36232720,-0.01610549,-0.05900096,0.
 02941071,0.27057332,0.42772798,-0.03248590,0.00971357,-0.18416442,0.02
 247068,0.01001182,0.51066077,-0.26605117,0.01887524,0.02969949,-0.0192
 6938,0.00040949,0.02286340,0.56246791,-0.00882795,-0.08205974,0.015075
 62,0.00187098,-0.01436948,-0.01444121,-0.04047665,0.54556451,0.0450834
 4,0.00847172,-0.03432903,0.00868597,-0.00093951,-0.01780974,-0.0821770
 2,-0.19632422,0.18591583,-0.10592357,0.09844942,-0.03957823,0.00094777
 ,-0.00402721,-0.00440283,-0.01771618,0.02839112,-0.00909531,0.11862396
 ,0.10157492,-0.20382086,0.07322110,-0.00297058,0.00220714,0.00182109,-
 0.00083725,0.00045878,-0.00071235,-0.11128966,0.21757431,-0.05071302,0
 .07884649,-0.07980178,-0.01331358,0.02032068,-0.02152632,0.00407969,-0
 .01276572,0.00648808,0.04859349,-0.08268919,0.09018173,-0.09528963,-0.
 09781615,-0.03887503,0.00132330,0.00264941,-0.00107866,-0.01648741,-0.
 02649546,-0.00508167,0.00764592,0.01321413,0.00634446,0.10506543,-0.08
 887623,-0.22150246,-0.06757751,-0.00197956,-0.00473492,0.00334931,-0.0
 0560074,0.00090319,0.00185720,-0.01019937,-0.01919494,-0.00788741,0.10
 686683,0.24068737,-0.03360934,-0.06399414,-0.05488719,-0.01478503,-0.0
 2859371,-0.01838788,0.00799509,0.01051093,0.00016476,0.00512351,0.0088
 4226,0.00407990,0.03589574,0.07204101,0.07328187,-0.00534996,-0.023315
 94,0.00903294,-0.00287129,0.00036017,0.00075000,-0.11208736,-0.0955442
 3,0.06693547,0.00197567,-0.00004038,-0.00032381,-0.00421989,-0.0002893
 9,0.00226653,0.11377237,0.00808861,0.00120526,-0.00207226,-0.00148790,
 0.00314427,0.00176893,-0.09867497,-0.22699074,0.11958407,-0.00056080,0
 .00070624,0.00050550,-0.00012171,0.00037392,0.00004623,0.10653389,0.23
 575462,0.01272107,-0.00017263,0.00635514,-0.00446111,0.00468265,0.0038
 1569,0.06239571,0.12009449,-0.08510473,-0.00052680,-0.00085649,0.00071
 667,-0.00027512,-0.00177135,-0.00100577,-0.06874341,-0.12252671,0.0817
 4875,-0.01411320,0.02552779,-0.00912256,0.00236458,-0.00160568,-0.0023
 4426,-0.13954201,0.12889347,-0.02667282,-0.00534871,-0.00057074,0.0023
 8599,0.00118320,-0.00017684,-0.00069240,0.00900666,-0.01194582,0.00284
 456,0.14566630,-0.00364012,0.00676476,-0.00369118,0.00291143,-0.001203
 53,0.00141140,0.12899407,-0.24249234,0.06835301,-0.00182045,0.00164147
 ,0.00046964,0.00126711,0.00078224,-0.00046528,0.01255277,-0.01173295,0
 .00463334,-0.14047981,0.24681228,0.00112046,0.00010103,-0.00723062,0.0
 0801848,-0.00461606,0.00268155,-0.03430645,0.06775498,-0.03636950,-0.0
 0112923,0.00053060,0.00069321,0.00106747,0.00068034,0.00001615,-0.0084
 7578,0.00743298,0.00033006,0.03255069,-0.07077458,0.03823733,0.0004313
 4,-0.02184158,0.00101739,-0.14846275,-0.08823515,-0.05974617,0.0123356
 7,0.02151807,0.00330349,0.00158080,-0.00052211,0.00572510,0.00045343,0
 .00063045,-0.00343055,-0.00060262,-0.00227193,-0.00400470,0.00091031,0
 .00080080,0.00180792,0.56806835,0.01846505,-0.00657391,-0.00686143,-0.
 12287789,-0.17004085,-0.07609147,0.00456198,0.01671670,-0.00772373,0.0
 0073353,0.00084546,0.00478666,0.00063106,-0.00024309,0.00118045,-0.001
 26309,-0.00291385,-0.00507049,0.00064636,0.00049253,0.00108504,0.21560
 698,0.37425295,-0.00595832,-0.01915707,-0.02762682,-0.07306574,-0.0967
 1026,-0.16401406,-0.00373722,-0.00089858,-0.00894720,-0.00004701,-0.00
 146631,0.00057986,0.00086207,-0.00028995,-0.00356313,0.00011585,-0.000
 75565,-0.00063274,0.00024745,-0.00032481,-0.00083234,-0.10968833,0.156
 85147,0.51929956,0.00677837,0.00324914,0.00707214,-0.13811056,-0.11426
 178,0.07794156,0.00444127,0.00064598,-0.00305337,-0.00113523,0.0005680
 2,-0.00001774,0.00100398,-0.00058631,-0.00036821,-0.00033292,-0.000920
 03,-0.00220400,-0.00000293,0.00026620,0.00043640,-0.01749072,-0.019239
 81,0.00682622,0.13878275,-0.00334828,-0.00116925,-0.01464060,-0.116698
 47,-0.16802266,0.07803398,-0.00558907,-0.00037537,0.00416376,0.0007448
 1,0.00012229,-0.00006401,0.00005423,0.00231090,0.00062909,0.00049252,0
 .00116417,0.00254830,-0.00010399,-0.00036311,-0.00041662,-0.00324788,-
 0.00077106,0.01316616,0.13438915,0.16682711,0.01320689,0.01835959,-0.0
 1435530,0.08166101,0.07775749,-0.10997128,-0.00251708,0.00021483,-0.00
 220204,0.00081582,0.00064620,-0.00305372,0.00063694,0.00010424,0.00189
 968,0.00085619,0.00004797,0.00047378,0.00018235,-0.00014062,0.00009532
 ,-0.01325641,-0.01034234,0.00999163,-0.07960686,-0.08517561,0.11767584
 ,-0.00512221,0.00852687,0.00145558,-0.02458010,-0.03877991,-0.00942875
 ,-0.00655456,-0.00641639,0.00285944,-0.00048194,0.00096931,-0.00275685
 ,-0.00015087,0.00019540,0.00171042,0.00019737,0.00059121,0.00168258,-0
 .00015841,-0.00026522,-0.00050262,-0.31997260,-0.11579345,0.08404344,0
 .00693536,-0.00550954,-0.00136419,0.62908439,-0.00345266,0.00020162,0.
 00503901,-0.03332970,-0.02480108,-0.01178451,0.00180371,-0.00131015,0.
 00619218,-0.00088577,-0.00015893,-0.00084922,-0.00062614,0.00079062,-0
 .00031744,0.00069270,0.00039793,-0.00031755,-0.00036260,-0.00000533,-0
 .00127347,-0.11385295,-0.12805620,0.01843435,-0.00489360,-0.00052391,-
 0.00171945,0.12095870,0.51677318,0.00093737,-0.00826595,0.00125538,-0.
 00993330,0.00483969,0.01832992,-0.00045938,0.01731255,-0.00311393,0.00
 066373,0.00031696,0.00195501,0.00017868,-0.00023078,-0.00111481,-0.001
 84918,-0.00323288,-0.00539223,0.00084353,0.00086842,0.00342361,0.05690
 332,-0.01053871,-0.09061357,-0.00530841,0.00132006,-0.00058666,-0.1651
 8502,0.19486504,0.26662664,0.00119657,-0.00162120,-0.00289523,0.003909
 49,-0.00774224,-0.01692134,-0.00227978,-0.00258150,-0.00007228,-0.0001
 6647,0.00010443,0.00016473,-0.00006314,-0.00010949,-0.00006541,0.00017
 184,0.00046947,0.00086114,-0.00014144,-0.00016281,-0.00029406,-0.07958
 048,0.02693787,0.09976909,-0.00043173,0.00035294,0.00005531,-0.0181539
 1,0.00490923,0.02593065,0.09821305,0.00073639,0.00009928,-0.00379978,0
 .00987081,0.00631361,-0.01019398,-0.00194486,0.00387670,-0.00094511,0.
 00030933,-0.00032157,-0.00023048,0.00001574,-0.00021828,0.00000595,-0.
 00033341,-0.00049770,-0.00114788,0.00035079,0.00013332,0.00066066,0.00
 789828,-0.08080039,-0.06420346,0.00072329,0.00020096,0.00084053,0.0020
 4594,0.01288285,0.00373672,-0.01861084,0.05736145,0.00222597,-0.003175
 24,-0.00008849,0.00355718,-0.01021299,-0.02043799,-0.00127287,-0.00286
 278,-0.00093549,-0.00025016,0.00028802,0.00034534,0.00006059,-0.000090
 77,-0.00051950,0.00024207,0.00036631,0.00077311,-0.00015520,-0.0000958
 1,-0.00036656,0.10628952,-0.05449952,-0.23487206,-0.00180168,0.0007045
 2,0.00032109,-0.00039114,-0.00550627,-0.00173049,-0.10827536,0.0743402
 1,0.25726624,-0.00272785,0.00054022,0.00027718,0.00070546,-0.00052236,
 -0.00353303,-0.00077668,-0.00231551,-0.00184557,0.00001148,-0.00006535
 ,-0.00035504,-0.00034967,0.00005944,-0.00005615,0.00034747,0.00054647,
 0.00026500,0.00013909,-0.00020375,0.00000364,-0.00891424,0.01757909,0.
 01667754,0.00161977,-0.00129504,-0.00004410,-0.19155262,0.09852731,0.1
 1937398,-0.00221023,-0.00278170,0.00032344,0.19592634,0.00126924,-0.00
 000970,-0.00024915,0.00104859,0.00269367,0.00869556,0.00198210,0.00336
 005,0.00163664,0.00020264,-0.00009848,-0.00007736,0.00032851,0.0000656
 7,0.00014232,-0.00006149,-0.00111590,-0.00140015,-0.00019840,-0.001104
 42,-0.00178562,-0.02075616,0.00060864,0.00101266,-0.00058187,0.0007842
 5,0.00008148,0.10739504,-0.12460356,-0.09221923,-0.00288412,0.00146035
 ,0.00027866,-0.10408187,0.12533373,-0.00319024,0.00253733,0.00103475,-
 0.00535454,-0.00572586,-0.00901515,-0.00540237,-0.00730044,-0.00683362
 ,-0.00021996,0.00013310,-0.00107414,0.00003759,-0.00010559,-0.00010531
 ,-0.00064915,-0.00025726,-0.00052710,-0.00015008,-0.00026826,-0.000150
 58,0.02113063,0.00832585,-0.00276681,0.00239864,-0.00150282,-0.0003877
 5,0.10808570,-0.09026237,-0.09199672,0.00410715,-0.00051040,0.00017872
 ,-0.12689815,0.09791233,0.11560583,0.00089875,-0.00044714,0.00052347,-
 0.00136677,-0.00271257,0.00591530,0.00151967,0.00133808,0.00113023,-0.
 00001348,-0.00013474,0.00018659,-0.00011466,0.00006581,0.00001580,-0.0
 0000732,-0.00024649,-0.00055491,0.00003656,-0.00022022,-0.00029692,-0.
 00875651,-0.02598769,-0.01604505,-0.00205741,-0.00024138,-0.00062587,-
 0.06948991,-0.06948824,-0.02209596,-0.00046377,0.00172023,-0.00055237,
 0.00778167,0.01633779,0.00610480,0.07203318,-0.00077699,0.00052686,-0.
 00088070,-0.00191086,0.00008681,-0.00229446,-0.00350304,-0.00328211,-0
 .00361366,-0.00004760,0.00003907,-0.00036559,0.00003243,-0.00002021,-0
 .00002768,0.00021587,0.00050473,0.00130448,0.00002547,0.00027509,0.000
 62072,0.00427318,-0.00351694,-0.00565853,0.00064162,-0.00018433,-0.000
 67431,-0.07391796,-0.25158704,-0.10877191,0.00093827,-0.00049056,0.000
 46567,-0.00598696,-0.00737430,-0.00297562,0.08001657,0.26502293,0.0030
 6162,-0.00029086,0.00038098,0.00272712,-0.00022465,0.00983890,0.002839
 02,0.00362953,0.00307660,0.00005299,-0.00007499,0.00041615,0.00022694,
 -0.00007875,0.00014123,-0.00015775,-0.00090722,-0.00155063,0.00008275,
 0.00002474,-0.00052764,-0.00605121,-0.00110179,0.00399768,-0.00231467,
 0.00123381,0.00009941,-0.02020858,-0.11250030,-0.09704215,-0.00236438,
 0.00144700,0.00006609,-0.00418874,-0.01402813,-0.00396213,0.02629488,0
 .12287161,0.08506550\\0.00011087,0.00008184,-0.00000079,-0.00010859,-0
 .00007375,0.00000050,-0.00000191,-0.00000734,0.00000165,0.00000012,-0.
 00000008,0.,-0.00000013,0.00000038,-0.00000001,0.00000048,-0.00000005,
 0.00000101,0.00000026,0.00000061,-0.00000026,0.00000130,-0.00000007,-0
 .00000070,0.00000031,0.00000042,0.00000006,-0.00000251,-0.00000116,0.0
 0000025,-0.00000012,-0.00000032,-0.00000006,-0.00000003,-0.00000004,-0
 .00000111,-0.00000005,-0.00000045,-0.00000054\\\@


 IT IS WELL TO REMEMBER THAT MAN IS A PART OF NATURE AND THAT HIS WORKS,
 WHATEVER THEY MAY BE, ARE NO MORE "UNNATURAL" THAN 
 THE FLIGHT OF AN EAGLE OR THE PASSAGE OF A TORNADO.

                                    -- CHARLES MCCARRY IN "THE GREAT SOUTHWEST"
 Job cpu time:       0 days  0 hours 27 minutes  2.9 seconds.
 Elapsed time:       0 days  0 hours  2 minutes 15.7 seconds.
 File lengths (MBytes):  RWF=     52 Int=      0 D2E=      0 Chk=     32 Scr=      1
 Normal termination of Gaussian 16 at Fri Jun 10 02:49:24 2022.
