 Entering Gaussian System, Link 0=g16
 Input=ts_zmat_field_N25.gjf
 Output=ts_zmat_field_N25.out
 Initial command:
 /software/gaussian/g16-a03/l1.exe "/local_scratch/11171300/Gau-20412.inp" -scrdir="/local_scratch/11171300/"
 Entering Link 1 = /software/gaussian/g16-a03/l1.exe PID=     20413.
  
 Copyright (c) 1988,1990,1992,1993,1995,1998,2003,2009,2016,
            Gaussian, Inc.  All Rights Reserved.
  
 This is part of the Gaussian(R) 16 program.  It is based on
 the Gaussian(R) 09 system (copyright 2009, Gaussian, Inc.),
 the Gaussian(R) 03 system (copyright 2003, Gaussian, Inc.),
 the Gaussian(R) 98 system (copyright 1998, Gaussian, Inc.),
 the Gaussian(R) 94 system (copyright 1995, Gaussian, Inc.),
 the Gaussian 92(TM) system (copyright 1992, Gaussian, Inc.),
 the Gaussian 90(TM) system (copyright 1990, Gaussian, Inc.),
 the Gaussian 88(TM) system (copyright 1988, Gaussian, Inc.),
 the Gaussian 86(TM) system (copyright 1986, Carnegie Mellon
 University), and the Gaussian 82(TM) system (copyright 1983,
 Carnegie Mellon University). Gaussian is a federally registered
 trademark of Gaussian, Inc.
  
 This software contains proprietary and confidential information,
 including trade secrets, belonging to Gaussian, Inc.
  
 This software is provided under written license and may be
 used, copied, transmitted, or stored only in accord with that
 written license.
  
 The following legend is applicable only to US Government
 contracts under FAR:
  
                    RESTRICTED RIGHTS LEGEND
  
 Use, reproduction and disclosure by the US Government is
 subject to restrictions as set forth in subparagraphs (a)
 and (c) of the Commercial Computer Software - Restricted
 Rights clause in FAR 52.227-19.
  
 Gaussian, Inc.
 340 Quinnipiac St., Bldg. 40, Wallingford CT 06492
  
  
 ---------------------------------------------------------------
 Warning -- This program may not be used in any manner that
 competes with the business of Gaussian, Inc. or will provide
 assistance to any competitor of Gaussian, Inc.  The licensee
 of this program is prohibited from giving any competitor of
 Gaussian, Inc. access to this program.  By using this program,
 the user acknowledges that Gaussian, Inc. is engaged in the
 business of creating and licensing software in the field of
 computational chemistry and represents and warrants to the
 licensee that it is not a competitor of Gaussian, Inc. and that
 it will not use this program in any manner prohibited above.
 ---------------------------------------------------------------
  

 Cite this work as:
 Gaussian 16, Revision A.03,
 M. J. Frisch, G. W. Trucks, H. B. Schlegel, G. E. Scuseria, 
 M. A. Robb, J. R. Cheeseman, G. Scalmani, V. Barone, 
 G. A. Petersson, H. Nakatsuji, X. Li, M. Caricato, A. V. Marenich, 
 J. Bloino, B. G. Janesko, R. Gomperts, B. Mennucci, H. P. Hratchian, 
 J. V. Ortiz, A. F. Izmaylov, J. L. Sonnenberg, D. Williams-Young, 
 F. Ding, F. Lipparini, F. Egidi, J. Goings, B. Peng, A. Petrone, 
 T. Henderson, D. Ranasinghe, V. G. Zakrzewski, J. Gao, N. Rega, 
 G. Zheng, W. Liang, M. Hada, M. Ehara, K. Toyota, R. Fukuda, 
 J. Hasegawa, M. Ishida, T. Nakajima, Y. Honda, O. Kitao, H. Nakai, 
 T. Vreven, K. Throssell, J. A. Montgomery, Jr., J. E. Peralta, 
 F. Ogliaro, M. J. Bearpark, J. J. Heyd, E. N. Brothers, K. N. Kudin, 
 V. N. Staroverov, T. A. Keith, R. Kobayashi, J. Normand, 
 K. Raghavachari, A. P. Rendell, J. C. Burant, S. S. Iyengar, 
 J. Tomasi, M. Cossi, J. M. Millam, M. Klene, C. Adamo, R. Cammi, 
 J. W. Ochterski, R. L. Martin, K. Morokuma, O. Farkas, 
 J. B. Foresman, and D. J. Fox, Gaussian, Inc., Wallingford CT, 2016.
 
 ******************************************
 Gaussian 16:  ES64L-G16RevA.03 25-Dec-2016
                10-Jun-2022 
 ******************************************
 %nprocshared=12
 Will use up to   12 processors via shared memory.
 %chk=checkpoint.chk
 %mem=12GB
 ----------------------------------------------------------------------
 # Opt=(TS, CalcFC, noeigentest, Z-matrix, MaxStep=10) Field=read NoSym
 m B3LYP/Def2TZVP freq=noraman pop=none
 ----------------------------------------------------------------------
 1/5=1,8=10,10=4,11=1,18=40,26=3,38=1/1,3;
 2/12=2,15=1,17=6,18=5,29=3,40=1/2;
 3/5=44,7=101,11=2,14=-6,25=1,30=1,71=2,74=-5,140=1/1,2,3;
 4//1;
 5/5=2,38=5/2;
 8/6=4,10=90,11=11/1;
 11/6=1,8=1,9=11,15=111,16=1,31=1/1,2,10;
 10/6=1,13=1,31=1/2;
 7/10=1,18=20,25=1,30=1/1,2,3,16;
 1/5=1,8=10,10=4,11=1,18=40,26=3/3(2);
 2/15=1,29=3/2;
 99//99;
 2/15=1,29=3/2;
 3/5=44,7=101,11=2,14=-2,25=1,30=1,71=1,74=-5/1,2,3;
 4/5=5,16=3,69=1/1;
 5/5=2,38=5/2;
 7/30=1/1,2,3,16;
 1/5=1,8=10,11=1,18=40,26=3/3(-5);
 2/15=1,29=3/2;
 99/9=1/99;
 -----------------
 ts_zmat_initalOpt
 -----------------
 Symbolic Z-matrix:
 Charge =  0 Multiplicity = 1
 C
 C                    1    R2
 C                    1    R3       2    A3
 C                    1    R4       2    A4       3    D4       0
 H                    2    R5       1    A5       3    D5       0
 C                    2    R6       1    A6       5    D6       0
 C                    3    R2       1    A3       2    D7       0
 C                    3    R4       1    A8       7    D8       0
 H                    4    R9       1    A9       2    D9       0
 H                    4    R10      1    A10      9    D10      0
 C                    6    R11      2    A11      1    D11      0
 H                    6    R12      2    A12      11   D12      0
 H                    7    R5       3    A5       1    D5       0
 H                    8    R9       3    A9       1    D14      0
 H                    8    R10      3    A10      14   D10      0
 H                    11   R12      6    A16      2    D16      0
       Variables:
  R2                    1.40545                  
  R3                    1.41211                  
  R4                    1.42383                  
  R5                    1.08353                  
  R6                    1.38053                  
  R9                    1.07814                  
  R10                   1.0882                   
  R11                   1.41374                  
  R12                   1.08298                  
  A3                  120.32938                  
  A4                  133.35746                  
  A5                  121.62316                  
  A6                  117.09468                  
  A8                  106.24712                  
  A9                  117.95382                  
  A10                 123.04379                  
  A11                 121.49926                  
  A12                 119.65225                  
  A16                 118.80285                  
  D4                  176.59725                  
  D5                  172.99099                  
  D6                  174.71696                  
  D7                   18.37994                  
  D8                 -177.42364                  
  D9                 -120.94221                  
  D10                 156.53444                  
  D11                   1.0691                   
  D12                -177.51326                  
  D14                  55.99892                  
  D16                -177.85978                  
 

 GradGradGradGradGradGradGradGradGradGradGradGradGradGradGradGradGradGrad
 Berny optimization.
 Initialization pass.
                       ----------------------------
                       !    Initial Parameters    !
                       ! (Angstroms and Degrees)  !
 ----------------------                            ----------------------
 !      Name          Value   Derivative information (Atomic Units)     !
 ------------------------------------------------------------------------
 !       R2          1.4055   calculate D2E/DX2 analytically            !
 !       R3          1.4121   calculate D2E/DX2 analytically            !
 !       R4          1.4238   calculate D2E/DX2 analytically            !
 !       R5          1.0835   calculate D2E/DX2 analytically            !
 !       R6          1.3805   calculate D2E/DX2 analytically            !
 !       R9          1.0781   calculate D2E/DX2 analytically            !
 !       R10         1.0882   calculate D2E/DX2 analytically            !
 !       R11         1.4137   calculate D2E/DX2 analytically            !
 !       R12         1.083    calculate D2E/DX2 analytically            !
 !       A3        120.3294   calculate D2E/DX2 analytically            !
 !       A4        133.3575   calculate D2E/DX2 analytically            !
 !       A5        121.6232   calculate D2E/DX2 analytically            !
 !       A6        117.0947   calculate D2E/DX2 analytically            !
 !       A8        106.2471   calculate D2E/DX2 analytically            !
 !       A9        117.9538   calculate D2E/DX2 analytically            !
 !       A10       123.0438   calculate D2E/DX2 analytically            !
 !       A11       121.4993   calculate D2E/DX2 analytically            !
 !       A12       119.6523   calculate D2E/DX2 analytically            !
 !       A16       118.8029   calculate D2E/DX2 analytically            !
 !       D4        176.5973   calculate D2E/DX2 analytically            !
 !       D5        172.991    calculate D2E/DX2 analytically            !
 !       D6        174.717    calculate D2E/DX2 analytically            !
 !       D7         18.3799   calculate D2E/DX2 analytically            !
 !       D8       -177.4236   calculate D2E/DX2 analytically            !
 !       D9       -120.9422   calculate D2E/DX2 analytically            !
 !       D10       156.5344   calculate D2E/DX2 analytically            !
 !       D11         1.0691   calculate D2E/DX2 analytically            !
 !       D12      -177.5133   calculate D2E/DX2 analytically            !
 !       D14        55.9989   calculate D2E/DX2 analytically            !
 !       D16      -177.8598   calculate D2E/DX2 analytically            !
 ------------------------------------------------------------------------
 Trust Radius=1.00D-01 FncErr=1.00D-07 GrdErr=1.00D-06 EigMax=2.50D+02 EigMin=1.00D-04
 Number of steps in this run=     40 maximum allowed number of steps=    100.
 Search for a saddle point of order  1.
 GradGradGradGradGradGradGradGradGradGradGradGradGradGradGradGradGradGrad

 ---------------------------------------------------------------------------------------------------
                            Z-MATRIX (ANGSTROMS AND DEGREES)
   CD    Cent   Atom    N1       Length/X        N2       Alpha/Y        N3        Beta/Z          J
 ---------------------------------------------------------------------------------------------------
      1      1  C 
      2      2  C        1   1.405453(     1)
      3      3  C        1   1.412115(     2)      2  120.329(    16)
      4      4  C        1   1.423825(     3)      2  133.357(    17)      3  176.597(    30)      0
      5      5  H        2   1.083531(     4)      1  121.623(    18)      3  172.991(    31)      0
      6      6  C        2   1.380529(     5)      1  117.095(    19)      5  174.717(    32)      0
      7      7  C        3   1.405453(     6)      1  120.329(    20)      2   18.380(    33)      0
      8      8  C        3   1.423825(     7)      1  106.247(    21)      7 -177.424(    34)      0
      9      9  H        4   1.078139(     8)      1  117.954(    22)      2 -120.942(    35)      0
     10     10  H        4   1.088203(     9)      1  123.044(    23)      9  156.534(    36)      0
     11     11  C        6   1.413743(    10)      2  121.499(    24)      1    1.069(    37)      0
     12     12  H        6   1.082981(    11)      2  119.652(    25)     11 -177.513(    38)      0
     13     13  H        7   1.083531(    12)      3  121.623(    26)      1  172.991(    39)      0
     14     14  H        8   1.078139(    13)      3  117.954(    27)      1   55.999(    40)      0
     15     15  H        8   1.088203(    14)      3  123.044(    28)     14  156.534(    41)      0
     16     16  H       11   1.082981(    15)      6  118.803(    29)      2 -177.860(    42)      0
 ---------------------------------------------------------------------------------------------------
                         Z-Matrix orientation:                         
 ---------------------------------------------------------------------
 Center     Atomic      Atomic             Coordinates (Angstroms)
 Number     Number       Type             X           Y           Z
 ---------------------------------------------------------------------
      1          6           0        0.000000    0.000000    0.000000
      2          6           0        0.000000    0.000000    1.405453
      3          6           0        1.218848    0.000000   -0.713076
      4          6           0       -1.033416   -0.061446   -0.977524
      5          1           0       -0.915748    0.112586    1.973581
      6          6           0        1.200848   -0.261653    2.034232
      7          6           0        2.412755   -0.382510   -0.077805
      8          6           0        0.918070    0.488902   -2.016067
      9          1           0       -1.016157   -0.878678   -1.680530
     10          1           0       -2.003968    0.412690   -0.845572
     11          6           0        2.384505   -0.496541    1.297717
     12          1           0        1.236446   -0.329150    3.114521
     13          1           0        3.338081   -0.498165   -0.629561
     14          1           0        0.442321    1.453027   -2.096748
     15          1           0        1.442872    0.157578   -2.909931
     16          1           0        3.295033   -0.732167    1.834623
 ---------------------------------------------------------------------
                    Distance matrix (angstroms):
                    1          2          3          4          5
     1  C    0.000000
     2  C    1.405453   0.000000
     3  C    1.412115   2.444127   0.000000
     4  C    1.423825   2.598135   2.268569   0.000000
     5  H    2.178599   1.083531   3.433264   2.958573   0.000000
     6  C    2.376678   1.380529   2.759798   3.755355   2.150282
     7  C    2.444127   2.857928   1.405453   3.576126   3.941096
     8  C    2.268569   3.576126   1.423825   2.278103   4.407016
     9  H    2.151472   3.365701   2.589071   1.078139   3.787508
    10  H    2.213863   3.041926   3.251832   1.088203   3.036759
    11  C    2.759798   2.438037   2.376678   4.128949   3.423375
    12  H    3.367103   2.134960   3.841764   4.687086   2.475644
    13  H    3.433264   3.941096   2.178599   4.407016   5.024384
    14  H    2.589071   3.817374   2.151472   2.392508   4.495410
    15  H    3.251832   4.552939   2.213863   3.148678   5.423450
    16  H    3.841764   3.402572   3.367103   5.205143   4.296928
                    6          7          8          9         10
     6  C    0.000000
     7  C    2.438037   0.000000
     8  C    4.128949   2.598135   0.000000
     9  H    4.369815   3.817374   2.392508   0.000000
    10  H    4.361061   4.552939   3.148678   1.827720   0.000000
    11  C    1.413743   1.380529   3.755355   4.536572   4.967804
    12  H    1.082981   3.402572   5.205143   5.326229   5.170391
    13  H    3.423375   1.083531   2.958573   4.495410   5.423450
    14  H    4.536572   3.365701   1.078139   2.781590   2.938039
    15  H    4.967804   3.041926   1.088203   2.938039   4.025837
    16  H    2.155652   2.134960   4.687086   5.564541   6.047607
                   11         12         13         14         15
    11  C    0.000000
    12  H    2.155652   0.000000
    13  H    2.150282   4.296928   0.000000
    14  H    4.369815   5.564541   3.787508   0.000000
    15  H    4.361061   6.047607   3.036759   1.827720   0.000000
    16  H    1.082981   2.457304   2.475644   5.326229   5.170391
                   16
    16  H    0.000000
 Symmetry turned off by external request.
 Stoichiometry    C8H8
 Framework group  C2[X(C8H8)]
 Deg. of freedom    22
 Full point group                 C2      NOp   2
 Rotational constants (GHZ):           3.8306242           2.2229067           1.4568655
 Standard basis: def2TZVP (5D, 7F)
 The following finite field(s) will be applied:
 An electric field of             -0.0012  0.0004 -0.0021
   296 basis functions,   472 primitive gaussians,   336 cartesian basis functions
    28 alpha electrons       28 beta electrons
       nuclear repulsion energy       329.7208474928 Hartrees.
 NAtoms=   16 NActive=   16 NUniq=   16 SFac= 1.00D+00 NAtFMM=   60 NAOKFM=F Big=F
 Integral buffers will be    131072 words long.
 Raffenetti 2 integral format.
 Two-electron integral symmetry is turned off.
 One-electron integrals computed using PRISM.
   1 Symmetry operations used in ECPInt.
 ECPInt:  NShTT=    7260 NPrTT=   21936 LenC2=    7161 LenP2D=   17614.
 LDataN:  DoStor=T MaxTD1= 6 Len=  172
 NBasis=   296 RedAO= T EigKep=  1.25D-05  NBF=   296
 NBsUse=   296 1.00D-06 EigRej= -1.00D+00 NBFU=   296
 The nuclear repulsion energy is now       329.5853334972 hartrees.
 ExpMin= 9.52D-02 ExpMax= 1.36D+04 ExpMxC= 4.63D+02 IAcc=3 IRadAn=         5 AccDes= 0.00D+00
 Harris functional with IExCor=  402 and IRadAn=       5 diagonalized for initial guess.
 HarFok:  IExCor=  402 AccDes= 0.00D+00 IRadAn=         5 IDoV= 1 UseB2=F ITyADJ=14
 ICtDFT=  3500011 ScaDFX=  1.000000  1.000000  1.000000  1.000000
 FoFCou: FMM=F IPFlag=           0 FMFlag=      100000 FMFlg1=           0
         NFxFlg=           0 DoJE=T BraDBF=F KetDBF=T FulRan=T
         wScrn=  0.000000 ICntrl=       500 IOpCl=  0 I1Cent=   200000004 NGrid=           0
         NMat0=    1 NMatS0=      1 NMatT0=    0 NMatD0=    1 NMtDS0=    0 NMtDT0=    0
 Symmetry not used in FoFCou.
 Requested convergence on RMS density matrix=1.00D-08 within 128 cycles.
 Requested convergence on MAX density matrix=1.00D-06.
 Requested convergence on             energy=1.00D-06.
 No special actions if energy rises.
 Integral accuracy reduced to 1.0D-05 until final iterations.
 Initial convergence to 1.0D-05 achieved.  Increase integral accuracy.
 SCF Done:  E(RB3LYP) =  -309.678546204     A.U. after   14 cycles
            NFock= 14  Conv=0.43D-08     -V/T= 2.0053
 DoSCS=F DFT=T ScalE2(SS,OS)=  1.000000  1.000000
 Range of M.O.s used for correlation:     1   296
 NBasis=   296 NAE=    28 NBE=    28 NFC=     0 NFV=     0
 NROrb=    296 NOA=    28 NOB=    28 NVA=   268 NVB=   268

 **** Warning!!: The largest alpha MO coefficient is  0.64596262D+02

   1 Symmetry operations used in ECPInt.
 ECPInt:  NShTT=    7260 NPrTT=   21936 LenC2=    7161 LenP2D=   17614.
 LDataN:  DoStor=T MaxTD1= 7 Len=  274
 Symmetrizing basis deriv contribution to polar:
 IMax=3 JMax=2 DiffMx= 0.00D+00
 G2DrvN: will do    17 centers at a time, making    1 passes.
 Calling FoFCou, ICntrl=  3107 FMM=F I1Cent=   0 AccDes= 0.00D+00.
 End of G2Drv F.D. properties file   721 does not exist.
 End of G2Drv F.D. properties file   722 does not exist.
 End of G2Drv F.D. properties file   788 does not exist.
          IDoAtm=1111111111111111
          Differentiating once with respect to nuclear coordinates.
 Keep R1 ints in memory in canonical form, NReq=985231126.
          There are    51 degrees of freedom in the 1st order CPHF.  IDoFFX=6 NUNeed=     0.
     45 vectors produced by pass  0 Test12= 1.47D-14 1.96D-09 XBig12= 1.81D-01 1.41D-01.
 AX will form    45 AO Fock derivatives at one time.
     45 vectors produced by pass  1 Test12= 1.47D-14 1.96D-09 XBig12= 3.82D-02 6.20D-02.
     45 vectors produced by pass  2 Test12= 1.47D-14 1.96D-09 XBig12= 4.67D-04 4.10D-03.
     45 vectors produced by pass  3 Test12= 1.47D-14 1.96D-09 XBig12= 1.50D-06 1.51D-04.
     45 vectors produced by pass  4 Test12= 1.47D-14 1.96D-09 XBig12= 3.50D-09 6.29D-06.
     43 vectors produced by pass  5 Test12= 1.47D-14 1.96D-09 XBig12= 6.56D-12 3.26D-07.
     14 vectors produced by pass  6 Test12= 1.47D-14 1.96D-09 XBig12= 1.02D-14 1.22D-08.
 InvSVY:  IOpt=1 It=  1 EMax= 4.72D-16
 Solved reduced A of dimension   282 with    51 vectors.
 End of Minotr F.D. properties file   721 does not exist.
 End of Minotr F.D. properties file   722 does not exist.
 End of Minotr F.D. properties file   788 does not exist.
   1 Symmetry operations used in ECPInt.
 ECPInt:  NShTT=    7260 NPrTT=   21936 LenC2=    7161 LenP2D=   17614.
 LDataN:  DoStor=T MaxTD1= 8 Len=  415
 Calling FoFJK, ICntrl=    100147 FMM=F ISym2X=0 I1Cent= 0 IOpClX= 0 NMat=1 NMatS=1 NMatT=0.
 -------------------------------------------------------------------
 Center     Atomic                   Forces (Hartrees/Bohr)
 Number     Number              X              Y              Z
 -------------------------------------------------------------------
      1        6           0.000080326    0.000582311    0.000244989
      2        6          -0.000002615   -0.000113150    0.000118576
      3        6           0.000075031   -0.000638623    0.000017037
      4        6          -0.000176562    0.000040200   -0.000302018
      5        1           0.000108941   -0.000084385    0.000091320
      6        6          -0.000390545    0.000112278    0.000107514
      7        6           0.000110219    0.000073727    0.000073492
      8        6          -0.000176347    0.000073460   -0.000297057
      9        1          -0.000153270   -0.000045095    0.000093415
     10        1          -0.000373103   -0.000150190    0.000421756
     11        6           0.000277580   -0.000065959   -0.000308576
     12        1           0.000060668   -0.000018362   -0.000215481
     13        1           0.000035581    0.000037625    0.000156650
     14        1           0.000165938    0.000041833   -0.000074592
     15        1           0.000569113    0.000086782   -0.000086070
     16        1          -0.000210956    0.000067549   -0.000040956
 -------------------------------------------------------------------
 Cartesian Forces:  Max     0.000638623 RMS     0.000222418
 -----------------------------------------------------------------------------------------------
                       Internal Coordinate Forces (Hartree/Bohr or radian)
  Cent   Atom   N1       Length/X         N2         Alpha/Y        N3         Beta/Z          J
 -----------------------------------------------------------------------------------------------
      1  C 
      2  C        1  -0.000248(     1)
      3  C        1   0.000779(     2)      2  -0.003825(    16)
      4  C        1   0.000371(     3)      2  -0.002597(    17)      3  -0.000593(    30)     0
      5  H        2  -0.000053(     4)      1   0.000286(    18)      3   0.000271(    31)     0
      6  C        2  -0.000455(     5)      1  -0.001438(    19)      5   0.000148(    32)     0
      7  C        3   0.000198(     6)      1  -0.000552(    20)      2  -0.000079(    33)     0
      8  C        3   0.000370(     7)      1   0.002569(    21)      7   0.000393(    34)     0
      9  H        4  -0.000029(     8)      1   0.000145(    22)      2  -0.000446(    35)     0
     10  H        4   0.000318(     9)      1  -0.000456(    23)      9  -0.000749(    36)     0
     11  C        6   0.000238(    10)      2  -0.000557(    24)      1   0.000048(    37)     0
     12  H        6  -0.000212(    11)      2   0.000148(    25)     11   0.000033(    38)     0
     13  H        7  -0.000053(    12)      3   0.000286(    26)      1   0.000122(    39)     0
     14  H        8  -0.000030(    13)      3   0.000142(    27)      1  -0.000441(    40)     0
     15  H        8   0.000319(    14)      3  -0.000455(    28)     14  -0.000748(    41)     0
     16  H       11  -0.000212(    15)      6  -0.000150(    29)      2  -0.000030(    42)     0
 -----------------------------------------------------------------------------------------------
 Internal  Forces:  Max     0.003824918 RMS     0.000912968

 GradGradGradGradGradGradGradGradGradGradGradGradGradGradGradGradGradGrad
 Berny optimization.
 Search for a saddle point.
 Step number   1 out of a maximum of   40
 All quantities printed in internal units (Hartrees-Bohrs-Radians)
 Swapping is turned off.
 Second derivative matrix not updated -- analytic derivatives used.
 ITU=  0
     Eigenvalues ---   -0.38664   0.02547   0.03038   0.04740   0.06537
     Eigenvalues ---    0.07053   0.09249   0.12443   0.18407   0.19508
     Eigenvalues ---    0.22166   0.23070   0.26908   0.30955   0.35937
     Eigenvalues ---    0.40125   0.43491   0.47807   0.55407   0.56593
     Eigenvalues ---    0.69335   0.70869   0.71532   0.74222   0.76462
     Eigenvalues ---    0.79966   0.97920   2.54565   3.22203  35.56491
 Eigenvectors required to have negative eigenvalues:
                          A8        D14       A4        D9        R4
   1                    0.47753  -0.43792  -0.43142  -0.40570  -0.22563
                          D4        R3        D10       D8        R2
   1                   -0.21778   0.19376  -0.16315  -0.12396   0.10876
 RFO step:  Lambda0=3.033953496D-05 Lambda=-5.53974128D-05.
 Linear search not attempted -- option 19 set.
 Variable       Old X    -DE/DX   Delta X   Delta X   Delta X     New X
                                 (Linear)    (Quad)   (Total)
    R2        2.65592  -0.00005   0.00000  -0.00041  -0.00041   2.65551
    R3        2.66851   0.00078   0.00000  -0.00085  -0.00085   2.66766
    R4        2.69064   0.00074   0.00000   0.00245   0.00245   2.69309
    R5        2.04758  -0.00011   0.00000  -0.00017  -0.00017   2.04740
    R6        2.60882  -0.00046   0.00000  -0.00025  -0.00025   2.60857
    R9        2.03739  -0.00006   0.00000   0.00007   0.00007   2.03745
   R10        2.05641   0.00064   0.00000   0.00117   0.00117   2.05757
   R11        2.67159   0.00024   0.00000  -0.00022  -0.00022   2.67137
   R12        2.04654  -0.00042   0.00000  -0.00057  -0.00057   2.04597
    A3        2.10014  -0.00438   0.00000   0.00097   0.00097   2.10112
    A4        2.32753  -0.00260   0.00000  -0.00062  -0.00062   2.32690
    A5        2.12272   0.00057   0.00000   0.00125   0.00125   2.12398
    A6        2.04369  -0.00144   0.00000  -0.00019  -0.00019   2.04350
    A8        1.85436   0.00257   0.00000  -0.00055  -0.00055   1.85381
    A9        2.05868   0.00029   0.00000  -0.00057  -0.00057   2.05811
   A10        2.14752  -0.00091   0.00000  -0.00394  -0.00394   2.14358
   A11        2.12056  -0.00056   0.00000   0.00025   0.00025   2.12081
   A12        2.08833   0.00015   0.00000   0.00057   0.00057   2.08890
   A16        2.07350  -0.00015   0.00000  -0.00082  -0.00082   2.07268
    D4        3.08220  -0.00059   0.00000  -0.00490  -0.00490   3.07730
    D5        3.01926   0.00039   0.00000   0.00568   0.00568   3.02494
    D6        3.04939   0.00015   0.00000   0.00022   0.00022   3.04960
    D7        0.32079  -0.00008   0.00000  -0.00862  -0.00862   0.31217
    D8       -3.09663   0.00039   0.00000   0.00388   0.00388  -3.09275
    D9       -2.11084  -0.00045   0.00000   0.01587   0.01587  -2.09497
   D10        2.73204  -0.00150   0.00000  -0.01814  -0.01814   2.71390
   D11        0.01866   0.00005   0.00000  -0.00056  -0.00056   0.01810
   D12       -3.09819   0.00003   0.00000   0.00019   0.00019  -3.09800
   D14        0.97737  -0.00044   0.00000   0.01155   0.01155   0.98891
   D16       -3.10424  -0.00003   0.00000  -0.00232  -0.00232  -3.10656
         Item               Value     Threshold  Converged?
 Maximum Force            0.004377     0.000450     NO 
 RMS     Force            0.001176     0.000300     NO 
 Maximum Displacement     0.018143     0.001800     NO 
 RMS     Displacement     0.005461     0.001200     NO 
 Predicted change in Energy=-1.255038D-05
 GradGradGradGradGradGradGradGradGradGradGradGradGradGradGradGradGradGrad

 ---------------------------------------------------------------------------------------------------
                            Z-MATRIX (ANGSTROMS AND DEGREES)
   CD    Cent   Atom    N1       Length/X        N2       Alpha/Y        N3        Beta/Z          J
 ---------------------------------------------------------------------------------------------------
      1      1  C 
      2      2  C        1   1.405236(     1)
      3      3  C        1   1.411662(     2)      2  120.385(    16)
      4      4  C        1   1.425120(     3)      2  133.322(    17)      3  176.317(    30)      0
      5      5  H        2   1.083440(     4)      1  121.695(    18)      3  173.316(    31)      0
      6      6  C        2   1.380397(     5)      1  117.084(    19)      5  174.729(    32)      0
      7      7  C        3   1.405236(     6)      1  120.385(    20)      2   17.886(    33)      0
      8      8  C        3   1.425120(     7)      1  106.215(    21)      7 -177.202(    34)      0
      9      9  H        4   1.078174(     8)      1  117.921(    22)      2 -120.033(    35)      0
     10     10  H        4   1.088821(     9)      1  122.818(    23)      9  155.495(    36)      0
     11     11  C        6   1.413626(    10)      2  121.514(    24)      1    1.037(    37)      0
     12     12  H        6   1.082681(    11)      2  119.685(    25)     11 -177.502(    38)      0
     13     13  H        7   1.083440(    12)      3  121.695(    26)      1  173.316(    39)      0
     14     14  H        8   1.078174(    13)      3  117.921(    27)      1   56.660(    40)      0
     15     15  H        8   1.088821(    14)      3  122.818(    28)     14  155.495(    41)      0
     16     16  H       11   1.082681(    15)      6  118.756(    29)      2 -177.993(    42)      0
 ---------------------------------------------------------------------------------------------------
                         Z-Matrix orientation:                         
 ---------------------------------------------------------------------
 Center     Atomic      Atomic             Coordinates (Angstroms)
 Number     Number       Type             X           Y           Z
 ---------------------------------------------------------------------
      1          6           0        0.000000    0.000000    0.000000
      2          6           0        0.000000    0.000000    1.405236
      3          6           0        1.217764    0.000000   -0.714032
      4          6           0       -1.034650   -0.066608   -0.977768
      5          1           0       -0.915587    0.107290    1.974473
      6          6           0        1.202369   -0.254565    2.033726
      7          6           0        2.414435   -0.372300   -0.078377
      8          6           0        0.913517    0.483355   -2.019701
      9          1           0       -1.021738   -0.892245   -1.671033
     10          1           0       -2.007473    0.402736   -0.840424
     11          6           0        2.387205   -0.483129    1.297342
     12          1           0        1.239223   -0.321640    3.113699
     13          1           0        3.340933   -0.482985   -0.629004
     14          1           0        0.445042    1.450816   -2.103434
     15          1           0        1.444585    0.151482   -2.910407
     16          1           0        3.298852   -0.711081    1.835055
 ---------------------------------------------------------------------
                    Distance matrix (angstroms):
                    1          2          3          4          5
     1  C    0.000000
     2  C    1.405236   0.000000
     3  C    1.411662   2.444227   0.000000
     4  C    1.425120   2.598777   2.268780   0.000000
     5  H    2.179072   1.083440   3.433767   2.959753   0.000000
     6  C    2.376245   1.380397   2.759569   3.756152   2.149463
     7  C    2.444227   2.858183   1.405236   3.577505   3.941224
     8  C    2.268774   3.577476   1.425120   2.276717   4.409135
     9  H    2.152302   3.362065   2.593708   1.078174   3.781541
    10  H    2.213245   3.038935   3.252740   1.088821   3.033669
    11  C    2.759575   2.437991   2.376264   4.130219   3.422797
    12  H    3.366637   2.134941   3.841281   4.687818   2.474878
    13  H    3.433767   3.941224   2.179072   4.409165   5.024389
    14  H    2.593716   3.822786   2.152302   2.399831   4.503965
    15  H    3.252728   4.553520   2.213245   3.151074   5.425349
    16  H    3.841287   3.401883   3.366661   5.206396   4.295424
                    6          7          8          9         10
     6  C    0.000000
     7  C    2.438020   0.000000
     8  C    4.130161   2.598776   0.000000
     9  H    4.367898   3.822850   2.399804   0.000000
    10  H    4.358425   4.553533   3.151091   1.827173   0.000000
    11  C    1.413626   1.380444   3.756144   4.538669   4.966688
    12  H    1.082681   3.401916   5.206332   5.322706   5.167285
    13  H    3.422830   1.083440   2.959763   4.504023   5.425371
    14  H    4.538498   3.362011   1.078174   2.797919   2.951016
    15  H    4.966688   3.038972   1.088821   2.950960   4.032947
    16  H    2.154789   2.134991   4.687818   5.567133   6.046144
                   11         12         13         14         15
    11  C    0.000000
    12  H    2.154784   0.000000
    13  H    2.149513   4.295468   0.000000
    14  H    4.367770   5.566938   3.781496   0.000000
    15  H    4.358487   6.046144   3.033724   1.827173   0.000000
    16  H    1.082681   2.455334   2.474952   5.322567   5.167371
                   16
    16  H    0.000000
 Symmetry turned off by external request.
 Stoichiometry    C8H8
 Framework group  C1[X(C8H8)]
 Deg. of freedom    42
 Full point group                 C1      NOp   1
 Rotational constants (GHZ):           3.8297203           2.2228485           1.4562191
 Standard basis: def2TZVP (5D, 7F)
 The following finite field(s) will be applied:
 An electric field of             -0.0012  0.0004 -0.0021
   296 basis functions,   472 primitive gaussians,   336 cartesian basis functions
    28 alpha electrons       28 beta electrons
       nuclear repulsion energy       329.6872232823 Hartrees.
 NAtoms=   16 NActive=   16 NUniq=   16 SFac= 1.00D+00 NAtFMM=   60 NAOKFM=F Big=F
 Integral buffers will be    131072 words long.
 Raffenetti 2 integral format.
 Two-electron integral symmetry is turned off.
 One-electron integrals computed using PRISM.
   1 Symmetry operations used in ECPInt.
 ECPInt:  NShTT=    7260 NPrTT=   21936 LenC2=    7161 LenP2D=   17614.
 LDataN:  DoStor=T MaxTD1= 6 Len=  172
 NBasis=   296 RedAO= T EigKep=  1.23D-05  NBF=   296
 NBsUse=   296 1.00D-06 EigRej= -1.00D+00 NBFU=   296
 The nuclear repulsion energy is now       329.5519295924 hartrees.
 Initial guess from the checkpoint file:  "checkpoint.chk"
 B after Tr=    -0.000749   -0.002928   -0.000432
         Rot=    0.999997    0.001274   -0.000300   -0.002085 Ang=   0.28 deg.
 Requested convergence on RMS density matrix=1.00D-08 within 128 cycles.
 Requested convergence on MAX density matrix=1.00D-06.
 Requested convergence on             energy=1.00D-06.
 No special actions if energy rises.
 SCF Done:  E(RB3LYP) =  -309.678558743     A.U. after   10 cycles
            NFock= 10  Conv=0.38D-08     -V/T= 2.0054
   1 Symmetry operations used in ECPInt.
 ECPInt:  NShTT=    7260 NPrTT=   21936 LenC2=    7161 LenP2D=   17614.
 LDataN:  DoStor=T MaxTD1= 7 Len=  274
 Calling FoFJK, ICntrl=      2127 FMM=F ISym2X=0 I1Cent= 0 IOpClX= 0 NMat=1 NMatS=1 NMatT=0.
 -------------------------------------------------------------------
 Center     Atomic                   Forces (Hartrees/Bohr)
 Number     Number              X              Y              Z
 -------------------------------------------------------------------
      1        6          -0.000009487    0.000001791    0.000002251
      2        6           0.000007165    0.000003823    0.000003152
      3        6           0.000006805   -0.000003585   -0.000002961
      4        6          -0.000005236   -0.000007391    0.000001065
      5        1          -0.000000005   -0.000001900    0.000000359
      6        6           0.000003372   -0.000000376   -0.000003211
      7        6          -0.000009735    0.000003813    0.000038151
      8        6           0.000004522    0.000003672   -0.000008755
      9        1           0.000004978   -0.000003277   -0.000002023
     10        1          -0.000000535    0.000005551    0.000001730
     11        6           0.000001355    0.000003185   -0.000035078
     12        1           0.000000338    0.000000230    0.000000614
     13        1           0.000000005   -0.000002233    0.000002047
     14        1          -0.000004071    0.000002859    0.000006297
     15        1           0.000000499   -0.000006123   -0.000002122
     16        1           0.000000031   -0.000000040   -0.000001517
 -------------------------------------------------------------------
 Cartesian Forces:  Max     0.000038151 RMS     0.000008491
 -----------------------------------------------------------------------------------------------
                       Internal Coordinate Forces (Hartree/Bohr or radian)
  Cent   Atom   N1       Length/X         N2         Alpha/Y        N3         Beta/Z          J
 -----------------------------------------------------------------------------------------------
      1  C 
      2  C        1  -0.000036(     1)
      3  C        1  -0.000018(     2)      2  -0.000176(    16)
      4  C        1   0.000000(     3)      2  -0.000000(    17)      3  -0.000008(    30)     0
      5  H        2   0.000000(     4)      1   0.000001(    18)      3   0.000020(    31)     0
      6  C        2  -0.000014(     5)      1  -0.000182(    19)      5   0.000017(    32)     0
      7  C        3   0.000009(     6)      1  -0.000108(    20)      2  -0.000024(    33)     0
      8  C        3   0.000004(     7)      1  -0.000002(    21)      7   0.000001(    34)     0
      9  H        4   0.000004(     8)      1  -0.000009(    22)      2   0.000002(    35)     0
     10  H        4   0.000003(     9)      1  -0.000007(    23)      9   0.000006(    36)     0
     11  C        6   0.000020(    10)      2  -0.000085(    24)      1   0.000006(    37)     0
     12  H        6   0.000001(    11)      2   0.000001(    25)     11  -0.000001(    38)     0
     13  H        7  -0.000001(    12)      3   0.000005(    26)      1  -0.000003(    39)     0
     14  H        8   0.000004(    13)      3  -0.000013(    27)      1   0.000003(    40)     0
     15  H        8   0.000004(    14)      3  -0.000006(    28)     14   0.000008(    41)     0
     16  H       11  -0.000001(    15)      6   0.000003(    29)      2   0.000000(    42)     0
 -----------------------------------------------------------------------------------------------
 Internal  Forces:  Max     0.000181911 RMS     0.000045582

 GradGradGradGradGradGradGradGradGradGradGradGradGradGradGradGradGradGrad
 Berny optimization.
 Search for a saddle point.
 Step number   2 out of a maximum of   40
 All quantities printed in internal units (Hartrees-Bohrs-Radians)
 Swapping is turned off.
 Update second derivatives using D2CorN and points    1    2
 ITU=  0  0
     Eigenvalues ---   -0.38663   0.02535   0.03036   0.04744   0.06540
     Eigenvalues ---    0.07070   0.09250   0.12441   0.18407   0.19508
     Eigenvalues ---    0.22166   0.23072   0.26907   0.30955   0.35937
     Eigenvalues ---    0.40124   0.43491   0.47806   0.55407   0.56591
     Eigenvalues ---    0.69334   0.70869   0.71533   0.74222   0.76462
     Eigenvalues ---    0.79966   0.97920   2.54565   3.22203  35.56486
 Eigenvectors required to have negative eigenvalues:
                          A8        D14       A4        D9        R4
   1                    0.47753  -0.43791  -0.43142  -0.40569  -0.22565
                          D4        R3        D10       D8        R2
   1                   -0.21770   0.19375  -0.16330  -0.12396   0.10875
 RFO step:  Lambda0=2.860323089D-12 Lambda= 0.00000000D+00.
 Linear search not attempted -- option 19 set.
 Variable       Old X    -DE/DX   Delta X   Delta X   Delta X     New X
                                 (Linear)    (Quad)   (Total)
    R2        2.65551  -0.00003   0.00000   0.00000   0.00000   2.65551
    R3        2.66766  -0.00002   0.00000  -0.00000  -0.00000   2.66765
    R4        2.69309   0.00000   0.00000   0.00002   0.00002   2.69310
    R5        2.04740  -0.00000   0.00000  -0.00000  -0.00000   2.04740
    R6        2.60857  -0.00001   0.00000  -0.00000  -0.00000   2.60857
    R9        2.03745   0.00001   0.00000   0.00001   0.00001   2.03746
   R10        2.05757   0.00001   0.00000   0.00001   0.00001   2.05758
   R11        2.67137   0.00002   0.00000   0.00000   0.00000   2.67137
   R12        2.04597  -0.00000   0.00000   0.00000   0.00000   2.04597
    A3        2.10112  -0.00028   0.00000   0.00000   0.00000   2.10112
    A4        2.32690  -0.00000   0.00000  -0.00002  -0.00002   2.32689
    A5        2.12398   0.00001   0.00000  -0.00000  -0.00000   2.12398
    A6        2.04350  -0.00018   0.00000   0.00000   0.00000   2.04351
    A8        1.85381  -0.00000   0.00000  -0.00000  -0.00000   1.85381
    A9        2.05811  -0.00002   0.00000  -0.00003  -0.00003   2.05808
   A10        2.14358  -0.00001   0.00000  -0.00000  -0.00000   2.14358
   A11        2.12081  -0.00009   0.00000  -0.00000  -0.00000   2.12081
   A12        2.08890   0.00000   0.00000  -0.00000  -0.00000   2.08890
   A16        2.07268   0.00000   0.00000  -0.00000  -0.00000   2.07268
    D4        3.07730  -0.00001   0.00000  -0.00025  -0.00025   3.07705
    D5        3.02494   0.00002   0.00000   0.00007   0.00007   3.02502
    D6        3.04960   0.00002   0.00000   0.00006   0.00006   3.04967
    D7        0.31217  -0.00002   0.00000  -0.00017  -0.00017   0.31200
    D8       -3.09275   0.00000   0.00000   0.00002   0.00002  -3.09273
    D9       -2.09497   0.00000   0.00000   0.00014   0.00014  -2.09483
   D10        2.71390   0.00001   0.00000   0.00013   0.00013   2.71403
   D11        0.01810   0.00001   0.00000  -0.00003  -0.00003   0.01806
   D12       -3.09800  -0.00000   0.00000   0.00000   0.00000  -3.09800
   D14        0.98891   0.00000   0.00000  -0.00006  -0.00006   0.98885
   D16       -3.10656   0.00000   0.00000  -0.00001  -0.00001  -3.10657
         Item               Value     Threshold  Converged?
 Maximum Force            0.000284     0.000450     YES
 RMS     Force            0.000065     0.000300     YES
 Maximum Displacement     0.000255     0.001800     YES
 RMS     Displacement     0.000070     0.001200     YES
 Predicted change in Energy=-4.821256D-09
 Optimization completed.
    -- Stationary point found.
                       ----------------------------
                       !   Optimized Parameters   !
                       ! (Angstroms and Degrees)  !
 ----------------------                            ----------------------
 !      Name          Value   Derivative information (Atomic Units)     !
 ------------------------------------------------------------------------
 !       R2          1.4052   -DE/DX =    0.0                           !
 !       R3          1.4117   -DE/DX =    0.0                           !
 !       R4          1.4251   -DE/DX =    0.0                           !
 !       R5          1.0834   -DE/DX =    0.0                           !
 !       R6          1.3804   -DE/DX =    0.0                           !
 !       R9          1.0782   -DE/DX =    0.0                           !
 !       R10         1.0888   -DE/DX =    0.0                           !
 !       R11         1.4136   -DE/DX =    0.0                           !
 !       R12         1.0827   -DE/DX =    0.0                           !
 !       A3        120.3851   -DE/DX =   -0.0003                        !
 !       A4        133.3218   -DE/DX =    0.0                           !
 !       A5        121.695    -DE/DX =    0.0                           !
 !       A6        117.084    -DE/DX =   -0.0002                        !
 !       A8        106.2154   -DE/DX =    0.0                           !
 !       A9        117.9211   -DE/DX =    0.0                           !
 !       A10       122.818    -DE/DX =    0.0                           !
 !       A11       121.5137   -DE/DX =   -0.0001                        !
 !       A12       119.6851   -DE/DX =    0.0                           !
 !       A16       118.7557   -DE/DX =    0.0                           !
 !       D4        176.3165   -DE/DX =    0.0                           !
 !       D5        173.3165   -DE/DX =    0.0                           !
 !       D6        174.7294   -DE/DX =    0.0                           !
 !       D7         17.8859   -DE/DX =    0.0                           !
 !       D8       -177.2015   -DE/DX =    0.0                           !
 !       D9       -120.0329   -DE/DX =    0.0                           !
 !       D10       155.4949   -DE/DX =    0.0                           !
 !       D11         1.0368   -DE/DX =    0.0                           !
 !       D12      -177.5023   -DE/DX =    0.0                           !
 !       D14        56.6605   -DE/DX =    0.0                           !
 !       D16      -177.9925   -DE/DX =    0.0                           !
 ------------------------------------------------------------------------
 GradGradGradGradGradGradGradGradGradGradGradGradGradGradGradGradGradGrad

 ---------------------------------------------------------------------------------------------------
                            Z-MATRIX (ANGSTROMS AND DEGREES)
   CD    Cent   Atom    N1       Length/X        N2       Alpha/Y        N3        Beta/Z          J
 ---------------------------------------------------------------------------------------------------
      1      1  C 
      2      2  C        1   1.405236(     1)
      3      3  C        1   1.411662(     2)      2  120.385(    16)
      4      4  C        1   1.425120(     3)      2  133.322(    17)      3  176.317(    30)      0
      5      5  H        2   1.083440(     4)      1  121.695(    18)      3  173.316(    31)      0
      6      6  C        2   1.380397(     5)      1  117.084(    19)      5  174.729(    32)      0
      7      7  C        3   1.405236(     6)      1  120.385(    20)      2   17.886(    33)      0
      8      8  C        3   1.425120(     7)      1  106.215(    21)      7 -177.202(    34)      0
      9      9  H        4   1.078174(     8)      1  117.921(    22)      2 -120.033(    35)      0
     10     10  H        4   1.088821(     9)      1  122.818(    23)      9  155.495(    36)      0
     11     11  C        6   1.413626(    10)      2  121.514(    24)      1    1.037(    37)      0
     12     12  H        6   1.082681(    11)      2  119.685(    25)     11 -177.502(    38)      0
     13     13  H        7   1.083440(    12)      3  121.695(    26)      1  173.316(    39)      0
     14     14  H        8   1.078174(    13)      3  117.921(    27)      1   56.660(    40)      0
     15     15  H        8   1.088821(    14)      3  122.818(    28)     14  155.495(    41)      0
     16     16  H       11   1.082681(    15)      6  118.756(    29)      2 -177.993(    42)      0
 ---------------------------------------------------------------------------------------------------
                         Z-Matrix orientation:                         
 ---------------------------------------------------------------------
 Center     Atomic      Atomic             Coordinates (Angstroms)
 Number     Number       Type             X           Y           Z
 ---------------------------------------------------------------------
      1          6           0        0.000000    0.000000    0.000000
      2          6           0        0.000000    0.000000    1.405236
      3          6           0        1.217764    0.000000   -0.714032
      4          6           0       -1.034650   -0.066608   -0.977768
      5          1           0       -0.915587    0.107290    1.974473
      6          6           0        1.202369   -0.254565    2.033726
      7          6           0        2.414435   -0.372300   -0.078377
      8          6           0        0.913517    0.483355   -2.019701
      9          1           0       -1.021738   -0.892245   -1.671033
     10          1           0       -2.007473    0.402736   -0.840424
     11          6           0        2.387205   -0.483129    1.297342
     12          1           0        1.239223   -0.321640    3.113699
     13          1           0        3.340933   -0.482985   -0.629004
     14          1           0        0.445042    1.450816   -2.103434
     15          1           0        1.444585    0.151482   -2.910407
     16          1           0        3.298852   -0.711081    1.835055
 ---------------------------------------------------------------------
                    Distance matrix (angstroms):
                    1          2          3          4          5
     1  C    0.000000
     2  C    1.405236   0.000000
     3  C    1.411662   2.444227   0.000000
     4  C    1.425120   2.598777   2.268780   0.000000
     5  H    2.179072   1.083440   3.433767   2.959753   0.000000
     6  C    2.376245   1.380397   2.759569   3.756152   2.149463
     7  C    2.444227   2.858183   1.405236   3.577505   3.941224
     8  C    2.268774   3.577476   1.425120   2.276717   4.409135
     9  H    2.152302   3.362065   2.593708   1.078174   3.781541
    10  H    2.213245   3.038935   3.252740   1.088821   3.033669
    11  C    2.759575   2.437991   2.376264   4.130219   3.422797
    12  H    3.366637   2.134941   3.841281   4.687818   2.474878
    13  H    3.433767   3.941224   2.179072   4.409165   5.024389
    14  H    2.593716   3.822786   2.152302   2.399831   4.503965
    15  H    3.252728   4.553520   2.213245   3.151074   5.425349
    16  H    3.841287   3.401883   3.366661   5.206396   4.295424
                    6          7          8          9         10
     6  C    0.000000
     7  C    2.438020   0.000000
     8  C    4.130161   2.598776   0.000000
     9  H    4.367898   3.822850   2.399804   0.000000
    10  H    4.358425   4.553533   3.151091   1.827173   0.000000
    11  C    1.413626   1.380444   3.756144   4.538669   4.966688
    12  H    1.082681   3.401916   5.206332   5.322706   5.167285
    13  H    3.422830   1.083440   2.959763   4.504023   5.425371
    14  H    4.538498   3.362011   1.078174   2.797919   2.951016
    15  H    4.966688   3.038972   1.088821   2.950960   4.032947
    16  H    2.154789   2.134991   4.687818   5.567133   6.046144
                   11         12         13         14         15
    11  C    0.000000
    12  H    2.154784   0.000000
    13  H    2.149513   4.295468   0.000000
    14  H    4.367770   5.566938   3.781496   0.000000
    15  H    4.358487   6.046144   3.033724   1.827173   0.000000
    16  H    1.082681   2.455334   2.474952   5.322567   5.167371
                   16
    16  H    0.000000
 Symmetry turned off by external request.
 Stoichiometry    C8H8
 Framework group  C1[X(C8H8)]
 Deg. of freedom    42
 Full point group                 C1      NOp   1
 Rotational constants (GHZ):           3.8297203           2.2228485           1.4562191
 1\1\GINC-BHC0026\PTS\RB3LYP\def2TZVP\C8H8\DHANAWAY\10-Jun-2022\1\\# Op
 t=(TS, CalcFC, noeigentest, Z-matrix, MaxStep=10) Field=read NoSymm B3
 LYP/Def2TZVP freq=noraman pop=none\\ts_zmat_initalOpt\\0,1\C\C,1,R2\C,
 1,R3,2,A3\C,1,R4,2,A4,3,D4,0\H,2,R5,1,A5,3,D5,0\C,2,R6,1,A6,5,D6,0\C,3
 ,R2,1,A3,2,D7,0\C,3,R4,1,A8,7,D8,0\H,4,R9,1,A9,2,D9,0\H,4,R10,1,A10,9,
 D10,0\C,6,R11,2,A11,1,D11,0\H,6,R12,2,A12,11,D12,0\H,7,R5,3,A5,1,D5,0\
 H,8,R9,3,A9,1,D14,0\H,8,R10,3,A10,14,D10,0\H,11,R12,6,A16,2,D16,0\\R2=
 1.40523572\R3=1.41166231\R4=1.42512025\R5=1.08343978\R6=1.38039707\R9=
 1.07817445\R10=1.08882055\R11=1.41362618\R12=1.08268069\A3=120.3851102
 2\A4=133.32176737\A5=121.6950423\A6=117.08404405\A8=106.21537167\A9=11
 7.92109068\A10=122.81799682\A11=121.51370391\A12=119.68507116\A16=118.
 7557123\D4=176.31652832\D5=173.31648716\D6=174.72939057\D7=17.88591134
 \D8=-177.20154284\D9=-120.03289046\D10=155.49489616\D11=1.03677645\D12
 =-177.50228725\D14=56.66048051\D16=-177.99252355\\Version=ES64L-G16Rev
 A.03\HF=-309.6785587\RMSD=3.781e-09\RMSF=8.491e-06\Dipole=0.1224273,-0
 .038731,0.2093726\PG=C01 [X(C8H8)]\\@


 YOU KNOW YOU'VE SPOKEN TOO LONG WHEN THE AUDIENCE STOPS LOOKING AT
 THEIR WATCHES AND STARTS SHAKING THEM.
 Job cpu time:       0 days  1 hours 33 minutes 27.8 seconds.
 Elapsed time:       0 days  0 hours  7 minutes 48.1 seconds.
 File lengths (MBytes):  RWF=    123 Int=      0 D2E=      0 Chk=     32 Scr=      1
 Normal termination of Gaussian 16 at Fri Jun 10 02:52:12 2022.
 Link1:  Proceeding to internal job step number  2.
 --------------------------------------------------------------------
 #N Geom=AllCheck Guess=TCheck SCRF=Check GenChk RB3LYP/def2TZVP Freq
 --------------------------------------------------------------------
 1/5=1,8=10,10=4,11=1,29=7,30=1,38=1,40=1/1,3;
 2/12=2,15=1,40=1/2;
 3/5=44,7=101,11=2,14=-4,25=1,30=1,70=2,71=2,74=-5,116=1,140=1/1,2,3;
 4/5=101/1;
 5/5=2,38=6,98=1/2;
 8/6=4,10=90,11=11/1;
 11/6=1,8=1,9=11,15=111,16=1,31=1/1,2,10;
 10/6=1,31=1/2;
 7/8=1,10=1,25=1,30=1/1,2,3,16;
 1/5=1,8=10,10=4,11=1,30=1/3;
 99//99;
 Structure from the checkpoint file:  "checkpoint.chk"
 -----------------
 ts_zmat_initalOpt
 -----------------
 Charge =  0 Multiplicity = 1
 Z-Matrix found in chk file.
 C
 C,1,R2
 C,1,R3,2,A3
 C,1,R4,2,A4,3,D4,0
 H,2,R5,1,A5,3,D5,0
 C,2,R6,1,A6,5,D6,0
 C,3,R2,1,A3,2,D7,0
 C,3,R4,1,A8,7,D8,0
 H,4,R9,1,A9,2,D9,0
 H,4,R10,1,A10,9,D10,0
 C,6,R11,2,A11,1,D11,0
 H,6,R12,2,A12,11,D12,0
 H,7,R5,3,A5,1,D5,0
 H,8,R9,3,A9,1,D14,0
 H,8,R10,3,A10,14,D10,0
 H,11,R12,6,A16,2,D16,0
      Variables:
 R2=1.40523572
 R3=1.41166231
 R4=1.42512025
 R5=1.08343978
 R6=1.38039707
 R9=1.07817445
 R10=1.08882055
 R11=1.41362618
 R12=1.08268069
 A3=120.38511022
 A4=133.32176737
 A5=121.6950423
 A6=117.08404405
 A8=106.21537167
 A9=117.92109068
 A10=122.81799682
 A11=121.51370391
 A12=119.68507116
 A16=118.7557123
 D4=176.31652832
 D5=173.31648716
 D6=174.72939057
 D7=17.88591134
 D8=-177.20154284
 D9=-120.03289046
 D10=155.49489616
 D11=1.03677645
 D12=-177.50228725
 D14=56.66048051
 D16=-177.99252355
 Recover connectivity data from disk.

 GradGradGradGradGradGradGradGradGradGradGradGradGradGradGradGradGradGrad
 Berny optimization.
 Initialization pass.
                       ----------------------------
                       !    Initial Parameters    !
                       ! (Angstroms and Degrees)  !
 ----------------------                            ----------------------
 !      Name          Value   Derivative information (Atomic Units)     !
 ------------------------------------------------------------------------
 !       R2          1.4052   calculate D2E/DX2 analytically            !
 !       R3          1.4117   calculate D2E/DX2 analytically            !
 !       R4          1.4251   calculate D2E/DX2 analytically            !
 !       R5          1.0834   calculate D2E/DX2 analytically            !
 !       R6          1.3804   calculate D2E/DX2 analytically            !
 !       R9          1.0782   calculate D2E/DX2 analytically            !
 !       R10         1.0888   calculate D2E/DX2 analytically            !
 !       R11         1.4136   calculate D2E/DX2 analytically            !
 !       R12         1.0827   calculate D2E/DX2 analytically            !
 !       A3        120.3851   calculate D2E/DX2 analytically            !
 !       A4        133.3218   calculate D2E/DX2 analytically            !
 !       A5        121.695    calculate D2E/DX2 analytically            !
 !       A6        117.084    calculate D2E/DX2 analytically            !
 !       A8        106.2154   calculate D2E/DX2 analytically            !
 !       A9        117.9211   calculate D2E/DX2 analytically            !
 !       A10       122.818    calculate D2E/DX2 analytically            !
 !       A11       121.5137   calculate D2E/DX2 analytically            !
 !       A12       119.6851   calculate D2E/DX2 analytically            !
 !       A16       118.7557   calculate D2E/DX2 analytically            !
 !       D4        176.3165   calculate D2E/DX2 analytically            !
 !       D5        173.3165   calculate D2E/DX2 analytically            !
 !       D6        174.7294   calculate D2E/DX2 analytically            !
 !       D7         17.8859   calculate D2E/DX2 analytically            !
 !       D8       -177.2015   calculate D2E/DX2 analytically            !
 !       D9       -120.0329   calculate D2E/DX2 analytically            !
 !       D10       155.4949   calculate D2E/DX2 analytically            !
 !       D11         1.0368   calculate D2E/DX2 analytically            !
 !       D12      -177.5023   calculate D2E/DX2 analytically            !
 !       D14        56.6605   calculate D2E/DX2 analytically            !
 !       D16      -177.9925   calculate D2E/DX2 analytically            !
 ------------------------------------------------------------------------
 Trust Radius=1.00D-01 FncErr=1.00D-07 GrdErr=1.00D-07 EigMax=2.50D+02 EigMin=1.00D-04
 Number of steps in this run=      2 maximum allowed number of steps=      2.
 Search for a saddle point of order  1.
 GradGradGradGradGradGradGradGradGradGradGradGradGradGradGradGradGradGrad

                          Input orientation:                          
 ---------------------------------------------------------------------
 Center     Atomic      Atomic             Coordinates (Angstroms)
 Number     Number       Type             X           Y           Z
 ---------------------------------------------------------------------
      1          6           0        0.000000    0.000000    0.000000
      2          6           0        0.000000    0.000000    1.405236
      3          6           0        1.217764    0.000000   -0.714032
      4          6           0       -1.034650   -0.066608   -0.977768
      5          1           0       -0.915587    0.107290    1.974473
      6          6           0        1.202369   -0.254565    2.033726
      7          6           0        2.414435   -0.372300   -0.078377
      8          6           0        0.913517    0.483355   -2.019701
      9          1           0       -1.021738   -0.892245   -1.671033
     10          1           0       -2.007473    0.402736   -0.840424
     11          6           0        2.387205   -0.483129    1.297342
     12          1           0        1.239223   -0.321640    3.113699
     13          1           0        3.340933   -0.482985   -0.629004
     14          1           0        0.445042    1.450816   -2.103434
     15          1           0        1.444585    0.151482   -2.910407
     16          1           0        3.298852   -0.711081    1.835055
 ---------------------------------------------------------------------
                    Distance matrix (angstroms):
                    1          2          3          4          5
     1  C    0.000000
     2  C    1.405236   0.000000
     3  C    1.411662   2.444227   0.000000
     4  C    1.425120   2.598777   2.268780   0.000000
     5  H    2.179072   1.083440   3.433767   2.959753   0.000000
     6  C    2.376245   1.380397   2.759569   3.756152   2.149463
     7  C    2.444227   2.858183   1.405236   3.577505   3.941224
     8  C    2.268774   3.577476   1.425120   2.276717   4.409135
     9  H    2.152302   3.362065   2.593708   1.078174   3.781541
    10  H    2.213245   3.038935   3.252740   1.088821   3.033669
    11  C    2.759575   2.437991   2.376264   4.130219   3.422797
    12  H    3.366637   2.134941   3.841281   4.687818   2.474878
    13  H    3.433767   3.941224   2.179072   4.409165   5.024389
    14  H    2.593716   3.822786   2.152302   2.399831   4.503965
    15  H    3.252728   4.553520   2.213245   3.151074   5.425349
    16  H    3.841287   3.401883   3.366661   5.206396   4.295424
                    6          7          8          9         10
     6  C    0.000000
     7  C    2.438020   0.000000
     8  C    4.130161   2.598776   0.000000
     9  H    4.367898   3.822850   2.399804   0.000000
    10  H    4.358425   4.553533   3.151091   1.827173   0.000000
    11  C    1.413626   1.380444   3.756144   4.538669   4.966688
    12  H    1.082681   3.401916   5.206332   5.322706   5.167285
    13  H    3.422830   1.083440   2.959763   4.504023   5.425371
    14  H    4.538498   3.362011   1.078174   2.797919   2.951016
    15  H    4.966688   3.038972   1.088821   2.950960   4.032947
    16  H    2.154789   2.134991   4.687818   5.567133   6.046144
                   11         12         13         14         15
    11  C    0.000000
    12  H    2.154784   0.000000
    13  H    2.149513   4.295468   0.000000
    14  H    4.367770   5.566938   3.781496   0.000000
    15  H    4.358487   6.046144   3.033724   1.827173   0.000000
    16  H    1.082681   2.455334   2.474952   5.322567   5.167371
                   16
    16  H    0.000000
 Symmetry turned off by external request.
 Stoichiometry    C8H8
 Framework group  C1[X(C8H8)]
 Deg. of freedom    42
 Full point group                 C1      NOp   1
 Rotational constants (GHZ):           3.8297203           2.2228485           1.4562191
 Standard basis: def2TZVP (5D, 7F)
 The following finite field(s) will be applied:
 An electric field of             -0.0012  0.0004 -0.0021
   296 basis functions,   472 primitive gaussians,   336 cartesian basis functions
    28 alpha electrons       28 beta electrons
       nuclear repulsion energy       329.6872232823 Hartrees.
 NAtoms=   16 NActive=   16 NUniq=   16 SFac= 1.00D+00 NAtFMM=   60 NAOKFM=F Big=F
 Integral buffers will be    131072 words long.
 Raffenetti 2 integral format.
 Two-electron integral symmetry is turned off.
 One-electron integrals computed using PRISM.
   1 Symmetry operations used in ECPInt.
 ECPInt:  NShTT=    7260 NPrTT=   21936 LenC2=    7161 LenP2D=   17614.
 LDataN:  DoStor=T MaxTD1= 6 Len=  172
 NBasis=   296 RedAO= T EigKep=  1.23D-05  NBF=   296
 NBsUse=   296 1.00D-06 EigRej= -1.00D+00 NBFU=   296
 The nuclear repulsion energy is now       329.5519295924 hartrees.
 Initial guess from the checkpoint file:  "checkpoint.chk"
 B after Tr=     0.000000    0.000000    0.000000
         Rot=    1.000000    0.000000    0.000000    0.000000 Ang=   0.00 deg.
 Requested convergence on RMS density matrix=1.00D-08 within 128 cycles.
 Requested convergence on MAX density matrix=1.00D-06.
 Requested convergence on             energy=1.00D-06.
 No special actions if energy rises.
 SCF Done:  E(RB3LYP) =  -309.678558743     A.U. after    1 cycles
            NFock=  1  Conv=0.17D-08     -V/T= 2.0054
 DoSCS=F DFT=T ScalE2(SS,OS)=  1.000000  1.000000
 Range of M.O.s used for correlation:     1   296
 NBasis=   296 NAE=    28 NBE=    28 NFC=     0 NFV=     0
 NROrb=    296 NOA=    28 NOB=    28 NVA=   268 NVB=   268

 **** Warning!!: The largest alpha MO coefficient is  0.64695186D+02

   1 Symmetry operations used in ECPInt.
 ECPInt:  NShTT=    7260 NPrTT=   21936 LenC2=    7161 LenP2D=   17614.
 LDataN:  DoStor=T MaxTD1= 7 Len=  274
 Symmetrizing basis deriv contribution to polar:
 IMax=3 JMax=2 DiffMx= 0.00D+00
 G2DrvN: will do    17 centers at a time, making    1 passes.
 Calling FoFCou, ICntrl=  3107 FMM=F I1Cent=   0 AccDes= 0.00D+00.
 End of G2Drv F.D. properties file   721 does not exist.
 End of G2Drv F.D. properties file   722 does not exist.
 End of G2Drv F.D. properties file   788 does not exist.
          IDoAtm=1111111111111111
          Differentiating once with respect to electric field.
                with respect to dipole field.
          Differentiating once with respect to nuclear coordinates.
 Keep R1 ints in memory in canonical form, NReq=985231126.
          There are    51 degrees of freedom in the 1st order CPHF.  IDoFFX=6 NUNeed=     3.
     48 vectors produced by pass  0 Test12= 1.47D-14 1.96D-09 XBig12= 2.14D+02 9.80D+00.
 AX will form    48 AO Fock derivatives at one time.
     48 vectors produced by pass  1 Test12= 1.47D-14 1.96D-09 XBig12= 5.01D+01 1.29D+00.
     48 vectors produced by pass  2 Test12= 1.47D-14 1.96D-09 XBig12= 7.51D-01 1.33D-01.
     48 vectors produced by pass  3 Test12= 1.47D-14 1.96D-09 XBig12= 1.68D-03 4.33D-03.
     48 vectors produced by pass  4 Test12= 1.47D-14 1.96D-09 XBig12= 3.00D-06 1.92D-04.
     42 vectors produced by pass  5 Test12= 1.47D-14 1.96D-09 XBig12= 5.05D-09 8.56D-06.
      9 vectors produced by pass  6 Test12= 1.47D-14 1.96D-09 XBig12= 7.29D-12 3.94D-07.
      3 vectors produced by pass  7 Test12= 1.47D-14 1.96D-09 XBig12= 7.33D-15 9.47D-09.
 InvSVY:  IOpt=1 It=  1 EMax= 5.33D-15
 Solved reduced A of dimension   294 with    51 vectors.
 Isotropic polarizability for W=    0.000000       98.26 Bohr**3.
 End of Minotr F.D. properties file   721 does not exist.
 End of Minotr F.D. properties file   722 does not exist.
 End of Minotr F.D. properties file   788 does not exist.
   1 Symmetry operations used in ECPInt.
 ECPInt:  NShTT=    7260 NPrTT=   21936 LenC2=    7161 LenP2D=   17614.
 LDataN:  DoStor=T MaxTD1= 8 Len=  415
 Calling FoFJK, ICntrl=    100127 FMM=F ISym2X=0 I1Cent= 0 IOpClX= 0 NMat=1 NMatS=1 NMatT=0.
 Full mass-weighted force constant matrix:
 Low frequencies --- -626.8839   -2.7026   -0.0006   -0.0003    0.0001    2.9689
 Low frequencies ---    7.3909  224.8606  226.1173
 ******    1 imaginary frequencies (negative Signs) ****** 
 Diagonal vibrational polarizability:
        2.6435270       7.0018809       4.1566351
 Harmonic frequencies (cm**-1), IR intensities (KM/Mole), Raman scattering
 activities (A**4/AMU), depolarization ratios for plane and unpolarized
 incident light, reduced masses (AMU), force constants (mDyne/A),
 and normal coordinates:
                      1                      2                      3
                      A                      A                      A
 Frequencies --   -626.8839               224.8606               226.1159
 Red. masses --      2.1694                 2.8765                 3.2449
 Frc consts  --      0.5023                 0.0857                 0.0978
 IR Inten    --      7.4687                 0.9399                 5.0750
  Atom  AN      X      Y      Z        X      Y      Z        X      Y      Z
     1   6    -0.05   0.01  -0.04     0.00   0.03  -0.01     0.04   0.21   0.03
     2   6     0.00   0.03   0.00    -0.01  -0.14   0.00     0.01   0.11   0.03
     3   6    -0.01   0.01  -0.07    -0.01  -0.02  -0.01     0.03   0.21   0.01
     4   6    -0.13  -0.06   0.16    -0.07   0.20   0.05     0.05  -0.13   0.04
     5   1     0.00   0.04   0.00    -0.03  -0.25  -0.01     0.00   0.10   0.02
     6   6    -0.03   0.01  -0.01    -0.02  -0.13   0.01    -0.03  -0.14   0.01
     7   6    -0.00  -0.03  -0.00     0.03   0.13   0.03    -0.00   0.12   0.01
     8   6     0.21   0.03  -0.02     0.05  -0.19  -0.09    -0.03  -0.10  -0.09
     9   1     0.12   0.32  -0.27    -0.26   0.22   0.02     0.20  -0.28   0.22
    10   1    -0.21  -0.29   0.35     0.02   0.38   0.13    -0.05  -0.31  -0.05
    11   6     0.00   0.00  -0.03     0.04   0.12   0.02    -0.05  -0.14  -0.01
    12   1    -0.02  -0.01  -0.01    -0.05  -0.26   0.00    -0.07  -0.35  -0.00
    13   1    -0.00  -0.04  -0.00     0.04   0.25   0.03     0.00   0.10   0.01
    14   1    -0.34  -0.25  -0.10     0.11  -0.18  -0.28    -0.13  -0.17  -0.34
    15   1     0.45   0.22   0.06     0.04  -0.40  -0.02    -0.03  -0.31  -0.02
    16   1     0.00   0.02  -0.02     0.07   0.25   0.03    -0.09  -0.35  -0.03
                      4                      5                      6
                      A                      A                      A
 Frequencies --    397.1544               432.6373               525.9383
 Red. masses --      2.7301                 3.0026                 3.1274
 Frc consts  --      0.2537                 0.3311                 0.5097
 IR Inten    --      6.1640                 5.3532                 1.2547
  Atom  AN      X      Y      Z        X      Y      Z        X      Y      Z
     1   6     0.12  -0.10  -0.07    -0.13  -0.10   0.01     0.01   0.16   0.04
     2   6     0.02   0.11  -0.09     0.03   0.18   0.02    -0.06   0.11   0.02
     3   6     0.10  -0.10  -0.10    -0.09  -0.12   0.08     0.00  -0.16  -0.01
     4   6    -0.02   0.00   0.13    -0.06   0.00  -0.11     0.07  -0.03   0.03
     5   1    -0.03   0.33  -0.21     0.16   0.50   0.16    -0.07   0.06   0.02
     6   6    -0.09  -0.05   0.01     0.04  -0.09  -0.06    -0.08  -0.18  -0.07
     7   6     0.11   0.08   0.05     0.02   0.18   0.01     0.03  -0.11  -0.07
     8   6    -0.12   0.03  -0.04     0.07  -0.04   0.10    -0.00   0.01   0.08
     9   1    -0.24   0.07   0.05    -0.05  -0.01  -0.11     0.21  -0.15   0.18
    10   1     0.05   0.08   0.40    -0.02   0.11  -0.26    -0.02  -0.18  -0.06
    11   6    -0.06  -0.06   0.06     0.06  -0.09  -0.03     0.01   0.21  -0.05
    12   1    -0.16  -0.02   0.01     0.05  -0.08  -0.06    -0.09  -0.49  -0.09
    13   1     0.22   0.26   0.21     0.02   0.54  -0.07     0.04  -0.05  -0.06
    14   1    -0.15   0.04   0.20     0.07  -0.04   0.09     0.07   0.06   0.30
    15   1    -0.31   0.19  -0.21     0.23   0.03   0.17    -0.02   0.19   0.01
    16   1    -0.09  -0.04   0.12     0.07  -0.08  -0.04     0.05   0.50   0.02
                      7                      8                      9
                      A                      A                      A
 Frequencies --    577.5291               593.6214               653.8547
 Red. masses --      5.1827                 4.0366                 1.2854
 Frc consts  --      1.0185                 0.8381                 0.3238
 IR Inten    --      0.0231                 4.6419                19.8897
  Atom  AN      X      Y      Z        X      Y      Z        X      Y      Z
     1   6    -0.05   0.11  -0.11     0.07  -0.12   0.11     0.02   0.02  -0.00
     2   6     0.24   0.03  -0.05     0.01   0.01   0.18     0.01  -0.01  -0.04
     3   6    -0.09  -0.06  -0.12    -0.07  -0.08  -0.14    -0.02  -0.02   0.01
     4   6    -0.12  -0.03  -0.14     0.18   0.02   0.03    -0.07  -0.05   0.04
     5   1     0.26   0.06  -0.02    -0.00   0.31   0.10    -0.01  -0.06  -0.07
     6   6     0.12  -0.13   0.19    -0.02  -0.04   0.19     0.01   0.02  -0.02
     7   6    -0.17  -0.05   0.18    -0.15   0.06  -0.09    -0.04   0.02  -0.01
     8   6    -0.05   0.08  -0.16     0.07   0.05  -0.16     0.08   0.05  -0.02
     9   1     0.04  -0.08  -0.07     0.32   0.15  -0.12    -0.33  -0.39   0.43
    10   1    -0.21  -0.17  -0.25     0.12  -0.09  -0.02    -0.04  -0.01   0.17
    11   6     0.12   0.05   0.22    -0.18   0.01  -0.08    -0.02  -0.02  -0.00
    12   1    -0.12  -0.20   0.20     0.20   0.13   0.20    -0.01   0.02  -0.01
    13   1    -0.16  -0.09   0.20    -0.04   0.32   0.04    -0.04   0.08  -0.02
    14   1    -0.07   0.09   0.03     0.29   0.16  -0.17     0.60   0.31   0.02
    15   1    -0.08   0.26  -0.24     0.06  -0.07  -0.12     0.17  -0.03   0.05
    16   1     0.26   0.15   0.04    -0.05   0.21  -0.22    -0.01  -0.01  -0.02
                     10                     11                     12
                      A                      A                      A
 Frequencies --    660.9252               745.7160               773.1634
 Red. masses --      1.0943                 3.1892                 1.2352
 Frc consts  --      0.2816                 1.0449                 0.4350
 IR Inten    --      3.2178                 5.1308                55.7365
  Atom  AN      X      Y      Z        X      Y      Z        X      Y      Z
     1   6     0.02  -0.02   0.02    -0.01   0.24   0.01     0.01   0.05  -0.01
     2   6     0.01   0.02   0.02    -0.03  -0.13   0.02    -0.00  -0.07  -0.01
     3   6    -0.01  -0.01  -0.03    -0.02  -0.23  -0.07     0.02   0.05   0.01
     4   6     0.01  -0.02  -0.00     0.01   0.04   0.00    -0.01   0.00  -0.01
     5   1    -0.03  -0.16  -0.02    -0.05  -0.37   0.04     0.04   0.35  -0.01
     6   6     0.00   0.01   0.04     0.03   0.15   0.01    -0.01  -0.05  -0.00
     7   6    -0.01   0.02  -0.01     0.06   0.12   0.01    -0.00  -0.07  -0.01
     8   6     0.01  -0.01  -0.02    -0.01  -0.04  -0.00    -0.00  -0.00   0.01
     9   1    -0.24  -0.23   0.24     0.34  -0.01   0.08    -0.09  -0.17   0.19
    10   1     0.20   0.43  -0.22    -0.14  -0.24  -0.18     0.03   0.11  -0.08
    11   6    -0.03   0.02  -0.02    -0.03  -0.15  -0.01    -0.01  -0.05  -0.00
    12   1    -0.01  -0.16   0.03     0.06   0.15   0.01     0.11   0.51   0.03
    13   1    -0.03  -0.16  -0.01     0.12   0.35   0.07     0.09   0.33   0.06
    14   1    -0.36  -0.19   0.03    -0.10  -0.06   0.33    -0.23  -0.12  -0.05
    15   1     0.36   0.39   0.04    -0.04   0.29  -0.14     0.10   0.09   0.04
    16   1    -0.05  -0.15  -0.05    -0.04  -0.15   0.01     0.11   0.51   0.03
                     13                     14                     15
                      A                      A                      A
 Frequencies --    815.7587               859.1009               879.4739
 Red. masses --      3.6661                 1.3039                 1.5282
 Frc consts  --      1.4374                 0.5670                 0.6964
 IR Inten    --      0.1732                 9.6942                14.5331
  Atom  AN      X      Y      Z        X      Y      Z        X      Y      Z
     1   6    -0.09   0.00   0.05    -0.00   0.01  -0.01     0.00   0.02   0.02
     2   6    -0.15   0.01   0.22    -0.01  -0.08   0.00    -0.03   0.01  -0.00
     3   6     0.09  -0.00  -0.05    -0.01  -0.01  -0.01    -0.01   0.03  -0.01
     4   6    -0.17  -0.04  -0.08     0.03   0.05  -0.02     0.01  -0.08   0.10
     5   1    -0.05   0.17   0.37     0.07   0.52   0.02    -0.02  -0.06   0.04
     6   6    -0.01  -0.02   0.05    -0.02  -0.05  -0.00    -0.01  -0.02  -0.07
     7   6     0.26  -0.04  -0.03     0.02   0.08   0.01    -0.01   0.01   0.03
     8   6     0.03   0.09  -0.17    -0.04  -0.05  -0.00    -0.09  -0.05  -0.07
     9   1    -0.20  -0.12   0.00     0.04  -0.06   0.11     0.19   0.30  -0.33
    10   1    -0.13   0.12  -0.30    -0.10  -0.26   0.18     0.17   0.33  -0.26
    11   6     0.05   0.01   0.01     0.02   0.05  -0.00     0.05  -0.04   0.04
    12   1     0.20   0.02   0.05     0.05   0.29   0.02    -0.02   0.17  -0.06
    13   1     0.31  -0.25   0.08    -0.10  -0.51  -0.07    -0.05  -0.05  -0.02
    14   1     0.12   0.14  -0.14     0.09   0.02   0.10     0.43   0.23   0.07
    15   1    -0.21  -0.01  -0.28     0.24   0.22   0.06     0.35   0.27   0.06
    16   1    -0.06  -0.06   0.18    -0.06  -0.28  -0.02     0.07   0.14   0.09
                     16                     17                     18
                      A                      A                      A
 Frequencies --    885.5518               890.9977               950.7242
 Red. masses --      3.3078                 1.5884                 1.3609
 Frc consts  --      1.5283                 0.7429                 0.7248
 IR Inten    --      1.8275                40.3314                 5.7879
  Atom  AN      X      Y      Z        X      Y      Z        X      Y      Z
     1   6     0.03   0.07  -0.08    -0.02  -0.06  -0.01     0.00   0.01   0.00
     2   6     0.12  -0.02  -0.02    -0.02   0.06   0.04    -0.02  -0.09  -0.01
     3   6     0.09   0.05   0.03     0.01   0.06  -0.01    -0.00   0.01  -0.00
     4   6    -0.16  -0.07  -0.05     0.03   0.09  -0.08     0.00  -0.00   0.03
     5   1     0.04   0.05  -0.17    -0.04  -0.27   0.07     0.07   0.51   0.02
     6   6     0.01  -0.01   0.21     0.01   0.04   0.02     0.01   0.07  -0.01
     7   6     0.08  -0.01  -0.10     0.04  -0.06  -0.01    -0.02  -0.09  -0.00
     8   6    -0.05  -0.11   0.14    -0.10  -0.07  -0.04    -0.03   0.00  -0.02
     9   1    -0.06   0.25  -0.43    -0.07  -0.05   0.09     0.09   0.01   0.02
    10   1    -0.08   0.11  -0.17    -0.17  -0.42   0.36     0.01   0.06  -0.12
    11   6    -0.17   0.05  -0.10     0.01  -0.04   0.01     0.03   0.07   0.02
    12   1     0.11  -0.07   0.20    -0.02  -0.21   0.01    -0.12  -0.42  -0.04
    13   1     0.17   0.01   0.05     0.12   0.25   0.07     0.10   0.50   0.07
    14   1     0.38   0.11   0.32     0.12   0.04  -0.01     0.03   0.03  -0.08
    15   1     0.12   0.05   0.18     0.46   0.33   0.13     0.12   0.03   0.06
    16   1    -0.13   0.01  -0.21     0.05   0.20   0.05    -0.09  -0.43   0.01
                     19                     20                     21
                      A                      A                      A
 Frequencies --    986.2065              1009.6899              1016.0100
 Red. masses --      1.2933                 1.4689                 2.1578
 Frc consts  --      0.7411                 0.8823                 1.3124
 IR Inten    --      0.3866                 2.5147                 0.0031
  Atom  AN      X      Y      Z        X      Y      Z        X      Y      Z
     1   6    -0.00  -0.00   0.01     0.01   0.05  -0.03     0.02   0.07  -0.04
     2   6     0.01   0.06   0.00    -0.07  -0.01   0.06    -0.09   0.02  -0.00
     3   6     0.01  -0.00   0.00     0.03   0.04   0.02    -0.06  -0.06  -0.02
     4   6    -0.00   0.01  -0.00     0.04  -0.06  -0.06     0.04  -0.05  -0.03
     5   1    -0.04  -0.37   0.00    -0.00   0.10   0.15    -0.30   0.02  -0.32
     6   6    -0.01  -0.10  -0.01     0.02   0.00  -0.02    -0.06   0.00   0.17
     7   6    -0.01  -0.06  -0.00    -0.09  -0.00   0.03     0.04   0.00  -0.09
     8   6    -0.00  -0.01  -0.01     0.06  -0.07  -0.02    -0.03   0.05   0.04
     9   1     0.03  -0.00   0.02    -0.39   0.08  -0.23    -0.21   0.06  -0.16
    10   1    -0.03  -0.03  -0.01     0.17   0.10   0.42     0.14   0.09   0.25
    11   6     0.01   0.10   0.01     0.03   0.00  -0.01     0.17  -0.04   0.02
    12   1     0.14   0.57   0.02     0.12  -0.06  -0.02    -0.20   0.12   0.19
    13   1     0.08   0.36   0.07    -0.12   0.13  -0.04    -0.12   0.11  -0.41
    14   1     0.00  -0.00   0.03     0.01  -0.05   0.46    -0.04   0.02  -0.26
    15   1     0.01   0.04  -0.02    -0.25   0.23  -0.31     0.13  -0.18   0.21
    16   1    -0.14  -0.57  -0.02     0.07  -0.05  -0.10     0.24  -0.14  -0.11
                     22                     23                     24
                      A                      A                      A
 Frequencies --   1042.2762              1145.4370              1181.9027
 Red. masses --      1.5537                 1.4793                 1.1033
 Frc consts  --      0.9945                 1.1435                 0.9080
 IR Inten    --     12.8591                 0.6873                 0.0004
  Atom  AN      X      Y      Z        X      Y      Z        X      Y      Z
     1   6    -0.00  -0.08   0.03     0.05  -0.01  -0.02     0.02   0.01   0.00
     2   6    -0.04   0.02  -0.04    -0.11   0.02   0.02    -0.01   0.00  -0.01
     3   6     0.03   0.07   0.03     0.04  -0.01  -0.04    -0.01  -0.01   0.02
     4   6    -0.05   0.06   0.05    -0.04   0.01   0.00    -0.01  -0.00  -0.01
     5   1    -0.19   0.04  -0.28    -0.33   0.05  -0.33    -0.19   0.05  -0.32
     6   6    -0.02   0.01   0.07     0.06  -0.01  -0.01     0.06  -0.01  -0.01
     7   6    -0.02  -0.00  -0.06    -0.07   0.01   0.09    -0.00  -0.00  -0.01
     8   6     0.06  -0.07  -0.04    -0.02   0.01   0.04    -0.01   0.01  -0.01
     9   1     0.32  -0.08   0.23     0.06  -0.01   0.03    -0.01   0.04  -0.06
    10   1    -0.18  -0.10  -0.37    -0.09  -0.04  -0.13    -0.02  -0.03   0.03
    11   6     0.07  -0.02   0.01     0.04  -0.00  -0.04    -0.03   0.00   0.05
    12   1    -0.13  -0.01   0.07     0.47  -0.10  -0.03     0.58  -0.13  -0.03
[...]

 ----------------------------------------------------------------------

 Dipole orientation:
     6          0.00000000          0.00000000          0.00000000
     6         -1.32366022          0.41875933          2.26369191
     6          2.66516758         -0.11513390         -0.00316243
     6         -0.77729766         -0.49851974         -2.52982289
     1         -3.34939374          0.71500098          2.28626654
     6          0.03131767          0.22786089          4.48455722
     6          3.99463174         -0.52385369          2.25896267
     6          3.43597072          0.37252913         -2.53708523
     1         -0.16935379         -2.24336010         -3.38840133
     1         -2.46083012          0.33942752         -3.36478877
     6          2.64533325         -0.32269915          4.48248283
     1         -0.93103701          0.42759556          6.27898545
     1          6.02041818         -0.82000379          2.27765569
     1          2.82586935          2.11370428         -3.40155383
     1          5.11732711         -0.46904753         -3.37278527
     1          3.61225390         -0.51434449          6.27533801

 Electric dipole moment (dipole orientation):
 (Debye = 10**-18 statcoulomb cm , SI units = C m)
                  (au)            (Debye)         (10**-30 SI)
   Tot        0.245613D+00      0.624286D+00      0.208239D+01
   x          0.000000D+00      0.000000D+00      0.000000D+00
   y          0.000000D+00      0.000000D+00      0.000000D+00
   z          0.245613D+00      0.624286D+00      0.208239D+01

 Dipole polarizability, Alpha (dipole orientation).
 (esu units = cm**3 , SI units = C**2 m**2 J**-1)
 Alpha(0;0):
               (au)            (10**-24 esu)      (10**-40 SI)
   iso        0.982563D+02      0.145601D+02      0.162003D+02
   aniso      0.636033D+02      0.942504D+01      0.104868D+02
   xx         0.112680D+03      0.166974D+02      0.185784D+02
   yx        -0.201738D+01     -0.298945D+00     -0.332622D+00
   yy         0.565722D+02      0.838314D+01      0.932750D+01
   zx         0.202687D-01      0.300351D-02      0.334185D-02
   zy         0.155813D+00      0.230891D-01      0.256901D-01
   zz         0.125517D+03      0.185997D+02      0.206949D+02

 ----------------------------------------------------------------------
 1\1\GINC-BHC0026\Freq\RB3LYP\def2TZVP\C8H8\DHANAWAY\10-Jun-2022\1\\#N 
 Geom=AllCheck Guess=TCheck SCRF=Check GenChk RB3LYP/def2TZVP Freq\\ts_
 zmat_initalOpt\\0,1\C\C,1,R2\C,1,R3,2,A3\C,1,R4,2,A4,3,D4,0\H,2,R5,1,A
 5,3,D5,0\C,2,R6,1,A6,5,D6,0\C,3,R2,1,A3,2,D7,0\C,3,R4,1,A8,7,D8,0\H,4,
 R9,1,A9,2,D9,0\H,4,R10,1,A10,9,D10,0\C,6,R11,2,A11,1,D11,0\H,6,R12,2,A
 12,11,D12,0\H,7,R5,3,A5,1,D5,0\H,8,R9,3,A9,1,D14,0\H,8,R10,3,A10,14,D1
 0,0\H,11,R12,6,A16,2,D16,0\\R2=1.40523572\R3=1.41166231\R4=1.42512025\
 R5=1.08343978\R6=1.38039707\R9=1.07817445\R10=1.08882055\R11=1.4136261
 8\R12=1.08268069\A3=120.38511022\A4=133.32176737\A5=121.6950423\A6=117
 .08404405\A8=106.21537167\A9=117.92109068\A10=122.81799682\A11=121.513
 70391\A12=119.68507116\A16=118.7557123\D4=176.31652832\D5=173.31648716
 \D6=174.72939057\D7=17.88591134\D8=-177.20154284\D9=-120.03289046\D10=
 155.49489616\D11=1.03677645\D12=-177.50228725\D14=56.66048051\D16=-177
 .99252355\\Version=ES64L-G16RevA.03\HF=-309.6785587\RMSD=1.712e-09\RMS
 F=8.503e-06\ZeroPoint=0.1306255\Thermal=0.1366792\Dipole=0.1224277,-0.
 0387318,0.209373\DipoleDeriv=-0.1398851,0.0581896,0.1591273,0.1636335,
 -0.0866671,0.1380345,0.1178918,0.026412,0.0189461,0.1128089,-0.0167164
 ,-0.0884081,-0.0532505,-0.1192955,-0.0357876,-0.0703029,-0.0165728,0.0
 631438,-0.1460184,-0.0064975,0.0832198,-0.0647767,0.0051518,-0.2311998
 ,0.1330441,-0.0918779,-0.0666477,0.075372,-0.1443197,-0.1314687,-0.000
 1043,-0.0065444,0.0537693,-0.2001359,0.0661635,0.000405,-0.0570983,0.0
 241902,0.087003,-0.0121538,0.1296912,-0.0110791,0.0401845,-0.0050585,0
 .0200065,-0.0863413,-0.0059418,-0.1056294,0.0011846,-0.1346833,0.01820
 86,-0.0446012,-0.0035728,0.0803673,0.1403234,-0.0229469,-0.0485784,-0.
 0182079,-0.1309866,0.0262137,-0.0725131,-0.0117432,0.0473015,0.1332002
 ,-0.1064041,-0.1854128,-0.0488581,-0.0088579,0.0184709,-0.0799207,0.12
 43467,-0.0553137,-0.0480359,0.0389106,-0.0319342,-0.0280531,-0.006214,
 -0.0210978,-0.0178228,-0.0421065,0.046687,-0.1695058,0.0852949,-0.0696
 084,-0.0055125,0.0698495,-0.0554315,0.1137106,-0.053694,0.1122232,0.09
 50761,-0.05195,0.0523816,-0.0512497,-0.1215175,-0.024037,-0.0071962,0.
 0025211,-0.1142047,0.076646,0.012828,-0.0099534,0.0259901,0.1319372,0.
 0036876,0.0005779,0.0112314,-0.0836651,-0.0478528,0.0313152,0.0535635,
 0.0075545,0.120437,0.0379503,0.0894374,-0.0032966,0.0199963,0.0520744,
 0.0340631,0.0523554,-0.0103774,-0.0200284,0.0359964,0.0179244,-0.00838
 94,-0.0397925,0.0424502,0.0292766,0.2446658,0.0382736,0.0531539,0.0339
 113,0.0464223,-0.015803,-0.0830189,-0.0332136,0.0407082,-0.0613227,0.0
 559078,0.1245742,0.0123902,-0.0667001,0.02144,0.033566\Polar=115.64396
 8,-5.0116254,58.1700937,4.8743253,-9.3466529,120.9547001\PG=C01 [X(C8H
 8)]\NImag=1\\0.60519327,-0.00977690,0.16736030,0.01373876,0.00969805,0
 .71346504,-0.11680281,0.00521982,0.03090066,0.71425098,0.02346440,-0.0
 6256273,-0.00251216,-0.09064883,0.14418055,0.00941719,-0.00666420,-0.2
 8996451,-0.03800316,-0.00733303,0.64411246,-0.24366139,0.00385194,0.05
 823304,0.02644027,-0.01203778,0.05237355,0.65731190,-0.00611240,-0.082
 31188,0.00346224,-0.00356724,0.00774397,-0.00811795,-0.10151478,0.2194
 0544,0.08783659,0.01125012,-0.16032045,0.03049732,0.00870132,-0.014981
 20,0.02758781,-0.12350417,0.60937882,-0.21254578,0.00840530,-0.1155285
 4,0.00522549,-0.00420164,-0.00966204,-0.06595193,-0.00088713,-0.028492
 14,0.55596056,-0.00463435,-0.06335454,-0.02534979,-0.00503504,0.002893
 49,0.00047657,0.00891727,0.00748012,-0.00179221,-0.12091455,0.38274640
 ,-0.09628884,-0.02532624,-0.16168931,-0.03040766,-0.01210218,-0.036912
 90,0.00062750,-0.00019314,0.03858072,0.13376979,0.21230937,0.37337296,
 0.00409763,-0.00038758,0.00028368,-0.25356067,0.02603259,0.12048148,0.
 00172874,0.00148364,-0.00115446,0.00043464,-0.00083097,-0.00002445,0.2
 6792417,0.00063354,0.00263076,0.00525331,0.02341205,-0.03750455,-0.016
 87595,-0.00044847,0.00610667,0.00132446,-0.00037311,-0.00291288,-0.001
 22160,-0.02967941,0.02757427,0.02930650,-0.00287022,-0.00969993,0.1233
 4472,-0.01474978,-0.13673011,-0.00225672,-0.00017450,-0.00385152,-0.00
 019620,0.00029110,0.00119465,-0.13355708,0.01471755,0.13900862,0.00614
 547,0.00428991,-0.07565235,-0.29844288,0.04781385,-0.05835055,-0.05015
 879,0.00948364,-0.01622163,0.00351297,0.00067917,0.02155300,-0.0182196
 3,0.00613369,-0.01345717,0.62087313,-0.00116067,0.00526077,0.01053876,
 0.05345052,-0.06981058,0.02237607,0.00863209,-0.00760065,0.00032167,-0
 .00052504,0.00599269,-0.00167333,0.00206197,0.00213055,0.00152078,-0.1
 0208147,0.15513394,-0.03746324,0.00480606,-0.03100301,-0.11852428,0.03
 101918,-0.17267161,0.00388850,-0.00404966,0.00084547,0.00390726,-0.000
 10861,-0.00239883,0.01706473,-0.00284186,0.01183679,0.02877240,-0.0338
 5117,0.72338705,-0.04066590,0.00864545,0.01668564,-0.01271045,0.002557
 92,-0.02105902,-0.25481427,0.05830352,-0.06536190,-0.00022077,0.001699
 33,-0.00391037,0.00002232,-0.00088827,-0.00072687,0.02806249,-0.004246
 72,0.02678864,0.66989544,-0.00371267,0.00784767,-0.00841169,0.00578774
 ,-0.00409055,0.00867175,0.05731577,-0.07623563,0.01194212,-0.00261616,
 0.00347957,0.01097742,-0.00008747,-0.00022372,0.00020841,-0.01238656,0
 .00930879,-0.00104120,-0.10819773,0.15940573,-0.00898706,-0.00380686,0
 .05201974,-0.02673269,0.00492573,-0.03950118,-0.04074524,0.02622658,-0
 .13825105,0.00433688,0.00065171,-0.00863316,-0.00045730,-0.00058657,-0
 .00091154,0.06919946,-0.00954098,-0.03095728,-0.06728998,-0.05163864,0
 .67312627,0.02439997,-0.01671265,0.04904534,-0.00802393,-0.00653726,-0
 .01000304,-0.07477718,0.03134593,-0.00868252,0.02184864,-0.00132997,-0
 .04410644,-0.00002123,-0.00008100,0.00126136,0.01329235,-0.00183234,-0
 .00020146,-0.00748574,0.01960944,-0.03338282,0.23031360,-0.00320088,0.
 00742794,0.00134820,0.00202323,0.00535526,0.00152241,0.03058273,-0.094
 82179,0.07462208,-0.00027965,-0.02373786,0.00672926,0.00007322,0.00004
 643,0.00001587,-0.00424215,-0.00056796,0.00116013,0.00302061,-0.005792
 88,0.01485009,-0.20817516,0.46863589,0.02419371,0.01341229,-0.05170275
 ,0.00059560,-0.00125096,-0.00270575,-0.03044392,0.06650988,-0.26807259
 ,-0.01443204,-0.00430526,-0.01041987,0.00011070,-0.00111602,-0.0009992
 2,0.00676137,-0.00137542,-0.00150979,-0.01581764,0.01721994,-0.0155160
 1,-0.07361908,-0.04484311,0.61317617,0.00633685,-0.01521913,-0.0069675
 4,-0.00250197,-0.00028726,-0.00235448,-0.00171597,-0.00339975,0.004687
 59,-0.04233312,0.01657843,-0.01201520,-0.00008788,-0.00045463,-0.00018
 566,0.00244470,0.00062030,0.00000245,0.00000406,0.00207333,-0.00106988
 ,-0.01296734,-0.00498845,-0.00251332,0.05045801,0.01359433,0.00419298,
 0.01226061,-0.00224114,0.00152783,-0.00519194,0.00118454,-0.00142099,0
 .01121625,0.01699427,-0.21666689,-0.17842703,-0.00015005,-0.00022908,0
 .00004551,0.00567851,-0.00086535,0.00009389,-0.00232080,0.00266559,-0.
 00334653,-0.01488094,-0.00403461,-0.00124200,-0.01539347,0.22068899,-0
 .01321892,-0.01543921,-0.02543941,-0.00020756,-0.00170088,0.00665872,0
 .00211473,0.00476920,-0.01089686,-0.00412360,-0.15963456,-0.13960951,0
 .00022571,0.00002074,0.00007115,-0.00530865,0.00145281,-0.00106943,0.0
 0091672,-0.00227686,0.00214256,0.01667199,0.00575403,0.00423041,0.0023
 7938,0.16938073,0.16779459,-0.01825501,0.00711149,0.00324321,0.0014570
 4,-0.00080539,0.00321091,-0.00453343,0.00364740,-0.00851088,-0.2602637
 6,0.11184771,0.02817283,0.00023631,0.00064003,-0.00067494,-0.00248912,
 -0.00013707,-0.00040846,-0.00009345,-0.00204055,0.00213706,0.00337797,
 0.00163700,0.00033581,0.00124071,-0.00063750,-0.00032428,0.27905990,-0
 .01311188,0.00341805,-0.00826521,0.00161146,-0.00077474,0.00392841,-0.
 00132000,0.00524227,-0.00935097,0.10562421,-0.09426418,-0.01518298,0.0
 0035869,0.00028027,-0.00006735,-0.00320779,0.00015248,-0.00035609,0.00
 035118,-0.00172349,0.00113630,0.00959328,0.00402310,0.00178183,0.02032
 463,-0.00555961,-0.00173780,-0.12112243,0.08984666,-0.00959240,0.00841
 388,0.01732669,-0.00099070,0.00029570,-0.00260849,-0.00157929,-0.00307
 220,0.00633449,0.03033606,-0.02455392,-0.06466727,0.00030437,-0.000175
 28,-0.00023283,0.00376385,-0.00056931,0.00022228,-0.00211780,0.0019472
 5,-0.00095845,-0.00893377,-0.00390229,-0.00199211,0.01629086,-0.008846
 03,-0.00030673,-0.02577832,0.02992086,0.04411364,-0.00499363,0.0001339
 5,0.02890820,-0.05601070,0.01062290,-0.01992573,0.02563838,0.00172681,
 -0.02550210,-0.00101866,-0.00084793,-0.00843608,-0.00243998,0.00193188
 ,-0.00280938,-0.22999523,0.03327762,0.09958667,-0.12549556,0.01319755,
 -0.02416928,-0.01132155,0.00437240,-0.00392187,-0.00142171,-0.00233372
 ,0.00252444,0.00108992,0.00155772,-0.00169453,0.65252701,0.00136234,-0
 .00681076,-0.00215355,0.01030350,0.00576333,-0.00159991,0.00449714,0.0
 0242811,0.01491334,0.00055514,-0.00098195,-0.00016632,0.00168459,0.007
 86440,0.00100185,0.03850851,-0.07083631,-0.01651500,0.00717048,-0.0614
 0273,0.02455055,0.00048630,0.00596440,0.00010506,0.00022438,0.00021152
 ,-0.00053571,-0.00014456,-0.00017810,0.00026577,-0.11700535,0.16135020
 ,0.00884981,0.00243675,-0.04511982,0.02390805,-0.00550337,0.05667453,-
 0.06415381,0.01907306,-0.04764704,-0.00077679,-0.00046495,0.01321312,-
 0.00392208,0.00203043,-0.00050026,0.03521841,-0.00540033,-0.16772138,0
 .03592235,0.01566480,-0.35392780,0.01279480,-0.00444612,0.01246170,0.0
 0122271,0.00434375,-0.00346123,-0.00168154,-0.00195235,0.00274110,0.04
 466358,-0.04740766,0.68539205,-0.00526548,0.00245849,-0.00259355,0.002
 41268,0.00221532,-0.02887441,-0.00090463,0.00028078,-0.00081976,0.0006
 0639,-0.00030698,0.00006004,0.00101322,-0.00095710,0.00048726,-0.05803
 604,0.00550581,-0.00867052,-0.00383130,0.00191160,0.00261333,0.0006445
 2,-0.00034732,0.00004906,-0.00007432,-0.00000725,-0.00022699,-0.000097
 76,-0.00001572,0.00001304,0.00459204,-0.00200929,0.02739610,0.05814729
 ,0.00070515,0.00812494,0.00030871,-0.00195945,0.00278771,0.00609960,0.
 00090716,-0.00051971,-0.00118375,-0.00011016,0.00068810,0.00166040,-0.
 00061072,-0.00446631,-0.00037643,0.00598623,-0.03778542,0.01862464,0.0
 0237434,0.00462894,0.00057931,0.00085856,-0.00084599,0.00044068,0.0000
 2951,-0.00032571,0.00040053,-0.00004592,-0.00005140,-0.00004972,0.0003
 9339,0.00240864,-0.00619799,-0.00773063,0.02788441,-0.00282418,0.00078
 084,0.00072944,0.00116236,0.00069253,-0.01071526,0.00027657,-0.0000174
 4,0.00061140,0.00034127,-0.00015089,-0.00008215,-0.00024953,-0.0001993
 6,0.00088250,-0.00888789,0.01790610,-0.33497393,0.00298300,-0.00037569
 ,0.00038115,0.00006989,-0.00010294,-0.00004342,-0.00007510,0.00000733,
 -0.00008045,-0.00006555,0.00002169,-0.00004013,-0.00259378,0.00149790,
 -0.01239283,0.00981829,-0.01993033,0.35555541,-0.00082892,0.00294324,-
 0.00314151,-0.00018171,-0.00004671,-0.00069257,-0.01885458,0.00142896,
 0.01595814,-0.00116899,0.00005256,0.00061094,-0.00008733,-0.00030302,0
 .00015548,0.00196521,0.00105846,-0.00037943,-0.25956211,0.02947568,0.1
 2092071,0.00102747,-0.00133537,-0.00002362,-0.00002585,0.00008824,-0.0
 0010790,-0.00038476,-0.00019672,-0.00016484,0.00334412,0.00005306,-0.0
 0188903,-0.00001805,-0.00000316,-0.00015878,0.27402117,0.00050218,0.00
 560409,0.00220537,0.00019673,-0.00055360,0.00122913,0.00265803,0.00365
 862,-0.00834035,0.00125143,-0.00025078,0.00039189,-0.00019383,-0.00162
 236,-0.00010368,0.00058639,0.00805028,0.00097382,0.03085758,-0.0403091
 8,-0.00749515,0.00011426,-0.00296543,-0.00007449,-0.00015060,-0.000082
 45,0.00008224,0.00039731,0.00032497,-0.00009873,-0.00246997,0.00334920
 ,-0.00019324,-0.00015693,0.00024197,0.00007747,-0.03267587,0.02884083,
 -0.00283739,0.00113884,-0.00079143,-0.00052557,0.00010801,-0.00037711,
 -0.01265327,0.00110438,0.01222961,-0.00034935,-0.00012714,0.00044557,0
 .00006628,-0.00026188,0.00008070,-0.00153280,0.00187154,-0.00509213,0.
 11783359,-0.01034905,-0.12792227,0.00049761,-0.00046752,0.00065411,-0.
 00000511,-0.00005603,0.00002452,-0.00011113,0.00013516,-0.00027030,0.0
 2891300,-0.00364790,-0.01093969,0.00127528,-0.00039862,-0.00067366,-0.
 13051723,0.01190040,0.13163391,-0.01355519,-0.00253656,-0.00552677,0.0
 0240974,0.00228700,0.00317183,-0.00785686,0.01376985,-0.02152581,-0.00
 845855,-0.01254521,0.01974219,0.00004918,-0.00014487,-0.00010608,-0.00
 512773,0.00119326,0.00098977,0.00604622,-0.00078377,0.00508476,-0.0628
 4545,0.12544898,0.00360343,0.00137948,0.00186989,-0.00200715,-0.000651
 32,-0.00074667,0.00074965,0.00236459,0.00026469,-0.00634396,-0.0001678
 6,-0.00036561,-0.00004602,-0.00004904,-0.00034508,0.00021271,0.0903916
 0,-0.00663122,0.00189438,-0.00522576,0.00173687,0.00110387,0.00353006,
 0.00155844,0.00028214,-0.01125182,-0.00598209,-0.00488045,0.00939246,0
 .00005386,-0.00008079,-0.00004346,-0.00377375,0.00071640,-0.00000616,0
 .00187447,-0.00042720,0.00404968,0.14373099,-0.28801106,0.02195059,0.0
 0079781,0.00096215,-0.00107141,-0.00049820,-0.00095809,0.00094167,0.00
 230322,0.00030326,-0.00372967,-0.00013053,-0.00024132,0.00000387,-0.00
 012082,-0.00027551,-0.00000803,-0.13929963,0.29394980,-0.00286624,0.00
 150580,-0.00236405,0.00028278,-0.00043871,0.00129932,-0.01224832,0.026
 18521,-0.00736449,-0.00004561,0.00044424,0.00058406,0.00007639,0.00007
 482,-0.00005224,-0.00168678,0.00045955,-0.00026078,0.00306652,0.000971
 31,0.00006686,-0.00087362,0.01412503,-0.04772883,0.00040638,0.00000643
 ,-0.00002993,0.00017341,0.00000526,0.00018221,0.00026309,-0.00092891,-
 0.00215810,-0.00000287,0.00003747,0.00000924,-0.00010168,0.00032827,0.
 00007838,0.00325315,-0.02099557,0.05458011,0.00971342,0.00188342,0.007
 38119,-0.00130853,-0.00197748,-0.00325672,0.01029266,-0.00721388,0.008
 26936,0.00431880,0.00678151,-0.00889299,-0.00015622,0.00035649,0.00007
 050,0.00402981,-0.00088581,-0.00041230,-0.00298846,0.00072162,-0.00376
 685,-0.11716773,0.05523876,0.10525850,-0.00067127,-0.00132718,0.000632
 12,0.00024081,0.00022014,-0.00053086,-0.00202751,-0.00046886,0.0045350
 5,0.00019846,0.00041685,0.00006410,0.00016444,0.00043585,0.00027566,-0
 .00392059,0.00442870,0.01035378,0.09931550,0.00682051,0.00187820,0.007
 14750,-0.00133269,-0.00110194,-0.00070053,-0.00555808,0.00276149,0.018
 20424,0.00308226,0.00435683,-0.00594829,-0.00012581,0.00029365,0.00032
 095,0.00176930,-0.00029790,-0.00042633,-0.00239111,0.00042554,-0.00308
 676,0.04501809,-0.07164361,-0.06658675,-0.00049112,-0.00077745,0.00029
 031,-0.00008717,-0.00006915,-0.00018855,-0.00093405,-0.00049553,0.0022
 2745,0.00012967,0.00020690,0.00003614,0.00047655,0.00031459,-0.0002025
 5,0.01226001,-0.00412898,-0.02155412,-0.05861235,0.06834750,0.00044195
 ,0.00084945,-0.00454564,0.00155194,0.00026912,-0.00036634,0.01771612,-
 0.00936366,-0.01056410,0.00115388,0.00223151,-0.00326758,-0.00007215,-
 0.00007617,-0.00046742,0.00039625,-0.00008968,-0.00007838,0.00030781,0
 .00013767,0.00063591,0.10009498,-0.06685610,-0.23037139,0.00016322,-0.
 00030084,0.00002031,0.00035614,0.00005942,0.00011051,-0.00028290,0.000
 36763,0.00040911,-0.00001599,0.00002816,-0.00000326,-0.00074727,-0.000
 23492,-0.00019587,-0.00100554,0.00243752,0.00342157,-0.12003463,0.0704
 6277,0.24534831,0.00068749,-0.00031020,0.00099053,-0.00265256,0.001548
 36,0.00352678,0.00181707,0.00122465,0.00143439,0.00005407,-0.00011100,
 -0.00045427,-0.00093328,0.00022221,-0.00065572,-0.01785673,0.00506908,
 -0.01494073,0.00383748,-0.00026782,0.00230890,-0.00029435,0.00017205,-
 0.00013669,-0.00006439,-0.00011773,0.00005998,0.00006592,0.00007989,-0
 .00007533,-0.25483155,0.05451793,-0.11574366,0.00078084,-0.00084554,0.
 00018535,0.00063893,-0.00100749,-0.00054227,-0.00000821,-0.00004812,-0
 .00005041,-0.00003360,-0.00002398,-0.00002380,0.26879289,0.00125852,-0
 .00060017,-0.00030460,0.00104248,0.00504269,-0.00135050,0.00077399,0.0
 0780182,0.00292767,-0.00002308,-0.00058767,-0.00121970,0.00031728,0.00
 011267,0.00026343,0.00476252,0.00101826,0.00251835,0.00118976,0.002443
 54,0.00253154,-0.00120752,0.00096814,-0.00062627,-0.00026399,-0.000286
 90,0.00024584,0.00023785,0.00029095,-0.00032908,0.05407359,-0.04893766
 ,0.02951945,-0.00083992,-0.00273574,-0.00024721,-0.00089509,-0.0043252
 6,-0.00073961,-0.00032629,-0.00020861,-0.00022610,0.00000222,-0.000070
 13,0.00007812,-0.06010230,0.04007408,0.00029376,-0.00018536,-0.0009006
 1,0.00314818,-0.00042051,-0.00121057,0.00126276,0.00116218,-0.00603120
 ,-0.00023883,0.00008282,0.00028949,0.00082371,-0.00006660,0.00037066,0
 .01543309,-0.00394705,0.01144496,-0.02822067,0.00635246,-0.01179375,-0
 .00063323,0.00049098,0.00053933,0.00003369,0.00005591,-0.00004870,-0.0
 0007426,-0.00007618,0.00004539,-0.11552333,0.03025287,-0.12702348,-0.0
 0050831,-0.00004264,0.00083594,0.00027858,-0.00064803,0.00111566,-0.00
 024617,0.00002602,-0.00026333,0.00005409,0.00000450,-0.00008573,0.1241
 1694,-0.03304135,0.13271593\\0.00000951,-0.00000179,-0.00000232,-0.000
 00720,-0.00000381,-0.00000318,-0.00000688,0.00000361,0.00000293,0.0000
 0525,0.00000740,-0.00000101,0.,0.00000190,-0.00000035,-0.00000337,0.00
 000036,0.00000326,0.00000972,-0.00000382,-0.00003819,-0.00000450,-0.00
 000368,0.00000879,-0.00000498,0.00000327,0.00000202,0.00000053,-0.0000
 0555,-0.00000173,-0.00000132,-0.00000319,0.00003512,-0.00000034,-0.000
 00023,-0.00000061,0.00000002,0.00000223,-0.00000205,0.00000408,-0.0000
 0287,-0.00000630,-0.00000050,0.00000612,0.00000212,-0.00000003,0.00000
 004,0.00000152\\\@


 THERE ARE PEOPLE SO ADDICTED TO EXAGERATING THEY
 CAN'T TELL THE TRUTH WITHOUT LYING. -- FORTUNE COOKIE
 Job cpu time:       0 days  1 hours 13 minutes 57.0 seconds.
 Elapsed time:       0 days  0 hours  6 minutes 10.3 seconds.
 File lengths (MBytes):  RWF=    123 Int=      0 D2E=      0 Chk=     32 Scr=      1
 Normal termination of Gaussian 16 at Fri Jun 10 02:58:23 2022.
