 Entering Gaussian System, Link 0=g16
 Input=ts_initalOpt_zmat_sp.gjf
 Output=ts_initalOpt_zmat_sp.out
 Initial command:
 /software/gaussian/g16-a03/l1.exe "/local_scratch/11174425/Gau-4385.inp" -scrdir="/local_scratch/11174425/"
 Entering Link 1 = /software/gaussian/g16-a03/l1.exe PID=      4386.
  
 Copyright (c) 1988,1990,1992,1993,1995,1998,2003,2009,2016,
            Gaussian, Inc.  All Rights Reserved.
  
 This is part of the Gaussian(R) 16 program.  It is based on
 the Gaussian(R) 09 system (copyright 2009, Gaussian, Inc.),
 the Gaussian(R) 03 system (copyright 2003, Gaussian, Inc.),
 the Gaussian(R) 98 system (copyright 1998, Gaussian, Inc.),
 the Gaussian(R) 94 system (copyright 1995, Gaussian, Inc.),
 the Gaussian 92(TM) system (copyright 1992, Gaussian, Inc.),
 the Gaussian 90(TM) system (copyright 1990, Gaussian, Inc.),
 the Gaussian 88(TM) system (copyright 1988, Gaussian, Inc.),
 the Gaussian 86(TM) system (copyright 1986, Carnegie Mellon
 University), and the Gaussian 82(TM) system (copyright 1983,
 Carnegie Mellon University). Gaussian is a federally registered
 trademark of Gaussian, Inc.
  
 This software contains proprietary and confidential information,
 including trade secrets, belonging to Gaussian, Inc.
  
 This software is provided under written license and may be
 used, copied, transmitted, or stored only in accord with that
 written license.
  
 The following legend is applicable only to US Government
 contracts under FAR:
  
                    RESTRICTED RIGHTS LEGEND
  
 Use, reproduction and disclosure by the US Government is
 subject to restrictions as set forth in subparagraphs (a)
 and (c) of the Commercial Computer Software - Restricted
 Rights clause in FAR 52.227-19.
  
 Gaussian, Inc.
 340 Quinnipiac St., Bldg. 40, Wallingford CT 06492
  
  
 ---------------------------------------------------------------
 Warning -- This program may not be used in any manner that
 competes with the business of Gaussian, Inc. or will provide
 assistance to any competitor of Gaussian, Inc.  The licensee
 of this program is prohibited from giving any competitor of
 Gaussian, Inc. access to this program.  By using this program,
 the user acknowledges that Gaussian, Inc. is engaged in the
 business of creating and licensing software in the field of
 computational chemistry and represents and warrants to the
 licensee that it is not a competitor of Gaussian, Inc. and that
 it will not use this program in any manner prohibited above.
 ---------------------------------------------------------------
  

 Cite this work as:
 Gaussian 16, Revision A.03,
 M. J. Frisch, G. W. Trucks, H. B. Schlegel, G. E. Scuseria, 
 M. A. Robb, J. R. Cheeseman, G. Scalmani, V. Barone, 
 G. A. Petersson, H. Nakatsuji, X. Li, M. Caricato, A. V. Marenich, 
 J. Bloino, B. G. Janesko, R. Gomperts, B. Mennucci, H. P. Hratchian, 
 J. V. Ortiz, A. F. Izmaylov, J. L. Sonnenberg, D. Williams-Young, 
 F. Ding, F. Lipparini, F. Egidi, J. Goings, B. Peng, A. Petrone, 
 T. Henderson, D. Ranasinghe, V. G. Zakrzewski, J. Gao, N. Rega, 
 G. Zheng, W. Liang, M. Hada, M. Ehara, K. Toyota, R. Fukuda, 
 J. Hasegawa, M. Ishida, T. Nakajima, Y. Honda, O. Kitao, H. Nakai, 
 T. Vreven, K. Throssell, J. A. Montgomery, Jr., J. E. Peralta, 
 F. Ogliaro, M. J. Bearpark, J. J. Heyd, E. N. Brothers, K. N. Kudin, 
 V. N. Staroverov, T. A. Keith, R. Kobayashi, J. Normand, 
 K. Raghavachari, A. P. Rendell, J. C. Burant, S. S. Iyengar, 
 J. Tomasi, M. Cossi, J. M. Millam, M. Klene, C. Adamo, R. Cammi, 
 J. W. Ochterski, R. L. Martin, K. Morokuma, O. Farkas, 
 J. B. Foresman, and D. J. Fox, Gaussian, Inc., Wallingford CT, 2016.
 
 ******************************************
 Gaussian 16:  ES64L-G16RevA.03 25-Dec-2016
                10-Jun-2022 
 ******************************************
 %nprocshared=12
 Will use up to   12 processors via shared memory.
 %chk=checkpoint.chk
 %mem=12GB
 --------------------------
 # sp B3LYP/Def2TZVP NoSymm
 --------------------------
 1/38=1,172=1/1;
 2/12=2,15=1,17=6,18=5,40=1/2;
 3/5=44,7=101,11=2,25=1,30=1,74=-5/1,2,3;
 4//1;
 5/5=2,38=5/2;
 6/7=2,8=2,9=2,10=2,28=1/1;
 99/5=1,9=1/99;
 ---------------------------
 ts_initalOpt_zmat_AlignedSp
 ---------------------------
 Symbolic Z-matrix:
 Charge =  0 Multiplicity = 1
 C
 C                    1    R2
 C                    1    R3       2    A3
 H                    1    R4       2    A4       3    D4       0
 C                    3    R5       1    A5       2    D5       0
 C                    2    R6       1    A6       3    D6       0
 H                    2    R7       1    A7       6    D7       0
 H                    3    R8       1    A8       5    D8       0
 H                    3    R9       1    A9       5    D9       0
 C                    5    R10      3    A10      1    D10      0
 H                    6    R11      2    A11      1    D11      0
 H                    6    R12      2    A12      11   D12      0
 H                    5    R13      3    A13      10   D13      0
 H                    5    R14      3    A14      10   D14      0
 C                    10   R15      5    A15      3    D15      0
 H                    10   R16      5    A16      15   D16      0
 C                    15   R17      10   A17      5    D17      0
 H                    15   R18      10   A18      17   D18      0
 H                    17   R19      15   A19      10   D19      0
 H                    17   R20      15   A20      19   D20      0
       Variables:
  R2                    1.39164                  
  R3                    1.52389                  
  R4                    1.08383                  
  R5                    1.5392                   
  R6                    1.37677                  
  R7                    1.08651                  
  R8                    1.09159                  
  R9                    1.09156                  
  R10                   1.52389                  
  R11                   1.07998                  
  R12                   1.0816                   
  R13                   1.09159                  
  R14                   1.09156                  
  R15                   1.39164                  
  R16                   1.08383                  
  R17                   1.37677                  
  R18                   1.08651                  
  R19                   1.07998                  
  R20                   1.0816                   
  A3                  123.93288                  
  A4                  117.05931                  
  A5                  102.25231                  
  A6                  124.75683                  
  A7                  116.33962                  
  A8                  110.76215                  
  A9                  111.71165                  
  A10                 102.25227                  
  A11                 121.28354                  
  A12                 120.14809                  
  A13                 112.61872                  
  A14                 112.82168                  
  A15                 123.93291                  
  A16                 116.4387                   
  A17                 124.75675                  
  A18                 116.33963                  
  A19                 121.28355                  
  A20                 120.14802                  
  D4                 -161.13551                  
  D5                  100.07311                  
  D6                  -18.89227                  
  D7                 -165.07196                  
  D8                  120.21326                  
  D9                 -120.90954                  
  D10                  -0.00018                  
  D11                  25.70267                  
  D12                 159.52712                  
  D13                 118.9114                   
  D14                -120.13858                  
  D15                -100.07285                  
  D16                -161.242                    
  D17                  18.89245                  
  D18                 165.07176                  
  D19                 -25.7028                   
  D20                -159.52692                  
 
                          Input orientation:                          
 ---------------------------------------------------------------------
 Center     Atomic      Atomic             Coordinates (Angstroms)
 Number     Number       Type             X           Y           Z
 ---------------------------------------------------------------------
      1          6           0        0.000000    0.000000    0.000000
      2          6           0        0.000000    0.000000    1.391636
      3          6           0        1.264361    0.000000   -0.850669
      4          1           0       -0.913347    0.312077   -0.493049
      5          6           0        1.388518   -1.480952   -1.251284
      6          6           0        1.070187   -0.366246    2.176523
      7          1           0       -0.971381    0.067316    1.873712
      8          1           0        1.150777    0.659995   -1.712687
      9          1           0        2.128474    0.360723   -0.289704
     10          6           0        0.176331   -2.103269   -0.568955
     11          1           0        2.084291   -0.290219    1.812979
     12          1           0        0.962458   -0.419484    3.251427
     13          1           0        1.342659   -1.628827   -2.331840
     14          1           0        2.320934   -1.934939   -0.910710
     15          6           0        0.234767   -2.800270    0.634136
     16          1           0       -0.697393   -2.263833   -1.189858
     17          6           0        1.267135   -2.715399    1.541052
     18          1           0       -0.693281   -3.249819    0.976397
     19          1           0        2.264577   -2.440641    1.231265
     20          1           0        1.197681   -3.225155    2.492464
 ---------------------------------------------------------------------
                    Distance matrix (angstroms):
                    1          2          3          4          5
     1  C    0.000000
     2  C    1.391636   0.000000
     3  C    1.523892   2.574206   0.000000
     4  H    1.083832   2.117459   2.228833   0.000000
     5  C    2.384725   3.332601   1.539197   3.014707   0.000000
     6  C    2.452894   1.376766   3.055442   3.394281   3.618531
     7  H    2.111612   1.086512   3.524957   2.380091   4.210921
     8  H    2.166374   3.375900   1.091590   2.422638   2.202968
     9  H    2.178176   2.736316   1.091556   3.048999   2.205434
    10  C    2.185988   2.880755   2.384725   2.650859   1.523893
    11  H    2.777659   2.146165   2.802058   3.829668   3.360306
    12  H    3.416734   2.135677   4.134526   4.251462   4.645713
    13  H    3.145360   4.280196   2.202970   3.498260   1.091590
    14  H    3.155965   3.798884   2.205434   3.960315   1.091556
    15  C    2.880756   2.910401   3.332600   3.503629   2.574209
    16  H    2.650860   3.503628   3.014709   2.677217   2.228834
    17  C    3.369550   3.000225   3.618526   4.249433   3.055444
    18  H    3.463425   3.348788   4.210920   3.859378   3.524959
    19  H    3.549796   3.333280   3.360299   4.544218   2.802059
    20  H    4.248346   3.612186   4.645709   5.087410   4.134527
                    6          7          8          9         10
     6  C    0.000000
     7  H    2.108950   0.000000
     8  H    4.023135   4.209165   0.000000
     9  H    2.780419   3.791511   1.752237   0.000000
    10  C    3.369552   3.463424   3.145361   3.155963   0.000000
    11  H    1.079977   3.077117   3.768909   2.201580   3.549799
    12  H    1.081600   2.423800   5.083617   3.808927   4.248347
    13  H    4.689743   5.091006   2.378839   2.957386   2.166374
    14  H    3.681871   4.754089   2.957383   2.385949   2.178177
    15  C    3.000226   3.348790   4.280197   3.798879   1.391637
    16  H    4.249435   3.859376   3.498264   3.960316   1.083833
    17  C    2.441543   3.586798   4.689738   3.681861   2.452894
    18  H    3.586797   3.447593   5.091008   4.754085   2.111614
    19  H    2.573556   4.144153   4.418297   3.190535   2.777658
    20  H    2.879138   3.990996   5.725372   4.633072   3.416735
                   11         12         13         14         15
    11  H    0.000000
    12  H    1.828757   0.000000
    13  H    4.418304   5.725376   0.000000
    14  H    3.190546   4.633081   1.752237   0.000000
    15  C    3.333281   3.612186   3.375902   2.736319   0.000000
    16  H    4.544221   5.087410   2.422637   3.048999   2.117461
    17  C    2.573555   2.879138   4.023137   2.780422   1.376766
    18  H    4.144153   3.990993   4.209167   3.791513   1.086512
    19  H    2.234996   3.140325   3.768911   2.201584   2.146165
    20  H    3.140323   2.916015   5.083620   3.808931   2.135676
                   16         17         18         19         20
    16  H    0.000000
    17  C    3.394283   0.000000
    18  H    2.380093   2.108950   0.000000
    19  H    3.829669   1.079977   3.077117   0.000000
    20  H    4.251463   1.081601   2.423800   1.828757   0.000000
 Symmetry turned off by external request.
 Stoichiometry    C8H12
 Framework group  C1[X(C8H12)]
 Deg. of freedom    54
 Full point group                 C1      NOp   1
 Rotational constants (GHZ):           2.4921688           2.3101024           1.5833667
 Standard basis: def2TZVP (5D, 7F)
   320 basis functions,   504 primitive gaussians,   360 cartesian basis functions
    30 alpha electrons       30 beta electrons
       nuclear repulsion energy       368.2317443619 Hartrees.
 NAtoms=   20 NActive=   20 NUniq=   20 SFac= 1.00D+00 NAtFMM=   60 NAOKFM=F Big=F
 Integral buffers will be    131072 words long.
 Raffenetti 2 integral format.
 Two-electron integral symmetry is turned off.
 One-electron integrals computed using PRISM.
   1 Symmetry operations used in ECPInt.
 ECPInt:  NShTT=    9316 NPrTT=   27240 LenC2=    9239 LenP2D=   22136.
 LDataN:  DoStor=T MaxTD1= 6 Len=  172
 NBasis=   320 RedAO= T EigKep=  2.55D-05  NBF=   320
 NBsUse=   320 1.00D-06 EigRej= -1.00D+00 NBFU=   320
 ExpMin= 9.52D-02 ExpMax= 1.36D+04 ExpMxC= 4.63D+02 IAcc=3 IRadAn=         5 AccDes= 0.00D+00
 Harris functional with IExCor=  402 and IRadAn=       5 diagonalized for initial guess.
 HarFok:  IExCor=  402 AccDes= 0.00D+00 IRadAn=         5 IDoV= 1 UseB2=F ITyADJ=14
 ICtDFT=  3500011 ScaDFX=  1.000000  1.000000  1.000000  1.000000
 FoFCou: FMM=F IPFlag=           0 FMFlag=      100000 FMFlg1=           0
         NFxFlg=           0 DoJE=T BraDBF=F KetDBF=T FulRan=T
         wScrn=  0.000000 ICntrl=       500 IOpCl=  0 I1Cent=   200000004 NGrid=           0
         NMat0=    1 NMatS0=      1 NMatT0=    0 NMatD0=    1 NMtDS0=    0 NMtDT0=    0
 Symmetry not used in FoFCou.
 Requested convergence on RMS density matrix=1.00D-08 within 128 cycles.
 Requested convergence on MAX density matrix=1.00D-06.
 Requested convergence on             energy=1.00D-06.
 No special actions if energy rises.
 Integral accuracy reduced to 1.0D-05 until final iterations.
 Initial convergence to 1.0D-05 achieved.  Increase integral accuracy.
 SCF Done:  E(RB3LYP) =  -312.079788029     A.U. after   14 cycles
            NFock= 14  Conv=0.42D-08     -V/T= 2.0056

 **********************************************************************

            Population analysis using the SCF density.

 **********************************************************************

 Alpha  occ. eigenvalues --  -10.18167 -10.18167 -10.17162 -10.17143 -10.17029
 Alpha  occ. eigenvalues --  -10.17028 -10.16205 -10.16203  -0.83629  -0.77663
 Alpha  occ. eigenvalues --   -0.75856  -0.67516  -0.66398  -0.60185  -0.54911
 Alpha  occ. eigenvalues --   -0.50575  -0.50224  -0.46844  -0.46297  -0.43209
 Alpha  occ. eigenvalues --   -0.40280  -0.40237  -0.37798  -0.37211  -0.36331
 Alpha  occ. eigenvalues --   -0.33362  -0.32190  -0.31997  -0.24083  -0.21179
 Alpha virt. eigenvalues --   -0.03807   0.00481   0.03418   0.04141   0.06652
 Alpha virt. eigenvalues --    0.06911   0.07926   0.09342   0.10097   0.10843
 Alpha virt. eigenvalues --    0.11357   0.13379   0.14249   0.14623   0.14867
 Alpha virt. eigenvalues --    0.16858   0.18057   0.19033   0.20337   0.20542
 Alpha virt. eigenvalues --    0.23366   0.23377   0.24289   0.25075   0.25895
 Alpha virt. eigenvalues --    0.26688   0.27020   0.28779   0.29641   0.31902
 Alpha virt. eigenvalues --    0.32784   0.33007   0.33888   0.35893   0.36294
 Alpha virt. eigenvalues --    0.39201   0.39565   0.40674   0.40917   0.41215
 Alpha virt. eigenvalues --    0.42921   0.43287   0.44702   0.44745   0.44998
 Alpha virt. eigenvalues --    0.45118   0.45794   0.47074   0.47289   0.48221
 Alpha virt. eigenvalues --    0.48904   0.50098   0.50875   0.51422   0.55373
 Alpha virt. eigenvalues --    0.56413   0.57079   0.58737   0.60520   0.62567
 Alpha virt. eigenvalues --    0.64791   0.66099   0.66376   0.66712   0.70299
 Alpha virt. eigenvalues --    0.72456   0.76844   0.76853   0.80170   0.81316
 Alpha virt. eigenvalues --    0.85157   0.86646   0.87668   0.91188   0.92058
 Alpha virt. eigenvalues --    0.92585   0.94277   0.95341   0.98317   0.98771
 Alpha virt. eigenvalues --    0.99100   1.02221   1.03345   1.04327   1.06393
 Alpha virt. eigenvalues --    1.08314   1.08759   1.10020   1.11468   1.15121
 Alpha virt. eigenvalues --    1.17215   1.17285   1.18005   1.19954   1.22334
 Alpha virt. eigenvalues --    1.22927   1.23398   1.24788   1.29487   1.30485
 Alpha virt. eigenvalues --    1.34556   1.36211   1.37734   1.40627   1.44216
 Alpha virt. eigenvalues --    1.45843   1.49199   1.49385   1.49684   1.50642
 Alpha virt. eigenvalues --    1.52056   1.54029   1.54532   1.57970   1.58340
 Alpha virt. eigenvalues --    1.59716   1.60428   1.64127   1.65120   1.67063
 Alpha virt. eigenvalues --    1.67102   1.68334   1.70901   1.74101   1.74214
 Alpha virt. eigenvalues --    1.75361   1.75736   1.79426   1.79601   1.81503
 Alpha virt. eigenvalues --    1.83563   1.87378   1.88327   1.90818   1.92948
 Alpha virt. eigenvalues --    1.93201   1.96172   1.96717   2.00255   2.00925
 Alpha virt. eigenvalues --    2.05758   2.06554   2.09623   2.12288   2.13541
 Alpha virt. eigenvalues --    2.18577   2.20736   2.24055   2.28271   2.30130
 Alpha virt. eigenvalues --    2.30935   2.33758   2.35286   2.36209   2.39142
 Alpha virt. eigenvalues --    2.40003   2.42631   2.45638   2.47314   2.48146
 Alpha virt. eigenvalues --    2.49248   2.50954   2.53418   2.53548   2.54087
 Alpha virt. eigenvalues --    2.58113   2.60864   2.61667   2.62936   2.63551
 Alpha virt. eigenvalues --    2.64210   2.66588   2.67955   2.68820   2.70073
 Alpha virt. eigenvalues --    2.70899   2.72795   2.73784   2.75888   2.76873
 Alpha virt. eigenvalues --    2.77093   2.79779   2.80354   2.80905   2.82545
 Alpha virt. eigenvalues --    2.86761   2.88155   2.89332   2.91458   2.93370
 Alpha virt. eigenvalues --    2.95569   2.96059   2.97267   3.00446   3.00878
 Alpha virt. eigenvalues --    3.01422   3.05249   3.06794   3.07294   3.09045
 Alpha virt. eigenvalues --    3.12198   3.12959   3.14628   3.16336   3.16431
 Alpha virt. eigenvalues --    3.20494   3.23441   3.23476   3.24612   3.26025
 Alpha virt. eigenvalues --    3.27129   3.27632   3.28072   3.28212   3.31411
 Alpha virt. eigenvalues --    3.32852   3.34512   3.36642   3.38868   3.38975
 Alpha virt. eigenvalues --    3.42515   3.44170   3.47224   3.47926   3.48592
 Alpha virt. eigenvalues --    3.49670   3.51969   3.53135   3.54897   3.57242
 Alpha virt. eigenvalues --    3.58321   3.58765   3.60863   3.66056   3.68064
 Alpha virt. eigenvalues --    3.69005   3.70370   3.75253   3.76721   3.79328
 Alpha virt. eigenvalues --    3.81740   3.86073   3.88806   3.89691   3.98413
 Alpha virt. eigenvalues --    4.01807   4.03360   4.03815   4.04400   4.06220
 Alpha virt. eigenvalues --    4.06662   4.08318   4.10650   4.13336   4.17852
 Alpha virt. eigenvalues --    4.20287   4.21272   4.25109   4.26784   4.29744
 Alpha virt. eigenvalues --    4.33350   4.33494   4.39610   4.44901   4.47868
 Alpha virt. eigenvalues --    4.55045   4.58104   4.59826   4.64515   4.68811
 Alpha virt. eigenvalues --    4.69884   4.77857   4.78625   4.84711   4.84983
 Alpha virt. eigenvalues --    4.95644   4.98628   5.01521   5.03985   5.15121
 Alpha virt. eigenvalues --    5.16920   5.35003  22.13744  22.37158  22.41579
 Alpha virt. eigenvalues --   22.41920  22.56995  22.67579  22.76091  22.96620
          Condensed to atoms (all electrons):
               1          2          3          4          5          6
     1  C    5.078505   0.513328   0.278922   0.404623  -0.127020  -0.077832
     2  C    0.513328   4.980379  -0.016110  -0.050139  -0.012290   0.495641
     3  C    0.278922  -0.016110   4.956651  -0.039512   0.379722   0.015218
     4  H    0.404623  -0.050139  -0.039512   0.593265   0.004344   0.010482
     5  C   -0.127020  -0.012290   0.379722   0.004344   4.956734   0.007294
     6  C   -0.077832   0.495641   0.015218   0.010482   0.007294   5.031400
     7  H   -0.046497   0.410435   0.009169  -0.010968  -0.001413  -0.042164
     8  H   -0.032038   0.006477   0.389555  -0.009721  -0.035989  -0.000970
     9  H   -0.033492  -0.012027   0.396696   0.005099  -0.045928   0.003271
    10  C    0.152017  -0.011399  -0.127013  -0.006160   0.278904  -0.034127
    11  H   -0.003651  -0.041550   0.001213  -0.000501  -0.006592   0.414917
    12  H    0.009598  -0.043757  -0.000942  -0.000253   0.000301   0.411911
    13  H    0.013198  -0.000943  -0.035988   0.000213   0.389546  -0.000227
    14  H    0.011279   0.004135  -0.045931  -0.000879   0.396700  -0.006540
    15  C   -0.011393  -0.129405  -0.012307   0.001925  -0.016046  -0.030502
    16  H   -0.006161   0.001928   0.004347  -0.004522  -0.039531   0.000159
    17  C   -0.034131  -0.030475   0.007291   0.000160   0.015230   0.118976
    18  H   -0.001227  -0.000054  -0.001413   0.000077   0.009167  -0.001559
    19  H    0.003466  -0.003751  -0.006593  -0.000052   0.001221  -0.025732
    20  H    0.000064   0.002161   0.000301  -0.000003  -0.000944   0.001340
               7          8          9         10         11         12
     1  C   -0.046497  -0.032038  -0.033492   0.152017  -0.003651   0.009598
     2  C    0.410435   0.006477  -0.012027  -0.011399  -0.041550  -0.043757
     3  C    0.009169   0.389555   0.396696  -0.127013   0.001213  -0.000942
     4  H   -0.010968  -0.009721   0.005099  -0.006160  -0.000501  -0.000253
     5  C   -0.001413  -0.035989  -0.045928   0.278904  -0.006592   0.000301
     6  C   -0.042164  -0.000970   0.003271  -0.034127   0.414917   0.411911
     7  H    0.598217  -0.000286   0.000004  -0.001227   0.006775  -0.008638
     8  H   -0.000286   0.613545  -0.024473   0.013199   0.000361  -0.000009
     9  H    0.000004  -0.024473   0.609557   0.011277   0.004677   0.000254
    10  C   -0.001227   0.013199   0.011277   5.078454   0.003465   0.000064
    11  H    0.006775   0.000361   0.004677   0.003465   0.563240  -0.030252
    12  H   -0.008638  -0.000009   0.000254   0.000064  -0.030252   0.543350
    13  H    0.000045  -0.012636   0.006803  -0.032030   0.000176   0.000003
    14  H    0.000085   0.006804  -0.009353  -0.033499   0.001905  -0.000039
    15  C   -0.000052  -0.000943   0.004136   0.513236  -0.003751   0.002161
    16  H    0.000077   0.000213  -0.000879   0.404642  -0.000052  -0.000003
    17  C   -0.001558  -0.000228  -0.006540  -0.077886  -0.025730   0.001340
    18  H   -0.000349   0.000045   0.000085  -0.046497  -0.000052   0.000148
    19  H   -0.000052   0.000176   0.001905  -0.003667  -0.001548   0.001059
    20  H    0.000148   0.000003  -0.000039   0.009604   0.001059  -0.002103
              13         14         15         16         17         18
     1  C    0.013198   0.011279  -0.011393  -0.006161  -0.034131  -0.001227
     2  C   -0.000943   0.004135  -0.129405   0.001928  -0.030475  -0.000054
     3  C   -0.035988  -0.045931  -0.012307   0.004347   0.007291  -0.001413
     4  H    0.000213  -0.000879   0.001925  -0.004522   0.000160   0.000077
     5  C    0.389546   0.396700  -0.016046  -0.039531   0.015230   0.009167
     6  C   -0.000227  -0.006540  -0.030502   0.000159   0.118976  -0.001559
     7  H    0.000045   0.000085  -0.000052   0.000077  -0.001558  -0.000349
     8  H   -0.012636   0.006804  -0.000943   0.000213  -0.000228   0.000045
     9  H    0.006803  -0.009353   0.004136  -0.000879  -0.006540   0.000085
    10  C   -0.032030  -0.033499   0.513236   0.404642  -0.077886  -0.046497
    11  H    0.000176   0.001905  -0.003751  -0.000052  -0.025730  -0.000052
    12  H    0.000003  -0.000039   0.002161  -0.000003   0.001340   0.000148
    13  H    0.613539  -0.024472   0.006476  -0.009720  -0.000970  -0.000286
    14  H   -0.024472   0.609553  -0.012027   0.005099   0.003268   0.000004
    15  C    0.006476  -0.012027   4.980570  -0.050156   0.495620   0.410438
    16  H   -0.009720   0.005099  -0.050156   0.593275   0.010485  -0.010968
    17  C   -0.000970   0.003268   0.495620   0.010485   5.031386  -0.042164
    18  H   -0.000286   0.000004   0.410438  -0.010968  -0.042164   0.598211
    19  H    0.000361   0.004676  -0.041524  -0.000502   0.414903   0.006776
    20  H   -0.000009   0.000254  -0.043768  -0.000253   0.411919  -0.008639
              19         20
     1  C    0.003466   0.000064
     2  C   -0.003751   0.002161
     3  C   -0.006593   0.000301
     4  H   -0.000052  -0.000003
     5  C    0.001221  -0.000944
     6  C   -0.025732   0.001340
     7  H   -0.000052   0.000148
     8  H    0.000176   0.000003
     9  H    0.001905  -0.000039
    10  C   -0.003667   0.009604
    11  H   -0.001548   0.001059
    12  H    0.001059  -0.002103
    13  H    0.000361  -0.000009
    14  H    0.004676   0.000254
    15  C   -0.041524  -0.043768
    16  H   -0.000502  -0.000253
    17  C    0.414903   0.411919
    18  H    0.006776  -0.008639
    19  H    0.563249  -0.030254
    20  H   -0.030254   0.543352
 Mulliken charges:
               1
     1  C   -0.091558
     2  C   -0.062581
     3  C   -0.153274
     4  H    0.102523
     5  C   -0.153410
     6  C   -0.290955
     7  H    0.088248
     8  H    0.086915
     9  H    0.088968
    10  C   -0.091355
    11  H    0.115891
    12  H    0.115808
    13  H    0.086920
    14  H    0.088980
    15  C   -0.062689
    16  H    0.102521
    17  C   -0.290896
    18  H    0.088256
    19  H    0.115883
    20  H    0.115807
 Sum of Mulliken charges =  -0.00000
 Mulliken charges with hydrogens summed into heavy atoms:
               1
     1  C    0.010965
     2  C    0.025667
     3  C    0.022609
     5  C    0.022490
     6  C   -0.059257
    10  C    0.011165
    15  C    0.025567
    17  C   -0.059207
 Electronic spatial extent (au):  <R**2>=           1350.7516
 Charge=             -0.0000 electrons
 Dipole moment (field-independent basis, Debye):
    X=             -0.0940    Y=              0.1088    Z=             -0.4312  Tot=              0.4546
 Quadrupole moment (field-independent basis, Debye-Ang):
   XX=            -48.7134   YY=            -55.7812   ZZ=            -48.7326
   XY=              0.6673   XZ=              0.2225   YZ=             -1.4888
 Traceless Quadrupole moment (field-independent basis, Debye-Ang):
   XX=              2.3624   YY=             -4.7055   ZZ=              2.3431
   XY=              0.6673   XZ=              0.2225   YZ=             -1.4888
 Octapole moment (field-independent basis, Debye-Ang**2):
  XXX=           -104.9553  YYY=            198.0556  ZZZ=            -56.1426  XYY=            -43.5997
  XXY=             58.4752  XXZ=            -17.7639  XZZ=            -36.5162  YZZ=             54.6285
  YYZ=            -18.9470  XYZ=             -1.3771
 Hexadecapole moment (field-independent basis, Debye-Ang**3):
 XXXX=           -371.3041 YYYY=          -1023.4622 ZZZZ=           -573.8631 XXXY=            133.5897
 XXXZ=            -27.9055 YYYX=            168.2949 YYYZ=             66.1083 ZZZX=            -31.6394
 ZZZY=             65.9780 XXYY=           -222.1085 XXZZ=           -165.0069 YYZZ=           -248.0874
 XXYZ=             24.5306 YYXZ=            -11.9147 ZZXY=             42.5021
 N-N= 3.682317443619D+02 E-N=-1.459185591423D+03  KE= 3.103512423971D+02
 1\1\GINC-BHC0008\SP\RB3LYP\def2TZVP\C8H12\DHANAWAY\10-Jun-2022\0\\# sp
  B3LYP/Def2TZVP NoSymm\\ts_initalOpt_zmat_AlignedSp\\0,1\C\C,1,1.39163
 579\C,1,1.52389169,2,123.93287596\H,1,1.08383243,2,117.05931457,3,-161
 .13550565,0\C,3,1.539197,1,102.25231488,2,100.07311151,0\C,2,1.3767660
 4,1,124.75683339,3,-18.89227106,0\H,2,1.08651243,1,116.33961679,6,-165
 .07196146,0\H,3,1.09159028,1,110.76214572,5,120.21326474,0\H,3,1.09155
 584,1,111.71164813,5,-120.90954374,0\C,5,1.52389253,3,102.25227276,1,-
 0.00017753,0\H,6,1.07997689,2,121.28354233,1,25.70266865,0\H,6,1.08160
 002,2,120.14809084,11,159.52711969,0\H,5,1.09159039,3,112.61872193,10,
 118.91140119,0\H,5,1.09155591,3,112.82168101,10,-120.13858274,0\C,10,1
 .39163729,5,123.9329063,3,-100.07284942,0\H,10,1.08383308,5,116.438696
 93,15,-161.24199967,0\C,15,1.3767659,10,124.75674813,5,18.89244735,0\H
 ,15,1.08651206,10,116.33963262,17,165.07176127,0\H,17,1.07997664,15,12
 1.28355407,10,-25.70280029,0\H,17,1.08160072,15,120.14802235,19,-159.5
 2692176,0\\Version=ES64L-G16RevA.03\HF=-312.079788\RMSD=4.178e-09\Dipo
 le=-0.0369983,0.0427951,-0.1696548\Quadrupole=1.7563629,-3.4984343,1.7
 420714,0.4961005,0.1653907,-1.106905\PG=C01 [X(C8H12)]\\@


 IT IS A QUALITY OF REVOLUTIONS NOT TO GO BY OLD LINES OR OLD LAWS,
 BUT TO BREAK UP BOTH, AND MAKE NEW ONES.
                                              -- A. LINCOLN (1848)
 Job cpu time:       0 days  0 hours 14 minutes 50.9 seconds.
 Elapsed time:       0 days  0 hours  1 minutes 14.6 seconds.
 File lengths (MBytes):  RWF=     60 Int=      0 D2E=      0 Chk=     32 Scr=      1
 Normal termination of Gaussian 16 at Fri Jun 10 22:24:20 2022.
