 Entering Gaussian System, Link 0=g16
 Input=int_initalOptXYZ_aligned_sp.gjf
 Output=int_initalOptXYZ_aligned_sp.out
 Initial command:
 /software/gaussian/g16-a03/l1.exe "/local_scratch/11171195/Gau-19991.inp" -scrdir="/local_scratch/11171195/"
 Entering Link 1 = /software/gaussian/g16-a03/l1.exe PID=     19992.
  
 Copyright (c) 1988,1990,1992,1993,1995,1998,2003,2009,2016,
            Gaussian, Inc.  All Rights Reserved.
  
 This is part of the Gaussian(R) 16 program.  It is based on
 the Gaussian(R) 09 system (copyright 2009, Gaussian, Inc.),
 the Gaussian(R) 03 system (copyright 2003, Gaussian, Inc.),
 the Gaussian(R) 98 system (copyright 1998, Gaussian, Inc.),
 the Gaussian(R) 94 system (copyright 1995, Gaussian, Inc.),
 the Gaussian 92(TM) system (copyright 1992, Gaussian, Inc.),
 the Gaussian 90(TM) system (copyright 1990, Gaussian, Inc.),
 the Gaussian 88(TM) system (copyright 1988, Gaussian, Inc.),
 the Gaussian 86(TM) system (copyright 1986, Carnegie Mellon
 University), and the Gaussian 82(TM) system (copyright 1983,
 Carnegie Mellon University). Gaussian is a federally registered
 trademark of Gaussian, Inc.
  
 This software contains proprietary and confidential information,
 including trade secrets, belonging to Gaussian, Inc.
  
 This software is provided under written license and may be
 used, copied, transmitted, or stored only in accord with that
 written license.
  
 The following legend is applicable only to US Government
 contracts under FAR:
  
                    RESTRICTED RIGHTS LEGEND
  
 Use, reproduction and disclosure by the US Government is
 subject to restrictions as set forth in subparagraphs (a)
 and (c) of the Commercial Computer Software - Restricted
 Rights clause in FAR 52.227-19.
  
 Gaussian, Inc.
 340 Quinnipiac St., Bldg. 40, Wallingford CT 06492
  
  
 ---------------------------------------------------------------
 Warning -- This program may not be used in any manner that
 competes with the business of Gaussian, Inc. or will provide
 assistance to any competitor of Gaussian, Inc.  The licensee
 of this program is prohibited from giving any competitor of
 Gaussian, Inc. access to this program.  By using this program,
 the user acknowledges that Gaussian, Inc. is engaged in the
 business of creating and licensing software in the field of
 computational chemistry and represents and warrants to the
 licensee that it is not a competitor of Gaussian, Inc. and that
 it will not use this program in any manner prohibited above.
 ---------------------------------------------------------------
  

 Cite this work as:
 Gaussian 16, Revision A.03,
 M. J. Frisch, G. W. Trucks, H. B. Schlegel, G. E. Scuseria, 
 M. A. Robb, J. R. Cheeseman, G. Scalmani, V. Barone, 
 G. A. Petersson, H. Nakatsuji, X. Li, M. Caricato, A. V. Marenich, 
 J. Bloino, B. G. Janesko, R. Gomperts, B. Mennucci, H. P. Hratchian, 
 J. V. Ortiz, A. F. Izmaylov, J. L. Sonnenberg, D. Williams-Young, 
 F. Ding, F. Lipparini, F. Egidi, J. Goings, B. Peng, A. Petrone, 
 T. Henderson, D. Ranasinghe, V. G. Zakrzewski, J. Gao, N. Rega, 
 G. Zheng, W. Liang, M. Hada, M. Ehara, K. Toyota, R. Fukuda, 
 J. Hasegawa, M. Ishida, T. Nakajima, Y. Honda, O. Kitao, H. Nakai, 
 T. Vreven, K. Throssell, J. A. Montgomery, Jr., J. E. Peralta, 
 F. Ogliaro, M. J. Bearpark, J. J. Heyd, E. N. Brothers, K. N. Kudin, 
 V. N. Staroverov, T. A. Keith, R. Kobayashi, J. Normand, 
 K. Raghavachari, A. P. Rendell, J. C. Burant, S. S. Iyengar, 
 J. Tomasi, M. Cossi, J. M. Millam, M. Klene, C. Adamo, R. Cammi, 
 J. W. Ochterski, R. L. Martin, K. Morokuma, O. Farkas, 
 J. B. Foresman, and D. J. Fox, Gaussian, Inc., Wallingford CT, 2016.
 
 ******************************************
 Gaussian 16:  ES64L-G16RevA.03 25-Dec-2016
                10-Jun-2022 
 ******************************************
 %nprocshared=12
 Will use up to   12 processors via shared memory.
 %chk=checkpoint.chk
 %mem=12GB
 --------------------------
 # sp B3LYP/Def2TZVP NoSymm
 --------------------------
 1/38=1,172=1/1;
 2/12=2,15=1,17=6,18=5,40=1/2;
 3/5=44,7=101,11=2,25=1,30=1,74=-5/1,2,3;
 4//1;
 5/5=2,38=5/2;
 6/7=2,8=2,9=2,10=2,28=1/1;
 99/5=1,9=1/99;
 ----------------------------------
 int_initalOptXYZ_aligned_AlignedSp
 ----------------------------------
 Symbolic Z-matrix:
 Charge =  0 Multiplicity = 1
 6                     0.56634   1.04124  -0.03403 
 6                    -0.84171   0.86326   0.02756 
 6                    -1.08727  -0.48819  -0.00734 
 7                     0.12167  -1.1287   -0.08763 
 6                     1.13594  -0.20716  -0.10458 
 1                     2.16643  -0.51154  -0.16467 
 1                     1.10048   1.97667  -0.02739 
 1                    -1.58883   1.63672   0.09023 
 1                    -2.01111  -1.0396    0.01804 
 1                     0.2457   -2.12383  -0.12799 
 
                          Input orientation:                          
 ---------------------------------------------------------------------
 Center     Atomic      Atomic             Coordinates (Angstroms)
 Number     Number       Type             X           Y           Z
 ---------------------------------------------------------------------
      1          6           0        0.566344    1.041244   -0.034026
      2          6           0       -0.841705    0.863259    0.027557
      3          6           0       -1.087275   -0.488189   -0.007343
      4          7           0        0.121670   -1.128698   -0.087634
      5          6           0        1.135937   -0.207163   -0.104577
      6          1           0        2.166428   -0.511540   -0.164669
      7          1           0        1.100483    1.976665   -0.027389
      8          1           0       -1.588825    1.636723    0.090230
      9          1           0       -2.011109   -1.039602    0.018037
     10          1           0        0.245695   -2.123830   -0.127987
 ---------------------------------------------------------------------
                    Distance matrix (angstroms):
                    1          2          3          4          5
     1  C    0.000000
     2  C    1.420589   0.000000
     3  C    2.252628   1.374021   0.000000
     4  N    2.215684   2.215683   1.370491   0.000000
     5  C    1.374021   2.252627   2.243012   1.370493   0.000000
     6  H    2.233489   3.312988   3.257588   2.137254   1.076182
     7  H    1.077201   2.239372   3.295784   3.256529   2.185479
     8  H    2.239372   1.077201   2.185480   3.256529   3.295784
     9  H    3.312989   2.233490   1.076183   2.137253   3.257589
    10  H    3.182662   3.182661   2.113453   1.003642   2.113455
                    6          7          8          9         10
     6  H    0.000000
     7  H    2.710396   0.000000
     8  H    4.333813   2.713259   0.000000
     9  H    4.214742   4.333813   2.710397   0.000000
    10  H    2.507995   4.189850   4.189850   2.507995   0.000000
 Symmetry turned off by external request.
 Stoichiometry    C4H5N
 Framework group  C1[X(C4H5N)]
 Deg. of freedom    24
 Full point group                 C1      NOp   1
 Rotational constants (GHZ):           9.1960221           9.0642704           4.5648355
 Standard basis: def2TZVP (5D, 7F)
   185 basis functions,   295 primitive gaussians,   210 cartesian basis functions
    18 alpha electrons       18 beta electrons
       nuclear repulsion energy       161.2775698833 Hartrees.
 NAtoms=   10 NActive=   10 NUniq=   10 SFac= 1.00D+00 NAtFMM=   60 NAOKFM=F Big=F
 Integral buffers will be    131072 words long.
 Raffenetti 2 integral format.
 Two-electron integral symmetry is turned off.
 One-electron integrals computed using PRISM.
   1 Symmetry operations used in ECPInt.
 ECPInt:  NShTT=    2850 NPrTT=    8640 LenC2=    2844 LenP2D=    7462.
 LDataN:  DoStor=T MaxTD1= 6 Len=  172
 NBasis=   185 RedAO= T EigKep=  5.47D-05  NBF=   185
 NBsUse=   185 1.00D-06 EigRej= -1.00D+00 NBFU=   185
 ExpMin= 9.52D-02 ExpMax= 1.97D+04 ExpMxC= 6.73D+02 IAcc=3 IRadAn=         5 AccDes= 0.00D+00
 Harris functional with IExCor=  402 and IRadAn=       5 diagonalized for initial guess.
 HarFok:  IExCor=  402 AccDes= 0.00D+00 IRadAn=         5 IDoV= 1 UseB2=F ITyADJ=14
 ICtDFT=  3500011 ScaDFX=  1.000000  1.000000  1.000000  1.000000
 FoFCou: FMM=F IPFlag=           0 FMFlag=      100000 FMFlg1=           0
         NFxFlg=           0 DoJE=T BraDBF=F KetDBF=T FulRan=T
         wScrn=  0.000000 ICntrl=       500 IOpCl=  0 I1Cent=   200000004 NGrid=           0
         NMat0=    1 NMatS0=      1 NMatT0=    0 NMatD0=    1 NMtDS0=    0 NMtDT0=    0
 Symmetry not used in FoFCou.
 Keep R1 ints in memory in canonical form, NReq=160464041.
 Requested convergence on RMS density matrix=1.00D-08 within 128 cycles.
 Requested convergence on MAX density matrix=1.00D-06.
 Requested convergence on             energy=1.00D-06.
 No special actions if energy rises.
 Integral accuracy reduced to 1.0D-05 until final iterations.
 Initial convergence to 1.0D-05 achieved.  Increase integral accuracy.
 SCF Done:  E(RB3LYP) =  -210.253439480     A.U. after   12 cycles
            NFock= 12  Conv=0.69D-08     -V/T= 2.0051

 **********************************************************************

            Population analysis using the SCF density.

 **********************************************************************

 Alpha  occ. eigenvalues --  -14.35971 -10.18827 -10.18824 -10.15226 -10.15181
 Alpha  occ. eigenvalues --   -0.97700  -0.77291  -0.72071  -0.59105  -0.56575
 Alpha  occ. eigenvalues --   -0.54566  -0.43157  -0.42480  -0.40950  -0.39027
 Alpha  occ. eigenvalues --   -0.37654  -0.24775  -0.21672
 Alpha virt. eigenvalues --    0.02870   0.02882   0.06955   0.08053   0.08873
 Alpha virt. eigenvalues --    0.10058   0.10708   0.14188   0.17867   0.19525
 Alpha virt. eigenvalues --    0.20843   0.20869   0.21184   0.25813   0.26324
 Alpha virt. eigenvalues --    0.27875   0.28553   0.33765   0.35778   0.36103
 Alpha virt. eigenvalues --    0.37844   0.39563   0.41881   0.41934   0.42762
 Alpha virt. eigenvalues --    0.42820   0.44702   0.46188   0.49982   0.51520
 Alpha virt. eigenvalues --    0.54019   0.57273   0.59526   0.62466   0.65688
 Alpha virt. eigenvalues --    0.65765   0.72584   0.75106   0.75333   0.77163
 Alpha virt. eigenvalues --    0.84155   0.89109   0.94475   0.96080   0.97065
 Alpha virt. eigenvalues --    1.00191   1.05893   1.08575   1.09377   1.11397
 Alpha virt. eigenvalues --    1.15148   1.19077   1.19994   1.27752   1.27994
 Alpha virt. eigenvalues --    1.28000   1.29819   1.32906   1.43455   1.43467
 Alpha virt. eigenvalues --    1.45585   1.46978   1.50270   1.52026   1.54442
 Alpha virt. eigenvalues --    1.60193   1.60206   1.62066   1.64099   1.67084
 Alpha virt. eigenvalues --    1.69721   1.77192   1.87654   1.89351   1.93652
 Alpha virt. eigenvalues --    1.95829   1.96714   1.98720   2.07286   2.12257
 Alpha virt. eigenvalues --    2.15508   2.18746   2.21562   2.24031   2.24863
 Alpha virt. eigenvalues --    2.26980   2.39287   2.45794   2.49922   2.54358
 Alpha virt. eigenvalues --    2.54991   2.60771   2.61852   2.63383   2.64613
 Alpha virt. eigenvalues --    2.66553   2.69942   2.71933   2.73586   2.75049
 Alpha virt. eigenvalues --    2.77736   2.84276   2.84463   2.87688   2.94188
 Alpha virt. eigenvalues --    2.98947   2.99672   3.01557   3.03769   3.05413
 Alpha virt. eigenvalues --    3.05643   3.08278   3.09790   3.12136   3.17785
 Alpha virt. eigenvalues --    3.18799   3.27495   3.28676   3.29578   3.29831
 Alpha virt. eigenvalues --    3.35348   3.39172   3.45163   3.48393   3.48922
 Alpha virt. eigenvalues --    3.49737   3.53546   3.57064   3.60437   3.64373
 Alpha virt. eigenvalues --    3.81890   3.88821   3.97157   4.00771   4.10984
 Alpha virt. eigenvalues --    4.12443   4.19721   4.20569   4.23305   4.29655
 Alpha virt. eigenvalues --    4.31933   4.36715   4.36934   4.56221   4.63967
 Alpha virt. eigenvalues --    4.69301   4.71930   4.75483   4.81780   4.86126
 Alpha virt. eigenvalues --    4.86715   4.96050   5.01588   5.04401   5.19630
 Alpha virt. eigenvalues --    5.20193   5.26760   5.43828   5.48023   5.62695
 Alpha virt. eigenvalues --    5.80599   5.94245  22.13844  22.50134  22.66734
 Alpha virt. eigenvalues --   22.85590  32.19136
          Condensed to atoms (all electrons):
               1          2          3          4          5          6
     1  C    4.875126   0.507372  -0.064235  -0.100824   0.580940  -0.025498
     2  C    0.507372   4.875180   0.580930  -0.100835  -0.064227   0.005362
     3  C   -0.064235   0.580930   4.953999   0.400232  -0.148700   0.006789
     4  N   -0.100824  -0.100835   0.400232   6.303232   0.400222  -0.036371
     5  C    0.580940  -0.064227  -0.148700   0.400222   4.954023   0.411571
     6  H   -0.025498   0.005362   0.006789  -0.036371   0.411571   0.516736
     7  H    0.434789  -0.051367   0.013706   0.005152  -0.053036  -0.002148
     8  H   -0.051366   0.434787  -0.053035   0.005152   0.013706  -0.000161
     9  H    0.005363  -0.025498   0.411571  -0.036370   0.006789  -0.000177
    10  H    0.008098   0.008099  -0.041114   0.380635  -0.041113  -0.004118
               7          8          9         10
     1  C    0.434789  -0.051366   0.005363   0.008098
     2  C   -0.051367   0.434787  -0.025498   0.008099
     3  C    0.013706  -0.053035   0.411571  -0.041114
     4  N    0.005152   0.005152  -0.036370   0.380635
     5  C   -0.053036   0.013706   0.006789  -0.041113
     6  H   -0.002148  -0.000161  -0.000177  -0.004118
     7  H    0.552627  -0.004277  -0.000160  -0.000270
     8  H   -0.004277   0.552628  -0.002148  -0.000270
     9  H   -0.000160  -0.002148   0.516735  -0.004118
    10  H   -0.000270  -0.000270  -0.004118   0.480057
 Mulliken charges:
               1
     1  C   -0.169764
     2  C   -0.169803
     3  C   -0.060144
     4  N   -0.220225
     5  C   -0.060174
     6  H    0.128012
     7  H    0.104985
     8  H    0.104984
     9  H    0.128014
    10  H    0.214115
 Sum of Mulliken charges =  -0.00000
 Mulliken charges with hydrogens summed into heavy atoms:
               1
     1  C   -0.064779
     2  C   -0.064819
     3  C    0.067870
     4  N   -0.006110
     5  C    0.067838
 Electronic spatial extent (au):  <R**2>=            305.5155
 Charge=             -0.0000 electrons
 Dipole moment (field-independent basis, Debye):
    X=              0.2358    Y=             -1.8921    Z=             -0.0767  Tot=              1.9083
 Quadrupole moment (field-independent basis, Debye-Ang):
   XX=            -27.1420   YY=            -23.8569   ZZ=            -34.0206
   XY=             -0.3664   XZ=             -0.3554   YZ=              0.4511
 Traceless Quadrupole moment (field-independent basis, Debye-Ang):
   XX=              1.1979   YY=              4.4829   ZZ=             -5.6808
   XY=             -0.3664   XZ=             -0.3554   YZ=              0.4511
 Octapole moment (field-independent basis, Debye-Ang**2):
  XXX=              2.3805  YYY=            -10.9232  ZZZ=              4.0664  XYY=              1.2627
  XXY=             -2.2592  XXZ=              1.0508  XZZ=              0.8895  YZZ=             -1.7341
  YYZ=              0.6990  XYZ=              0.0571
 Hexadecapole moment (field-independent basis, Debye-Ang**3):
 XXXX=           -178.8273 YYYY=           -151.3233 ZZZZ=            -41.6630 XXXY=             -1.1487
 XXXZ=              1.9607 YYYX=             -2.1401 YYYZ=             -0.3384 ZZZX=              4.3745
 ZZZY=             -2.6234 XXYY=            -56.3602 XXZZ=            -45.0503 YYZZ=            -41.6908
 XXYZ=             -0.2824 YYXZ=              0.6091 ZZXY=             -0.5082
 N-N= 1.612775698833D+02 E-N=-8.110615743679D+02  KE= 2.091871023921D+02
 1\1\GINC-BHC0068\SP\RB3LYP\def2TZVP\C4H5N1\DHANAWAY\10-Jun-2022\0\\# s
 p B3LYP/Def2TZVP NoSymm\\int_initalOptXYZ_aligned_AlignedSp\\0,1\C,0,0
 .566344,1.041244,-0.034026\C,0,-0.841705,0.863259,0.027557\C,0,-1.0872
 75,-0.488189,-0.007343\N,0,0.12167,-1.128698,-0.087634\C,0,1.135937,-0
 .207163,-0.104577\H,0,2.166428,-0.51154,-0.164669\H,0,1.100483,1.97666
 5,-0.027389\H,0,-1.588825,1.636723,0.09023\H,0,-2.011109,-1.039602,0.0
 18037\H,0,0.245695,-2.12383,-0.127987\\Version=ES64L-G16RevA.03\HF=-21
 0.2534395\RMSD=6.866e-09\Dipole=0.0927796,-0.74441,-0.0301854\Quadrupo
 le=0.8905866,3.3329361,-4.2235227,-0.2724041,-0.2642277,0.3353493\PG=C
 01 [X(C4H5N1)]\\@


 I DON'T PRETEND TO UNDERSTAND THE UNIVERSE --
 IT'S A GREAT DEAL BIGGER THAN I AM.
       -- ATTR. TO WILLIAM ALLINGHAM (1828-89)
 Job cpu time:       0 days  0 hours  1 minutes 49.8 seconds.
 Elapsed time:       0 days  0 hours  0 minutes 12.3 seconds.
 File lengths (MBytes):  RWF=     19 Int=      0 D2E=      0 Chk=     32 Scr=      1
 Normal termination of Gaussian 16 at Fri Jun 10 01:43:36 2022.
