 Entering Gaussian System, Link 0=g16
 Input=ts_initalOpt_zmat_sp.gjf
 Output=ts_initalOpt_zmat_sp.out
 Initial command:
 /software/gaussian/g16-a03/l1.exe "/local_scratch/11171701/Gau-15584.inp" -scrdir="/local_scratch/11171701/"
 Entering Link 1 = /software/gaussian/g16-a03/l1.exe PID=     15585.
  
 Copyright (c) 1988,1990,1992,1993,1995,1998,2003,2009,2016,
            Gaussian, Inc.  All Rights Reserved.
  
 This is part of the Gaussian(R) 16 program.  It is based on
 the Gaussian(R) 09 system (copyright 2009, Gaussian, Inc.),
 the Gaussian(R) 03 system (copyright 2003, Gaussian, Inc.),
 the Gaussian(R) 98 system (copyright 1998, Gaussian, Inc.),
 the Gaussian(R) 94 system (copyright 1995, Gaussian, Inc.),
 the Gaussian 92(TM) system (copyright 1992, Gaussian, Inc.),
 the Gaussian 90(TM) system (copyright 1990, Gaussian, Inc.),
 the Gaussian 88(TM) system (copyright 1988, Gaussian, Inc.),
 the Gaussian 86(TM) system (copyright 1986, Carnegie Mellon
 University), and the Gaussian 82(TM) system (copyright 1983,
 Carnegie Mellon University). Gaussian is a federally registered
 trademark of Gaussian, Inc.
  
 This software contains proprietary and confidential information,
 including trade secrets, belonging to Gaussian, Inc.
  
 This software is provided under written license and may be
 used, copied, transmitted, or stored only in accord with that
 written license.
  
 The following legend is applicable only to US Government
 contracts under FAR:
  
                    RESTRICTED RIGHTS LEGEND
  
 Use, reproduction and disclosure by the US Government is
 subject to restrictions as set forth in subparagraphs (a)
 and (c) of the Commercial Computer Software - Restricted
 Rights clause in FAR 52.227-19.
  
 Gaussian, Inc.
 340 Quinnipiac St., Bldg. 40, Wallingford CT 06492
  
  
 ---------------------------------------------------------------
 Warning -- This program may not be used in any manner that
 competes with the business of Gaussian, Inc. or will provide
 assistance to any competitor of Gaussian, Inc.  The licensee
 of this program is prohibited from giving any competitor of
 Gaussian, Inc. access to this program.  By using this program,
 the user acknowledges that Gaussian, Inc. is engaged in the
 business of creating and licensing software in the field of
 computational chemistry and represents and warrants to the
 licensee that it is not a competitor of Gaussian, Inc. and that
 it will not use this program in any manner prohibited above.
 ---------------------------------------------------------------
  

 Cite this work as:
 Gaussian 16, Revision A.03,
 M. J. Frisch, G. W. Trucks, H. B. Schlegel, G. E. Scuseria, 
 M. A. Robb, J. R. Cheeseman, G. Scalmani, V. Barone, 
 G. A. Petersson, H. Nakatsuji, X. Li, M. Caricato, A. V. Marenich, 
 J. Bloino, B. G. Janesko, R. Gomperts, B. Mennucci, H. P. Hratchian, 
 J. V. Ortiz, A. F. Izmaylov, J. L. Sonnenberg, D. Williams-Young, 
 F. Ding, F. Lipparini, F. Egidi, J. Goings, B. Peng, A. Petrone, 
 T. Henderson, D. Ranasinghe, V. G. Zakrzewski, J. Gao, N. Rega, 
 G. Zheng, W. Liang, M. Hada, M. Ehara, K. Toyota, R. Fukuda, 
 J. Hasegawa, M. Ishida, T. Nakajima, Y. Honda, O. Kitao, H. Nakai, 
 T. Vreven, K. Throssell, J. A. Montgomery, Jr., J. E. Peralta, 
 F. Ogliaro, M. J. Bearpark, J. J. Heyd, E. N. Brothers, K. N. Kudin, 
 V. N. Staroverov, T. A. Keith, R. Kobayashi, J. Normand, 
 K. Raghavachari, A. P. Rendell, J. C. Burant, S. S. Iyengar, 
 J. Tomasi, M. Cossi, J. M. Millam, M. Klene, C. Adamo, R. Cammi, 
 J. W. Ochterski, R. L. Martin, K. Morokuma, O. Farkas, 
 J. B. Foresman, and D. J. Fox, Gaussian, Inc., Wallingford CT, 2016.
 
 ******************************************
 Gaussian 16:  ES64L-G16RevA.03 25-Dec-2016
                10-Jun-2022 
 ******************************************
 %nprocshared=12
 Will use up to   12 processors via shared memory.
 %chk=checkpoint.chk
 %mem=12GB
 --------------------------
 # sp B3LYP/Def2TZVP NoSymm
 --------------------------
 1/38=1,172=1/1;
 2/12=2,15=1,17=6,18=5,40=1/2;
 3/5=44,7=101,11=2,25=1,30=1,74=-5/1,2,3;
 4//1;
 5/5=2,38=5/2;
 6/7=2,8=2,9=2,10=2,28=1/1;
 99/5=1,9=1/99;
 ---------------------------
 ts_initalOpt_zmat_AlignedSp
 ---------------------------
 Symbolic Z-matrix:
 Charge =  0 Multiplicity = 1
 C
 C                    1    R2
 C                    1    R3       2    A3
 H                    1    R4       2    A4       3    D4       0
 C                    3    R5       1    A5       2    D5       0
 H                    3    R6       1    A6       5    D6       0
 H                    3    R7       1    A7       5    D7       0
 C                    2    R8       1    A8       3    D8       0
 H                    2    R9       1    A9       8    D9       0
 H                    5    R10      3    A10      1    D10      0
 H                    5    R11      3    A11      10   D11      0
 H                    8    R12      2    A12      1    D12      0
 H                    8    R13      2    A13      12   D13      0
       Variables:
  R2                    1.38898                  
  R3                    1.50547                  
  R4                    1.08703                  
  R5                    1.45933                  
  R6                    1.09295                  
  R7                    1.09595                  
  R8                    1.36997                  
  R9                    1.09297                  
  R10                   1.07871                  
  R11                   1.08047                  
  R12                   1.07697                  
  R13                   1.08422                  
  A3                  123.46834                  
  A4                  118.91714                  
  A5                  103.43863                  
  A6                  112.24803                  
  A7                  107.97209                  
  A8                  127.86756                  
  A9                  114.76605                  
  A10                 122.85703                  
  A11                 119.03922                  
  A12                 120.90319                  
  A13                 121.23389                  
  D4                 -178.25373                  
  D5                   49.95402                  
  D6                 -122.96216                  
  D7                  118.46513                  
  D8                  -30.67262                  
  D9                  177.67396                  
  D10                -112.52617                  
  D11                 178.67074                  
  D12                 -34.33522                  
  D13                -169.52736                  
 
                          Input orientation:                          
 ---------------------------------------------------------------------
 Center     Atomic      Atomic             Coordinates (Angstroms)
 Number     Number       Type             X           Y           Z
 ---------------------------------------------------------------------
      1          6           0        0.000000    0.000000    0.000000
      2          6           0        0.000000    0.000000    1.388977
      3          6           0        1.255846    0.000000   -0.830229
      4          1           0       -0.951057    0.028995   -0.525627
      5          6           0        2.042387   -1.086568   -0.255459
      6          1           0        1.764069    0.967422   -0.811831
      7          1           0        0.974738   -0.209278   -1.868637
      8          6           0        0.930192   -0.551706    2.229917
      9          1           0       -0.832348    0.540505    1.846838
     10          1           0        2.964218   -0.922028    0.280055
     11          1           0        1.681867   -2.100901   -0.348029
     12          1           0        1.442731   -1.461690    1.967060
     13          1           0        1.055625   -0.190055    3.244321
 ---------------------------------------------------------------------
                    Distance matrix (angstroms):
                    1          2          3          4          5
     1  C    0.000000
     2  C    1.388977   0.000000
     3  C    1.505466   2.549907   0.000000
     4  H    1.087030   2.138003   2.228013   0.000000
     5  C    2.327495   2.838335   1.459328   3.205960   0.000000
     6  H    2.169542   2.981844   1.092947   2.886947   2.146133
     7  H    2.117951   3.406752   1.095952   2.359902   2.124113
     8  C    2.478339   1.369970   3.126487   3.386640   2.774914
     9  H    2.096607   1.092971   3.437933   2.429881   3.915497
    10  H    3.116914   3.296427   2.236381   4.108886   1.078713
    11  H    2.713593   3.203069   2.197224   3.391207   1.080469
    12  H    2.843824   2.133586   3.161691   3.763754   2.332358
    13  H    3.417028   2.143074   4.083891   4.276361   3.745116
                    6          7          8          9         10
     6  H    0.000000
     7  H    1.767627   0.000000
     8  C    3.500761   4.113075   0.000000
     9  H    3.740609   4.199106   2.108606   0.000000
    10  H    2.490501   3.013789   2.841894   4.359785   0.000000
    11  H    3.104267   2.527947   3.100133   4.256259   1.851662
    12  H    3.704872   4.062034   1.076968   3.033022   2.334982
    13  H    4.277150   5.113634   1.084224   2.459902   3.600747
                   11         12         13
    11  H    0.000000
    12  H    2.413589   0.000000
    13  H    4.116854   1.843449   0.000000
 Symmetry turned off by external request.
 Stoichiometry    C5H8
 Framework group  C1[X(C5H8)]
 Deg. of freedom    33
 Full point group                 C1      NOp   1
 Rotational constants (GHZ):           8.4972827           4.4922933           3.1937431
 Standard basis: def2TZVP (5D, 7F)
   203 basis functions,   319 primitive gaussians,   228 cartesian basis functions
    19 alpha electrons       19 beta electrons
       nuclear repulsion energy       162.0285214557 Hartrees.
 NAtoms=   13 NActive=   13 NUniq=   13 SFac= 1.00D+00 NAtFMM=   60 NAOKFM=F Big=F
 Integral buffers will be    131072 words long.
 Raffenetti 2 integral format.
 Two-electron integral symmetry is turned off.
 One-electron integrals computed using PRISM.
   1 Symmetry operations used in ECPInt.
 ECPInt:  NShTT=    3828 NPrTT=   11160 LenC2=    3812 LenP2D=    9471.
 LDataN:  DoStor=T MaxTD1= 6 Len=  172
 NBasis=   203 RedAO= T EigKep=  1.52D-04  NBF=   203
 NBsUse=   203 1.00D-06 EigRej= -1.00D+00 NBFU=   203
 ExpMin= 9.52D-02 ExpMax= 1.36D+04 ExpMxC= 4.63D+02 IAcc=3 IRadAn=         5 AccDes= 0.00D+00
 Harris functional with IExCor=  402 and IRadAn=       5 diagonalized for initial guess.
 HarFok:  IExCor=  402 AccDes= 0.00D+00 IRadAn=         5 IDoV= 1 UseB2=F ITyADJ=14
 ICtDFT=  3500011 ScaDFX=  1.000000  1.000000  1.000000  1.000000
 FoFCou: FMM=F IPFlag=           0 FMFlag=      100000 FMFlg1=           0
         NFxFlg=           0 DoJE=T BraDBF=F KetDBF=T FulRan=T
         wScrn=  0.000000 ICntrl=       500 IOpCl=  0 I1Cent=   200000004 NGrid=           0
         NMat0=    1 NMatS0=      1 NMatT0=    0 NMatD0=    1 NMtDS0=    0 NMtDT0=    0
 Symmetry not used in FoFCou.
 Requested convergence on RMS density matrix=1.00D-08 within 128 cycles.
 Requested convergence on MAX density matrix=1.00D-06.
 Requested convergence on             energy=1.00D-06.
 No special actions if energy rises.
 Integral accuracy reduced to 1.0D-05 until final iterations.
 Initial convergence to 1.0D-05 achieved.  Increase integral accuracy.
 SCF Done:  E(RB3LYP) =  -195.276145034     A.U. after   16 cycles
            NFock= 16  Conv=0.32D-08     -V/T= 2.0056

 **********************************************************************

            Population analysis using the SCF density.

 **********************************************************************

 Alpha  occ. eigenvalues --  -10.18740 -10.18600 -10.18469 -10.17559 -10.16489
 Alpha  occ. eigenvalues --   -0.82368  -0.75245  -0.67093  -0.60108  -0.53463
 Alpha  occ. eigenvalues --   -0.48759  -0.46778  -0.42583  -0.41454  -0.39516
 Alpha  occ. eigenvalues --   -0.36521  -0.35512  -0.27342  -0.18397
 Alpha virt. eigenvalues --   -0.08327   0.01288   0.04902   0.06718   0.07387
 Alpha virt. eigenvalues --    0.08207   0.10560   0.11562   0.13789   0.14193
 Alpha virt. eigenvalues --    0.17698   0.19088   0.19569   0.20430   0.22977
 Alpha virt. eigenvalues --    0.23743   0.24519   0.26393   0.26990   0.27590
 Alpha virt. eigenvalues --    0.29571   0.33155   0.33345   0.35838   0.37689
 Alpha virt. eigenvalues --    0.40393   0.40738   0.42117   0.42929   0.43168
 Alpha virt. eigenvalues --    0.43489   0.45988   0.46726   0.47211   0.49294
 Alpha virt. eigenvalues --    0.50133   0.51765   0.52838   0.55018   0.58211
 Alpha virt. eigenvalues --    0.61048   0.65755   0.68977   0.70621   0.78451
 Alpha virt. eigenvalues --    0.79712   0.85223   0.87603   0.89794   0.90822
 Alpha virt. eigenvalues --    0.95226   0.97059   0.99549   1.00442   1.01631
 Alpha virt. eigenvalues --    1.04449   1.04575   1.07023   1.10330   1.12102
 Alpha virt. eigenvalues --    1.18430   1.21119   1.22073   1.23439   1.27381
 Alpha virt. eigenvalues --    1.32995   1.39639   1.43052   1.45358   1.46146
 Alpha virt. eigenvalues --    1.47178   1.49968   1.54563   1.56681   1.57820
 Alpha virt. eigenvalues --    1.59661   1.61779   1.65847   1.67299   1.69117
 Alpha virt. eigenvalues --    1.72962   1.75890   1.76463   1.80698   1.82577
 Alpha virt. eigenvalues --    1.84419   1.88010   1.89276   1.90277   1.97669
 Alpha virt. eigenvalues --    1.99894   2.03543   2.08218   2.15440   2.16494
 Alpha virt. eigenvalues --    2.21521   2.24359   2.26263   2.26467   2.35037
 Alpha virt. eigenvalues --    2.36737   2.39596   2.43509   2.46708   2.48081
 Alpha virt. eigenvalues --    2.51036   2.53446   2.54813   2.57826   2.59531
 Alpha virt. eigenvalues --    2.60712   2.62274   2.63222   2.65524   2.70696
 Alpha virt. eigenvalues --    2.73297   2.75321   2.79191   2.79614   2.82505
 Alpha virt. eigenvalues --    2.87525   2.90331   2.91901   2.94470   2.96709
 Alpha virt. eigenvalues --    3.00995   3.01260   3.03201   3.05855   3.10546
 Alpha virt. eigenvalues --    3.12088   3.13427   3.15409   3.16146   3.19683
 Alpha virt. eigenvalues --    3.21507   3.22884   3.24753   3.26355   3.28747
 Alpha virt. eigenvalues --    3.31340   3.32302   3.36349   3.40243   3.41404
 Alpha virt. eigenvalues --    3.45226   3.50647   3.53891   3.55288   3.61248
 Alpha virt. eigenvalues --    3.63932   3.65216   3.66822   3.72068   3.78050
 Alpha virt. eigenvalues --    3.79190   3.90371   3.94230   3.97053   4.03174
 Alpha virt. eigenvalues --    4.06504   4.11443   4.12849   4.20051   4.20809
 Alpha virt. eigenvalues --    4.24612   4.35174   4.38893   4.47361   4.50282
 Alpha virt. eigenvalues --    4.57480   4.65401   4.68540   4.69379   4.73413
 Alpha virt. eigenvalues --    4.83298   4.87436   5.02110   5.10277  22.11167
 Alpha virt. eigenvalues --   22.22841  22.38064  22.48244  22.73007
          Condensed to atoms (all electrons):
               1          2          3          4          5          6
     1  C    5.192264   0.480622   0.329918   0.390671   0.001991  -0.051595
     2  C    0.480622   4.884679  -0.017035  -0.046089  -0.079410  -0.014952
     3  C    0.329918  -0.017035   4.797172  -0.053126   0.334006   0.384321
     4  H    0.390671  -0.046089  -0.053126   0.581321   0.014049   0.007643
     5  C    0.001991  -0.079410   0.334006   0.014049   5.258578  -0.027922
     6  H   -0.051595  -0.014952   0.384321   0.007643  -0.027922   0.610994
     7  H   -0.038593   0.002775   0.391876  -0.003113  -0.049436  -0.014940
     8  C   -0.083556   0.516193  -0.021603   0.007898   0.062554   0.009364
     9  H   -0.051792   0.402722   0.003274  -0.001925   0.005514   0.000119
    10  H    0.010285  -0.002989  -0.035677  -0.000427   0.407816  -0.006727
    11  H   -0.003193   0.003006  -0.045405   0.000247   0.414729   0.005316
    12  H   -0.015300  -0.030781   0.004429  -0.000281  -0.003451  -0.000587
    13  H    0.009503  -0.053967  -0.001404  -0.000148   0.005034   0.000376
               7          8          9         10         11         12
     1  C   -0.038593  -0.083556  -0.051792   0.010285  -0.003193  -0.015300
     2  C    0.002775   0.516193   0.402722  -0.002989   0.003006  -0.030781
     3  C    0.391876  -0.021603   0.003274  -0.035677  -0.045405   0.004429
     4  H   -0.003113   0.007898  -0.001925  -0.000427   0.000247  -0.000281
     5  C   -0.049436   0.062554   0.005514   0.407816   0.414729  -0.003451
     6  H   -0.014940   0.009364   0.000119  -0.006727   0.005316  -0.000587
     7  H    0.602716   0.002725   0.000037   0.004861  -0.005538  -0.000233
     8  C    0.002725   5.045583  -0.040025  -0.004897  -0.003558   0.413363
     9  H    0.000037  -0.040025   0.576548  -0.000049  -0.000134   0.005743
    10  H    0.004861  -0.004897  -0.000049   0.518602  -0.028876  -0.005785
    11  H   -0.005538  -0.003558  -0.000134  -0.028876   0.524701  -0.001749
    12  H   -0.000233   0.413363   0.005743  -0.005785  -0.001749   0.530491
    13  H    0.000072   0.408226  -0.005572   0.000850   0.000114  -0.034178
              13
     1  C    0.009503
     2  C   -0.053967
     3  C   -0.001404
     4  H   -0.000148
     5  C    0.005034
     6  H    0.000376
     7  H    0.000072
     8  C    0.408226
     9  H   -0.005572
    10  H    0.000850
    11  H    0.000114
    12  H   -0.034178
    13  H    0.563909
 Mulliken charges:
               1
     1  C   -0.171224
     2  C   -0.044774
     3  C   -0.070745
     4  H    0.103281
     5  C   -0.344053
     6  H    0.098590
     7  H    0.106792
     8  C   -0.312266
     9  H    0.105540
    10  H    0.143014
    11  H    0.140340
    12  H    0.138317
    13  H    0.107188
 Sum of Mulliken charges =  -0.00000
 Mulliken charges with hydrogens summed into heavy atoms:
               1
     1  C   -0.067942
     2  C    0.060767
     3  C    0.134637
     5  C   -0.060699
     8  C   -0.066762
 Electronic spatial extent (au):  <R**2>=            594.5396
 Charge=             -0.0000 electrons
 Dipole moment (field-independent basis, Debye):
    X=             -0.0878    Y=              0.1314    Z=             -0.5900  Tot=              0.6108
 Quadrupole moment (field-independent basis, Debye-Ang):
   XX=            -32.3817   YY=            -33.0756   ZZ=            -32.2657
   XY=             -0.8190   XZ=              0.4883   YZ=              0.4857
 Traceless Quadrupole moment (field-independent basis, Debye-Ang):
   XX=              0.1926   YY=             -0.5013   ZZ=              0.3087
   XY=             -0.8190   XZ=              0.4883   YZ=              0.4857
 Octapole moment (field-independent basis, Debye-Ang**2):
  XXX=            -87.3094  YYY=             32.2997  ZZZ=            -48.4447  XYY=            -26.9976
  XXY=             12.5419  XXZ=            -14.0415  XZZ=            -29.6824  YZZ=             14.5042
  YYZ=            -17.8389  XYZ=             -3.6376
 Hexadecapole moment (field-independent basis, Debye-Ang**3):
 XXXX=           -342.6618 YYYY=           -119.9903 ZZZZ=           -370.0646 XXXY=             64.6738
 XXXZ=             -5.4491 YYYX=             58.3771 YYYZ=             21.4144 ZZZX=             -8.2724
 ZZZY=             29.8650 XXYY=            -78.0606 XXZZ=           -126.4954 YYZZ=            -91.0696
 XXYZ=              0.3178 YYXZ=             -2.3585 ZZXY=             18.7759
 N-N= 1.620285214557D+02 E-N=-7.760010113439D+02  KE= 1.941950429169D+02
 1\1\GINC-BHC0021\SP\RB3LYP\def2TZVP\C5H8\DHANAWAY\10-Jun-2022\0\\# sp 
 B3LYP/Def2TZVP NoSymm\\ts_initalOpt_zmat_AlignedSp\\0,1\C\C,1,1.388976
 87\C,1,1.50546643,2,123.46834403\H,1,1.08702961,2,118.9171403,3,-178.2
 5373076,0\C,3,1.45932768,1,103.438631,2,49.95401541,0\H,3,1.09294735,1
 ,112.24803153,5,-122.96215582,0\H,3,1.09595197,1,107.97209234,5,118.46
 512589,0\C,2,1.36996954,1,127.86756477,3,-30.67262251,0\H,2,1.09297091
 ,1,114.7660538,8,177.67396056,0\H,5,1.07871289,3,122.85703423,1,-112.5
 2616816,0\H,5,1.0804694,3,119.03921765,10,178.67074378,0\H,8,1.0769681
 5,2,120.90318981,1,-34.33522213,0\H,8,1.08422353,2,121.23389339,12,-16
 9.52735709,0\\Version=ES64L-G16RevA.03\HF=-195.276145\RMSD=3.156e-09\D
 ipole=-0.0345498,0.0517062,-0.232129\Quadrupole=0.1432303,-0.3727082,0
 .2294779,-0.608881,0.3630507,0.3611426\PG=C01 [X(C5H8)]\\@


 I DON'T EXACTLY UNDERSTAND WHAT YOU ARE SAYING,
 BUT YOU ARE ABSOLUTELY RIGHT.
     M.S.GORDON, IN A NDSU FACULTY MEETING
 Job cpu time:       0 days  0 hours  4 minutes 29.0 seconds.
 Elapsed time:       0 days  0 hours  0 minutes 22.6 seconds.
 File lengths (MBytes):  RWF=     25 Int=      0 D2E=      0 Chk=     32 Scr=      1
 Normal termination of Gaussian 16 at Fri Jun 10 11:00:27 2022.
