 Entering Gaussian System, Link 0=g16
 Input=ts_initalOpt_zmat_sp.gjf
 Output=ts_initalOpt_zmat_sp.out
 Initial command:
 /software/gaussian/g16-a03/l1.exe "/local_scratch/11171395/Gau-48020.inp" -scrdir="/local_scratch/11171395/"
 Entering Link 1 = /software/gaussian/g16-a03/l1.exe PID=     48021.
  
 Copyright (c) 1988,1990,1992,1993,1995,1998,2003,2009,2016,
            Gaussian, Inc.  All Rights Reserved.
  
 This is part of the Gaussian(R) 16 program.  It is based on
 the Gaussian(R) 09 system (copyright 2009, Gaussian, Inc.),
 the Gaussian(R) 03 system (copyright 2003, Gaussian, Inc.),
 the Gaussian(R) 98 system (copyright 1998, Gaussian, Inc.),
 the Gaussian(R) 94 system (copyright 1995, Gaussian, Inc.),
 the Gaussian 92(TM) system (copyright 1992, Gaussian, Inc.),
 the Gaussian 90(TM) system (copyright 1990, Gaussian, Inc.),
 the Gaussian 88(TM) system (copyright 1988, Gaussian, Inc.),
 the Gaussian 86(TM) system (copyright 1986, Carnegie Mellon
 University), and the Gaussian 82(TM) system (copyright 1983,
 Carnegie Mellon University). Gaussian is a federally registered
 trademark of Gaussian, Inc.
  
 This software contains proprietary and confidential information,
 including trade secrets, belonging to Gaussian, Inc.
  
 This software is provided under written license and may be
 used, copied, transmitted, or stored only in accord with that
 written license.
  
 The following legend is applicable only to US Government
 contracts under FAR:
  
                    RESTRICTED RIGHTS LEGEND
  
 Use, reproduction and disclosure by the US Government is
 subject to restrictions as set forth in subparagraphs (a)
 and (c) of the Commercial Computer Software - Restricted
 Rights clause in FAR 52.227-19.
  
 Gaussian, Inc.
 340 Quinnipiac St., Bldg. 40, Wallingford CT 06492
  
  
 ---------------------------------------------------------------
 Warning -- This program may not be used in any manner that
 competes with the business of Gaussian, Inc. or will provide
 assistance to any competitor of Gaussian, Inc.  The licensee
 of this program is prohibited from giving any competitor of
 Gaussian, Inc. access to this program.  By using this program,
 the user acknowledges that Gaussian, Inc. is engaged in the
 business of creating and licensing software in the field of
 computational chemistry and represents and warrants to the
 licensee that it is not a competitor of Gaussian, Inc. and that
 it will not use this program in any manner prohibited above.
 ---------------------------------------------------------------
  

 Cite this work as:
 Gaussian 16, Revision A.03,
 M. J. Frisch, G. W. Trucks, H. B. Schlegel, G. E. Scuseria, 
 M. A. Robb, J. R. Cheeseman, G. Scalmani, V. Barone, 
 G. A. Petersson, H. Nakatsuji, X. Li, M. Caricato, A. V. Marenich, 
 J. Bloino, B. G. Janesko, R. Gomperts, B. Mennucci, H. P. Hratchian, 
 J. V. Ortiz, A. F. Izmaylov, J. L. Sonnenberg, D. Williams-Young, 
 F. Ding, F. Lipparini, F. Egidi, J. Goings, B. Peng, A. Petrone, 
 T. Henderson, D. Ranasinghe, V. G. Zakrzewski, J. Gao, N. Rega, 
 G. Zheng, W. Liang, M. Hada, M. Ehara, K. Toyota, R. Fukuda, 
 J. Hasegawa, M. Ishida, T. Nakajima, Y. Honda, O. Kitao, H. Nakai, 
 T. Vreven, K. Throssell, J. A. Montgomery, Jr., J. E. Peralta, 
 F. Ogliaro, M. J. Bearpark, J. J. Heyd, E. N. Brothers, K. N. Kudin, 
 V. N. Staroverov, T. A. Keith, R. Kobayashi, J. Normand, 
 K. Raghavachari, A. P. Rendell, J. C. Burant, S. S. Iyengar, 
 J. Tomasi, M. Cossi, J. M. Millam, M. Klene, C. Adamo, R. Cammi, 
 J. W. Ochterski, R. L. Martin, K. Morokuma, O. Farkas, 
 J. B. Foresman, and D. J. Fox, Gaussian, Inc., Wallingford CT, 2016.
 
 ******************************************
 Gaussian 16:  ES64L-G16RevA.03 25-Dec-2016
                10-Jun-2022 
 ******************************************
 %nprocshared=12
 Will use up to   12 processors via shared memory.
 %chk=checkpoint.chk
 %mem=12GB
 --------------------------
 # sp B3LYP/Def2TZVP NoSymm
 --------------------------
 1/38=1,172=1/1;
 2/12=2,15=1,17=6,18=5,40=1/2;
 3/5=44,7=101,11=2,25=1,30=1,74=-5/1,2,3;
 4//1;
 5/5=2,38=5/2;
 6/7=2,8=2,9=2,10=2,28=1/1;
 99/5=1,9=1/99;
 ---------------------------
 ts_initalOpt_zmat_AlignedSp
 ---------------------------
 Symbolic Z-matrix:
 Charge =  0 Multiplicity = 1
 C
 C                    1    R2
 C                    1    R3       2    A3
 H                    1    R4       2    A4       3    D4       0
 C                    3    R5       1    A5       2    D5       0
 H                    2    R6       1    A6       3    D6       0
 C                    2    R7       1    A7       6    D7       0
 H                    3    R8       1    A8       5    D8       0
 C                    5    R9       3    A9       1    D9       0
 H                    5    R10      3    A10      9    D10      0
 C                    5    R11      3    A11      9    D11      0
 H                    7    R12      2    A12      1    D12      0
 H                    7    R13      2    A13      12   D13      0
 C                    9    R14      5    A14      3    D14      0
 H                    9    R15      5    A15      14   D15      0
 H                    9    R16      5    A16      14   D16      0
 H                    11   R17      5    A17      3    D17      0
 H                    11   R18      5    A18      17   D18      0
 N                    14   R19      9    A19      5    D19      0
 C                    14   R20      9    A20      19   D20      0
 O                    19   R21      14   A21      9    D21      0
 O                    20   R22      14   A22      9    D22      0
 O                    20   R23      14   A23      22   D23      0
 C                    23   R24      20   A24      14   D24      0
 H                    24   R25      23   A25      20   D25      0
 H                    24   R26      23   A26      25   D26      0
 H                    24   R27      23   A27      25   D27      0
       Variables:
  R2                    1.39949                  
  R3                    1.36843                  
  R4                    1.08174                  
  R5                    1.48576                  
  R6                    1.0841                   
  R7                    1.50149                  
  R8                    1.08088                  
  R9                    1.58331                  
  R10                   1.08964                  
  R11                   1.5407                   
  R12                   1.09095                  
  R13                   1.09632                  
  R14                   1.49194                  
  R15                   1.08816                  
  R16                   1.09102                  
  R17                   1.09088                  
  R18                   1.09167                  
  R19                   1.36531                  
  R20                   1.47742                  
  R21                   1.2518                   
  R22                   1.21536                  
  R23                   1.34362                  
  R24                   1.43383                  
  R25                   1.08665                  
  R26                   1.08974                  
  R27                   1.09002                  
  A3                  116.55516                  
  A4                  120.83261                  
  A5                  117.25266                  
  A6                  118.99278                  
  A7                  120.22028                  
  A8                  121.54107                  
  A9                  110.38533                  
  A10                 111.22441                  
  A11                 108.74869                  
  A12                 110.79631                  
  A13                 106.90147                  
  A14                 115.0457                   
  A15                 108.09121                  
  A16                 106.69532                  
  A17                 109.64812                  
  A18                 109.34733                  
  A19                 118.57046                  
  A20                 120.15016                  
  A21                 113.03889                  
  A22                 123.19712                  
  A23                 113.86348                  
  A24                 115.79278                  
  A25                 105.38028                  
  A26                 110.69991                  
  A27                 110.84916                  
  D4                  164.12173                  
  D5                   -4.29567                  
  D6                 -159.90582                  
  D7                 -157.73424                  
  D8                  178.17264                  
  D9                   72.79469                  
  D10                 119.25084                  
  D11                -118.92575                  
  D12                -148.12043                  
  D13                -114.62705                  
  D14                 -40.81372                  
  D15                -123.26754                  
  D16                 118.70983                  
  D17                -178.2712                   
  D18                 117.46272                  
  D19                  80.31824                  
  D20                 158.22877                  
  D21                 -11.46132                  
  D22                  11.90353                  
  D23                 179.08418                  
  D24                 178.53979                  
  D25                -178.99419                  
  D26                 119.48659                  
  D27                -119.5974                   
 
                          Input orientation:                          
 ---------------------------------------------------------------------
 Center     Atomic      Atomic             Coordinates (Angstroms)
 Number     Number       Type             X           Y           Z
 ---------------------------------------------------------------------
      1          6           0        0.000000    0.000000    0.000000
      2          6           0        0.000000    0.000000    1.399485
      3          6           0        1.224069    0.000000   -0.611770
      4          1           0       -0.893420   -0.254131   -0.554428
      5          6           0        2.421482    0.098935    0.262247
      6          1           0       -0.890519   -0.325781    1.924946
      7          6           0        0.958709    0.874193    2.155225
      8          1           0        1.320358   -0.098258   -1.683856
      9          6           0        2.653955   -1.263036    1.035465
     10          1           0        3.319450    0.302507   -0.320446
     11          6           0        2.187750    1.215430    1.297898
     12          1           0        1.246851    0.407997    3.098519
     13          1           0        0.411846    1.783757    2.430076
     14          6           0        1.415416   -1.916482    1.550157
     15          1           0        3.341520   -1.072104    1.856990
     16          1           0        3.110579   -1.953133    0.324426
     17          1           0        3.071451    1.321514    1.928650
     18          1           0        2.041754    2.164930    0.779364
     19          7           0        0.654357   -2.647273    0.683660
     20          6           0        1.265698   -2.189388    2.994411
     21          8           0        0.985184   -2.488082   -0.513089
     22          8           0        2.006644   -1.726648    3.839374
     23          8           0        0.222294   -2.981665    3.292591
     24          6           0        0.057412   -3.300074    4.680866
     25          1           0       -0.810379   -3.952551    4.725814
     26          1           0        0.939420   -3.811013    5.066267
     27          1           0       -0.112034   -2.397711    5.268384
 ---------------------------------------------------------------------
                    Distance matrix (angstroms):
                    1          2          3          4          5
     1  C    0.000000
     2  C    1.399485   0.000000
     3  C    1.368433   2.354463   0.000000
     4  H    1.081745   2.163460   2.133455   0.000000
     5  C    2.437650   2.677065   1.485763   3.432228   0.000000
     6  H    2.145828   1.084097   3.318516   2.480412   3.730188
     7  C    2.515617   1.501492   2.913914   3.470694   2.514776
     8  H    2.142049   3.355591   1.080876   2.490124   2.244699
     9  C    3.116236   2.961629   2.520559   4.016157   1.583311
    10  H    3.348574   3.750790   2.137054   4.255921   1.089642
    11  C    2.819230   2.504764   2.460241   3.883855   1.540703
    12  H    3.364806   2.146582   3.732724   4.285230   3.085404
    13  H    3.042478   2.100838   3.618608   3.842391   3.402461
    14  C    2.842409   2.387259   2.895418   3.538843   2.594761
    15  H    3.970337   3.538993   3.424585   4.941531   2.181973
    16  H    3.687233   3.827034   2.872301   4.437454   2.165573
    17  H    3.860039   3.385295   3.407778   4.936449   2.166578
    18  H    3.076213   3.039775   2.700145   4.030645   2.163316
    19  N    2.811339   2.819334   3.001794   3.107347   3.292716
    20  C    3.919427   2.989849   4.218969   4.582714   3.746596
    21  O    2.724775   3.289237   2.501471   2.919143   3.058882
    22  O    4.663552   3.600137   4.838018   5.466642   4.037410
    23  O    4.447572   3.538868   5.013773   4.846010   4.848661
    24  C    5.727503   4.654164   6.345359   6.131081   6.055269
    25  H    6.213911   5.229134   6.946326   6.447183   6.839803
    26  H    6.408853   5.371371   6.844338   6.899488   6.368894
    27  H    5.789425   4.553015   6.489253   6.253850   6.141120
                    6          7          8          9         10
     6  H    0.000000
     7  C    2.216441   0.000000
     8  H    4.238302   3.976807   0.000000
     9  C    3.772654   2.948808   3.244980   0.000000
    10  H    4.812523   3.468266   2.452726   2.175386   0.000000
    11  C    3.499181   1.536879   3.371795   2.535550   2.175594
    12  H    2.546380   1.090948   4.809658   3.004744   3.999515
    13  H    2.530111   1.096316   4.614305   4.031741   4.267743
    14  C    2.826328   2.891808   3.711309   1.491937   3.471082
    15  H    4.297880   3.091085   4.191785   1.088165   2.575125
    16  H    4.606379   3.997017   3.267820   1.091017   2.355292
    17  H    4.290781   2.171431   4.258201   2.766221   2.481595
    18  H    4.014253   2.175312   3.421971   3.491608   2.512112
    19  N    3.052336   3.828688   3.542057   2.457289   4.100263
    20  C    3.044020   3.191239   5.124646   2.573491   4.627712
    21  O    3.760030   4.292493   2.682219   2.585258   3.643254
    22  O    3.744464   3.270917   5.799026   2.914764   4.810929
    23  O    3.187871   4.086997   5.855323   3.736479   5.782059
    24  C    4.164143   4.961422   7.235769   4.917368   6.973708
    25  H    4.583093   5.747613   7.776856   5.731821   7.786254
    26  H    5.036210   5.515949   7.713224   5.067463   7.183472
    27  H    4.009677   4.641509   7.461426   5.182256   7.092340
                   11         12         13         14         15
    11  C    0.000000
    12  H    2.186202   0.000000
    13  H    2.181435   1.742631   0.000000
    14  C    3.235585   2.798043   3.933596   0.000000
    15  H    2.622324   2.849515   4.131266   2.125323   0.000000
    16  H    3.440793   4.091945   5.067669   2.092209   1.782778
    17  H    1.090884   2.352078   2.745650   3.656546   2.409872
    18  H    1.091669   3.016150   2.350903   4.200517   3.650898
    19  N    4.201079   3.939196   4.768942   1.365314   3.328469
    20  C    3.914221   2.599540   4.102855   1.477418   2.617458
    21  O    4.294397   4.636751   5.219152   2.183761   3.629682
    22  O    3.892008   2.383876   4.105173   2.371940   2.477936
    23  O    5.045536   3.546433   4.846556   2.365213   3.928988
    24  C    6.030970   4.203377   5.571088   3.682369   4.870677
    25  H    6.888209   5.088680   6.298371   4.380016   5.810800
    26  H    6.405004   4.665469   6.207197   4.022295   4.855015
    27  H    5.840253   3.798273   5.080858   4.048444   5.032085
                   16         17         18         19         20
    16  H    0.000000
    17  H    3.646695   0.000000
    18  H    4.278762   1.758546   0.000000
    19  N    2.577578   4.810781   5.009124   0.000000
    20  C    3.253955   4.089380   4.946593   2.433714   0.000000
    21  O    2.346254   4.982733   4.943409   1.251798   3.531354
    22  O    3.691182   3.751796   4.950684   3.554540   1.215357
    23  O    4.267327   5.338106   6.009508   2.665524   1.343616
    24  C    5.487682   6.165890   7.001828   4.093916   2.353234
    25  H    6.224452   7.120990   7.818740   4.493130   3.227475
    26  H    5.536308   6.382244   7.436705   4.543434   2.651172
    27  H    5.918244   5.926300   6.753354   4.655033   2.666927
                   21         22         23         24         25
    21  O    0.000000
    22  O    4.535096   0.000000
    23  O    3.912650   2.248987   0.000000
    24  C    5.338282   2.642590   1.433833   0.000000
    25  H    5.728423   3.698113   2.015729   1.086650   0.000000
    26  H    5.734235   2.643636   2.085189   1.089739   1.788222
    27  H    5.885362   2.642194   2.087231   1.090023   1.788741
                   26         27
    26  H    0.000000
    27  H    1.773085   0.000000
 Symmetry turned off by external request.
 Stoichiometry    C10H13NO3
 Framework group  C1[X(C10H13NO3)]
 Deg. of freedom    75
 Full point group                 C1      NOp   1
 Rotational constants (GHZ):           1.1855524           0.6004362           0.5174902
 Standard basis: def2TZVP (5D, 7F)
   512 basis functions,   818 primitive gaussians,   582 cartesian basis functions
    52 alpha electrons       52 beta electrons
       nuclear repulsion energy       961.4201785376 Hartrees.
 NAtoms=   27 NActive=   27 NUniq=   27 SFac= 1.00D+00 NAtFMM=   60 NAOKFM=F Big=F
 Integral buffers will be    131072 words long.
 Raffenetti 2 integral format.
 Two-electron integral symmetry is turned off.
 One-electron integrals computed using PRISM.
   1 Symmetry operations used in ECPInt.
 ECPInt:  NShTT=   21321 NPrTT=   64608 LenC2=   20329 LenP2D=   46796.
 LDataN:  DoStor=T MaxTD1= 6 Len=  172
 NBasis=   512 RedAO= T EigKep=  1.89D-05  NBF=   512
 NBsUse=   512 1.00D-06 EigRej= -1.00D+00 NBFU=   512
 ExpMin= 9.52D-02 ExpMax= 2.70D+04 ExpMxC= 9.22D+02 IAcc=3 IRadAn=         5 AccDes= 0.00D+00
 Harris functional with IExCor=  402 and IRadAn=       5 diagonalized for initial guess.
 HarFok:  IExCor=  402 AccDes= 0.00D+00 IRadAn=         5 IDoV= 1 UseB2=F ITyADJ=14
 ICtDFT=  3500011 ScaDFX=  1.000000  1.000000  1.000000  1.000000
 FoFCou: FMM=F IPFlag=           0 FMFlag=      100000 FMFlg1=           0
         NFxFlg=           0 DoJE=T BraDBF=F KetDBF=T FulRan=T
         wScrn=  0.000000 ICntrl=       500 IOpCl=  0 I1Cent=   200000004 NGrid=           0
         NMat0=    1 NMatS0=      1 NMatT0=    0 NMatD0=    1 NMtDS0=    0 NMtDT0=    0
 Symmetry not used in FoFCou.
 Requested convergence on RMS density matrix=1.00D-08 within 128 cycles.
 Requested convergence on MAX density matrix=1.00D-06.
 Requested convergence on             energy=1.00D-06.
 No special actions if energy rises.
 Integral accuracy reduced to 1.0D-05 until final iterations.
 Initial convergence to 1.0D-05 achieved.  Increase integral accuracy.
 SCF Done:  E(RB3LYP) =  -669.437783741     A.U. after   16 cycles
            NFock= 16  Conv=0.99D-08     -V/T= 2.0048

 **********************************************************************

            Population analysis using the SCF density.

 **********************************************************************

 Alpha  occ. eigenvalues --  -19.16941 -19.13958 -19.11159 -14.38077 -10.30056
 Alpha  occ. eigenvalues --  -10.23233 -10.22463 -10.21685 -10.21646 -10.20286
 Alpha  occ. eigenvalues --  -10.19380 -10.19006 -10.18893 -10.18494  -1.10930
 Alpha  occ. eigenvalues --   -1.09974  -1.01762  -0.88531  -0.82296  -0.78481
 Alpha  occ. eigenvalues --   -0.77454  -0.72923  -0.70046  -0.63604  -0.62952
 Alpha  occ. eigenvalues --   -0.60878  -0.55271  -0.54184  -0.52130  -0.50460
 Alpha  occ. eigenvalues --   -0.49755  -0.48090  -0.47952  -0.45184  -0.44784
 Alpha  occ. eigenvalues --   -0.43588  -0.43473  -0.43169  -0.41932  -0.40894
 Alpha  occ. eigenvalues --   -0.39520  -0.39114  -0.37135  -0.36125  -0.35193
 Alpha  occ. eigenvalues --   -0.35021  -0.33848  -0.30910  -0.29436  -0.28485
 Alpha  occ. eigenvalues --   -0.25094  -0.20762
 Alpha virt. eigenvalues --   -0.10027  -0.04575   0.00814   0.02417   0.04043
 Alpha virt. eigenvalues --    0.05572   0.05664   0.06652   0.06817   0.07777
 Alpha virt. eigenvalues --    0.08419   0.08988   0.09703   0.10752   0.11387
 Alpha virt. eigenvalues --    0.12015   0.12351   0.13909   0.15108   0.16196
 Alpha virt. eigenvalues --    0.16580   0.18432   0.18679   0.19211   0.19689
 Alpha virt. eigenvalues --    0.20526   0.20989   0.22236   0.22517   0.23317
 Alpha virt. eigenvalues --    0.24008   0.24639   0.25364   0.26321   0.26963
 Alpha virt. eigenvalues --    0.27400   0.29570   0.30394   0.31312   0.32078
 Alpha virt. eigenvalues --    0.32480   0.33477   0.34847   0.35197   0.35601
 Alpha virt. eigenvalues --    0.35915   0.36640   0.36771   0.37490   0.38726
 Alpha virt. eigenvalues --    0.39062   0.39315   0.39681   0.40883   0.41036
 Alpha virt. eigenvalues --    0.42048   0.42442   0.43006   0.43406   0.44059
 Alpha virt. eigenvalues --    0.44610   0.44724   0.45446   0.46025   0.46494
 Alpha virt. eigenvalues --    0.47241   0.48054   0.48458   0.48760   0.49229
 Alpha virt. eigenvalues --    0.50868   0.51498   0.52334   0.52769   0.54344
 Alpha virt. eigenvalues --    0.54942   0.55321   0.56354   0.57498   0.58235
 Alpha virt. eigenvalues --    0.60285   0.61065   0.62053   0.63209   0.64460
 Alpha virt. eigenvalues --    0.65091   0.66417   0.68256   0.69417   0.70301
 Alpha virt. eigenvalues --    0.71417   0.72842   0.74419   0.74655   0.76201
 Alpha virt. eigenvalues --    0.77022   0.78347   0.80093   0.81339   0.83661
 Alpha virt. eigenvalues --    0.84119   0.85451   0.85902   0.86530   0.87190
 Alpha virt. eigenvalues --    0.88080   0.91023   0.91777   0.92367   0.93725
 Alpha virt. eigenvalues --    0.94120   0.94893   0.95727   0.97674   0.99407
 Alpha virt. eigenvalues --    1.01206   1.01780   1.03599   1.04442   1.05887
 Alpha virt. eigenvalues --    1.07047   1.07650   1.09150   1.09836   1.10423
 Alpha virt. eigenvalues --    1.11043   1.12024   1.14399   1.16092   1.17034
 Alpha virt. eigenvalues --    1.17457   1.18703   1.19506   1.21447   1.23057
 Alpha virt. eigenvalues --    1.24191   1.25120   1.25360   1.28427   1.29196
 Alpha virt. eigenvalues --    1.30148   1.30854   1.31838   1.33000   1.34509
 Alpha virt. eigenvalues --    1.35421   1.37559   1.39702   1.41205   1.44194
 Alpha virt. eigenvalues --    1.45213   1.46414   1.47314   1.47755   1.49521
 Alpha virt. eigenvalues --    1.50049   1.50516   1.52050   1.52990   1.53177
 Alpha virt. eigenvalues --    1.54304   1.55123   1.57776   1.58411   1.59242
 Alpha virt. eigenvalues --    1.59984   1.61241   1.62556   1.63326   1.65796
 Alpha virt. eigenvalues --    1.66961   1.68171   1.69200   1.70135   1.72168
 Alpha virt. eigenvalues --    1.74344   1.74984   1.75598   1.77857   1.79375
 Alpha virt. eigenvalues --    1.80530   1.81392   1.83471   1.84366   1.85470
 Alpha virt. eigenvalues --    1.86870   1.87575   1.88084   1.90982   1.92748
 Alpha virt. eigenvalues --    1.93267   1.94866   1.95576   1.97601   1.99169
 Alpha virt. eigenvalues --    2.00040   2.01051   2.02112   2.03672   2.04752
 Alpha virt. eigenvalues --    2.05890   2.06597   2.07788   2.08658   2.11190
 Alpha virt. eigenvalues --    2.11955   2.13639   2.14723   2.15466   2.17477
 Alpha virt. eigenvalues --    2.20103   2.20644   2.21005   2.23102   2.23824
 Alpha virt. eigenvalues --    2.24490   2.25824   2.27987   2.28410   2.30388
 Alpha virt. eigenvalues --    2.30972   2.32022   2.33299   2.34213   2.37406
 Alpha virt. eigenvalues --    2.39820   2.41258   2.42281   2.42969   2.43416
 Alpha virt. eigenvalues --    2.45435   2.47394   2.48450   2.49464   2.51118
 Alpha virt. eigenvalues --    2.51195   2.52913   2.53667   2.55041   2.55829
 Alpha virt. eigenvalues --    2.56471   2.57160   2.58632   2.60884   2.61283
 Alpha virt. eigenvalues --    2.61846   2.62810   2.63582   2.65358   2.66443
 Alpha virt. eigenvalues --    2.68122   2.69374   2.70550   2.70826   2.73637
 Alpha virt. eigenvalues --    2.74439   2.75745   2.77019   2.77442   2.78948
 Alpha virt. eigenvalues --    2.79786   2.80800   2.81663   2.82242   2.83794
 Alpha virt. eigenvalues --    2.84711   2.87536   2.87691   2.90015   2.90552
 Alpha virt. eigenvalues --    2.92297   2.92766   2.94647   2.94944   2.96813
 Alpha virt. eigenvalues --    2.98566   3.00399   3.00760   3.02991   3.04720
 Alpha virt. eigenvalues --    3.05773   3.05874   3.06700   3.07811   3.09256
 Alpha virt. eigenvalues --    3.10246   3.10901   3.11368   3.13035   3.13814
 Alpha virt. eigenvalues --    3.15417   3.16086   3.18799   3.19871   3.20311
 Alpha virt. eigenvalues --    3.21905   3.23082   3.24293   3.25835   3.26774
 Alpha virt. eigenvalues --    3.27414   3.28291   3.30170   3.30593   3.31147
 Alpha virt. eigenvalues --    3.31790   3.33391   3.34422   3.34539   3.36904
 Alpha virt. eigenvalues --    3.37464   3.39384   3.39962   3.41151   3.42382
 Alpha virt. eigenvalues --    3.42823   3.43366   3.45103   3.45777   3.46707
 Alpha virt. eigenvalues --    3.47908   3.49375   3.51196   3.51543   3.52169
 Alpha virt. eigenvalues --    3.53487   3.55060   3.56572   3.56746   3.58081
 Alpha virt. eigenvalues --    3.58801   3.59422   3.60966   3.63710   3.65432
 Alpha virt. eigenvalues --    3.67109   3.68720   3.70981   3.73201   3.74946
 Alpha virt. eigenvalues --    3.77060   3.78877   3.79526   3.82145   3.86401
 Alpha virt. eigenvalues --    3.88158   3.88868   3.90794   3.92657   3.94278
 Alpha virt. eigenvalues --    3.95421   3.96391   3.98629   3.99935   4.00455
 Alpha virt. eigenvalues --    4.03471   4.04061   4.05345   4.07019   4.08990
 Alpha virt. eigenvalues --    4.12487   4.13366   4.16149   4.16724   4.17896
 Alpha virt. eigenvalues --    4.18965   4.22111   4.23393   4.24424   4.27619
 Alpha virt. eigenvalues --    4.27969   4.29970   4.34870   4.35470   4.37927
 Alpha virt. eigenvalues --    4.39435   4.41215   4.42303   4.42786   4.44884
 Alpha virt. eigenvalues --    4.47846   4.51076   4.52291   4.53504   4.59389
 Alpha virt. eigenvalues --    4.60191   4.63740   4.69967   4.72090   4.75421
 Alpha virt. eigenvalues --    4.76749   4.81613   4.82665   4.84413   4.87082
 Alpha virt. eigenvalues --    4.88014   4.93266   4.94698   4.99756   5.02182
 Alpha virt. eigenvalues --    5.05141   5.09522   5.11430   5.12783   5.13531
 Alpha virt. eigenvalues --    5.16065   5.17540   5.18394   5.21477   5.23206
 Alpha virt. eigenvalues --    5.25299   5.29175   5.32353   5.42601   5.48389
 Alpha virt. eigenvalues --    5.49658   5.56277   5.57588   5.64908   5.68429
 Alpha virt. eigenvalues --    5.74723   5.87718   5.97387   6.09598   6.17276
 Alpha virt. eigenvalues --    6.25260   6.26113   6.37958   6.38291   6.43161
 Alpha virt. eigenvalues --    6.46090   6.51421   6.59269   6.65437   6.70861
 Alpha virt. eigenvalues --    6.78594   6.88530   6.90307   6.91161   6.98408
 Alpha virt. eigenvalues --    7.04511   7.11843   7.14940   7.30898   7.43807
 Alpha virt. eigenvalues --    7.64754  22.31900  22.38111  22.49796  22.56912
 Alpha virt. eigenvalues --   22.59355  22.63286  22.69210  22.83599  22.98020
 Alpha virt. eigenvalues --   23.36376  32.30459  43.95308  44.01964  44.18428
          Condensed to atoms (all electrons):
               1          2          3          4          5          6
     1  C    5.057589   0.361118   0.420668   0.407945   0.053620  -0.035417
     2  C    0.361118   5.157981  -0.017046  -0.032053  -0.064011   0.398705
     3  C    0.420668  -0.017046   5.146428  -0.033402   0.193136   0.010011
     4  H    0.407945  -0.032053  -0.033402   0.534841   0.012326  -0.007849
     5  C    0.053620  -0.064011   0.193136   0.012326   5.084246  -0.004684
     6  H   -0.035417   0.398705   0.010011  -0.007849  -0.004684   0.537521
     7  C   -0.009372   0.251658  -0.006735   0.005138  -0.076469  -0.038311
     8  H   -0.035463   0.010043   0.399788  -0.006042  -0.030984  -0.000209
     9  C   -0.078119  -0.002572   0.056256  -0.004056   0.112107   0.005391
    10  H    0.015230  -0.005569  -0.059867  -0.000176   0.446913   0.000047
    11  C   -0.036984  -0.025466   0.040955  -0.002129   0.250249   0.008556
    12  H    0.011660  -0.042314  -0.003292  -0.000175   0.001164  -0.000648
    13  H   -0.009615  -0.033734  -0.000277  -0.000139   0.007872  -0.004850
    14  C    0.001280   0.140731  -0.082935   0.002455   0.081586  -0.006154
    15  H    0.000903  -0.000808   0.003669   0.000050  -0.023093  -0.000217
    16  H   -0.008633   0.012048   0.002974  -0.000032  -0.048644  -0.000026
    17  H   -0.001676   0.009994   0.009703   0.000079  -0.039598  -0.000195
    18  H    0.007824  -0.003268  -0.016278  -0.000064  -0.024620  -0.000301
    19  N   -0.025992  -0.033618  -0.025836  -0.001292   0.020231   0.002648
    20  C   -0.006486   0.027291   0.002047  -0.000014  -0.004392  -0.000137
    21  O   -0.014911  -0.022090   0.087676  -0.000642  -0.058150   0.000246
    22  O    0.000728  -0.009208   0.000394   0.000008  -0.004767  -0.000805
    23  O   -0.000953  -0.000006   0.000206  -0.000009  -0.000944   0.006060
    24  C   -0.000151  -0.000126   0.000027  -0.000005  -0.000000  -0.000037
    25  H    0.000010   0.000043  -0.000001  -0.000000   0.000004  -0.000047
    26  H   -0.000007   0.000012   0.000002  -0.000000  -0.000002   0.000118
    27  H    0.000000  -0.000199  -0.000012   0.000000   0.000018  -0.000446
               7          8          9         10         11         12
     1  C   -0.009372  -0.035463  -0.078119   0.015230  -0.036984   0.011660
     2  C    0.251658   0.010043  -0.002572  -0.005569  -0.025466  -0.042314
     3  C   -0.006735   0.399788   0.056256  -0.059867   0.040955  -0.003292
     4  H    0.005138  -0.006042  -0.004056  -0.000176  -0.002129  -0.000175
     5  C   -0.076469  -0.030984   0.112107   0.446913   0.250249   0.001164
     6  H   -0.038311  -0.000209   0.005391   0.000047   0.008556  -0.000648
     7  C    5.007927  -0.000650   0.028329   0.010814   0.325468   0.397778
     8  H   -0.000650   0.530452   0.004187  -0.008497   0.006668   0.000033
     9  C    0.028329   0.004187   5.260706  -0.046302   0.021420  -0.002775
    10  H    0.010814  -0.008497  -0.046302   0.628334  -0.056858  -0.000194
    11  C    0.325468   0.006668   0.021420  -0.056858   4.958143  -0.010067
    12  H    0.397778   0.000033  -0.002775  -0.000194  -0.010067   0.526414
    13  H    0.404510   0.000080  -0.000283  -0.000246  -0.039432  -0.032940
    14  C   -0.043690  -0.000667   0.139686   0.011072  -0.027814  -0.004030
    15  H   -0.003867  -0.000320   0.377387   0.001909  -0.006147  -0.000294
    16  H    0.000130   0.000843   0.413694  -0.008805   0.007841  -0.000954
    17  H   -0.035358  -0.000367  -0.002711  -0.003636   0.409024  -0.010655
    18  H   -0.030362   0.000426   0.005936  -0.003239   0.399630   0.006101
    19  N   -0.001167  -0.000313  -0.064815  -0.000127   0.001566   0.001020
    20  C    0.002323   0.000035  -0.051175  -0.000711   0.003758  -0.007877
    21  O    0.002355   0.001970   0.021667  -0.000657   0.002729   0.000156
    22  O   -0.009853   0.000010   0.000060  -0.000075   0.002892   0.018624
    23  O   -0.001383   0.000003   0.004987  -0.000001   0.000195  -0.000466
    24  C    0.000273  -0.000000   0.000454  -0.000001  -0.000019  -0.000337
    25  H   -0.000018  -0.000000  -0.000013   0.000000  -0.000002   0.000012
    26  H   -0.000005  -0.000000   0.000212  -0.000000   0.000006  -0.000054
    27  H    0.000186  -0.000000  -0.000190  -0.000000  -0.000013   0.000454
              13         14         15         16         17         18
     1  C   -0.009615   0.001280   0.000903  -0.008633  -0.001676   0.007824
     2  C   -0.033734   0.140731  -0.000808   0.012048   0.009994  -0.003268
     3  C   -0.000277  -0.082935   0.003669   0.002974   0.009703  -0.016278
     4  H   -0.000139   0.002455   0.000050  -0.000032   0.000079  -0.000064
     5  C    0.007872   0.081586  -0.023093  -0.048644  -0.039598  -0.024620
     6  H   -0.004850  -0.006154  -0.000217  -0.000026  -0.000195  -0.000301
     7  C    0.404510  -0.043690  -0.003867   0.000130  -0.035358  -0.030362
     8  H    0.000080  -0.000667  -0.000320   0.000843  -0.000367   0.000426
     9  C   -0.000283   0.139686   0.377387   0.413694  -0.002711   0.005936
    10  H   -0.000246   0.011072   0.001909  -0.008805  -0.003636  -0.003239
    11  C   -0.039432  -0.027814  -0.006147   0.007841   0.409024   0.399630
    12  H   -0.032940  -0.004030  -0.000294  -0.000954  -0.010655   0.006101
    13  H    0.602303   0.004210   0.000027   0.000187   0.002914  -0.014599
    14  C    0.004210   5.579153  -0.017684  -0.064865  -0.001002   0.000139
    15  H    0.000027  -0.017684   0.557607  -0.022890   0.001679   0.000679
    16  H    0.000187  -0.064865  -0.022890   0.584019   0.000843  -0.000706
    17  H    0.002914  -0.001002   0.001679   0.000843   0.585441  -0.030298
    18  H   -0.014599   0.000139   0.000679  -0.000706  -0.030298   0.601480
    19  N   -0.000205   0.423534   0.005799  -0.017116  -0.000046   0.000139
    20  C    0.000814   0.247785  -0.008877   0.002066   0.000060  -0.000213
    21  O   -0.000104  -0.124008   0.001240   0.030545  -0.000044  -0.000017
    22  O    0.000289  -0.110912   0.017847   0.000809   0.000171   0.000004
    23  O   -0.000062  -0.119079   0.000979   0.000132  -0.000001   0.000002
    24  C    0.000006   0.005900  -0.000238   0.000055   0.000001  -0.000001
    25  H   -0.000002   0.003553  -0.000002  -0.000002  -0.000000  -0.000000
    26  H   -0.000004  -0.004218  -0.000042  -0.000022  -0.000001   0.000000
    27  H    0.000026  -0.003175  -0.000047   0.000006   0.000002  -0.000001
              19         20         21         22         23         24
     1  C   -0.025992  -0.006486  -0.014911   0.000728  -0.000953  -0.000151
     2  C   -0.033618   0.027291  -0.022090  -0.009208  -0.000006  -0.000126
     3  C   -0.025836   0.002047   0.087676   0.000394   0.000206   0.000027
     4  H   -0.001292  -0.000014  -0.000642   0.000008  -0.000009  -0.000005
     5  C    0.020231  -0.004392  -0.058150  -0.004767  -0.000944  -0.000000
     6  H    0.002648  -0.000137   0.000246  -0.000805   0.006060  -0.000037
     7  C   -0.001167   0.002323   0.002355  -0.009853  -0.001383   0.000273
     8  H   -0.000313   0.000035   0.001970   0.000010   0.000003  -0.000000
     9  C   -0.064815  -0.051175   0.021667   0.000060   0.004987   0.000454
    10  H   -0.000127  -0.000711  -0.000657  -0.000075  -0.000001  -0.000001
    11  C    0.001566   0.003758   0.002729   0.002892   0.000195  -0.000019
    12  H    0.001020  -0.007877   0.000156   0.018624  -0.000466  -0.000337
    13  H   -0.000205   0.000814  -0.000104   0.000289  -0.000062   0.000006
    14  C    0.423534   0.247785  -0.124008  -0.110912  -0.119079   0.005900
    15  H    0.005799  -0.008877   0.001240   0.017847   0.000979  -0.000238
    16  H   -0.017116   0.002066   0.030545   0.000809   0.000132   0.000055
    17  H   -0.000046   0.000060  -0.000044   0.000171  -0.000001   0.000001
    18  H    0.000139  -0.000213  -0.000017   0.000004   0.000002  -0.000001
    19  N    6.515576  -0.050157   0.174595   0.003988  -0.015770   0.000280
    20  C   -0.050157   4.575510   0.008294   0.612656   0.421213  -0.050166
    21  O    0.174595   0.008294   8.215482  -0.000362  -0.000048   0.000042
    22  O    0.003988   0.612656  -0.000362   7.911418  -0.084404   0.001396
    23  O   -0.015770   0.421213  -0.000048  -0.084404   7.914439   0.221554
    24  C    0.000280  -0.050166   0.000042   0.001396   0.221554   4.776184
    25  H   -0.000062   0.004414   0.000002   0.002161  -0.033339   0.393441
    26  H   -0.000002  -0.009939   0.000002   0.006765  -0.035881   0.420008
    27  H   -0.000192  -0.006578   0.000002   0.008691  -0.039339   0.411385
              25         26         27
     1  C    0.000010  -0.000007   0.000000
     2  C    0.000043   0.000012  -0.000199
     3  C   -0.000001   0.000002  -0.000012
     4  H   -0.000000  -0.000000   0.000000
     5  C    0.000004  -0.000002   0.000018
     6  H   -0.000047   0.000118  -0.000446
     7  C   -0.000018  -0.000005   0.000186
     8  H   -0.000000  -0.000000  -0.000000
     9  C   -0.000013   0.000212  -0.000190
    10  H    0.000000  -0.000000  -0.000000
    11  C   -0.000002   0.000006  -0.000013
    12  H    0.000012  -0.000054   0.000454
    13  H   -0.000002  -0.000004   0.000026
    14  C    0.003553  -0.004218  -0.003175
    15  H   -0.000002  -0.000042  -0.000047
    16  H   -0.000002  -0.000022   0.000006
    17  H   -0.000000  -0.000001   0.000002
    18  H   -0.000000   0.000000  -0.000001
    19  N   -0.000062  -0.000002  -0.000192
    20  C    0.004414  -0.009939  -0.006578
    21  O    0.000002   0.000002   0.000002
    22  O    0.002161   0.006765   0.008691
    23  O   -0.033339  -0.035881  -0.039339
    24  C    0.393441   0.420008   0.411385
    25  H    0.555227  -0.026359  -0.028152
    26  H   -0.026359   0.566991  -0.043702
    27  H   -0.028152  -0.043702   0.583289
 Mulliken charges:
               1
     1  C   -0.074796
     2  C   -0.077537
     3  C   -0.128259
     4  H    0.125237
     5  C    0.116886
     6  H    0.131031
     7  C   -0.179651
     8  H    0.128973
     9  C   -0.199469
    10  H    0.080645
    11  C   -0.234172
    12  H    0.153654
    13  H    0.113250
    14  C   -0.030850
    15  H    0.114752
    16  H    0.116503
    17  H    0.105678
    18  H    0.101604
    19  N    0.087332
    20  C    0.288458
    21  O   -0.325970
    22  O   -0.368527
    23  O   -0.238086
    24  C   -0.179925
    25  H    0.129132
    26  H    0.126122
    27  H    0.117985
 Sum of Mulliken charges =  -0.00000
 Mulliken charges with hydrogens summed into heavy atoms:
               1
     1  C    0.050440
     2  C    0.053495
     3  C    0.000714
     5  C    0.197531
     7  C    0.087254
     9  C    0.031786
    11  C   -0.026890
    14  C   -0.030850
    19  N    0.087332
    20  C    0.288458
    21  O   -0.325970
    22  O   -0.368527
    23  O   -0.238086
    24  C    0.193314
 Electronic spatial extent (au):  <R**2>=           4457.3788
 Charge=             -0.0000 electrons
 Dipole moment (field-independent basis, Debye):
    X=             -0.3622    Y=              3.4671    Z=              0.6514  Tot=              3.5463
 Quadrupole moment (field-independent basis, Debye-Ang):
   XX=            -80.3311   YY=            -89.5723   ZZ=            -80.4328
   XY=              3.4526   XZ=             -7.4434   YZ=             -4.0497
 Traceless Quadrupole moment (field-independent basis, Debye-Ang):
   XX=              3.1143   YY=             -6.1269   ZZ=              3.0126
   XY=              3.4526   XZ=             -7.4434   YZ=             -4.0497
 Octapole moment (field-independent basis, Debye-Ang**2):
  XXX=           -280.2345  YYY=            290.4796  ZZZ=           -389.8247  XYY=            -97.2998
  XXY=             96.0956  XXZ=           -150.1278  XZZ=           -133.7452  YZZ=             69.9884
  YYZ=           -101.6288  XYZ=             10.1399
 Hexadecapole moment (field-independent basis, Debye-Ang**3):
 XXXX=          -1192.0521 YYYY=          -1845.4902 ZZZZ=          -2623.3782 XXXY=            227.7697
 XXXZ=           -425.6260 YYYX=            212.4855 YYYZ=            596.7303 ZZZX=           -565.8334
 ZZZY=            562.6113 XXYY=           -505.4329 XXZZ=           -738.7536 YYZZ=           -610.9955
 XXYZ=            264.0533 YYXZ=           -131.6198 ZZXY=            134.8143
 N-N= 9.614201785376D+02 E-N=-3.485982447133D+03  KE= 6.662214685704D+02
 1\1\GINC-BHC0088\SP\RB3LYP\def2TZVP\C10H13N1O3\DHANAWAY\10-Jun-2022\0\
 \# sp B3LYP/Def2TZVP NoSymm\\ts_initalOpt_zmat_AlignedSp\\0,1\C\C,1,1.
 39948512\C,1,1.36843291,2,116.55515918\H,1,1.08174489,2,120.8326071,3,
 164.12172862,0\C,3,1.48576309,1,117.25266321,2,-4.29566919,0\H,2,1.084
 09729,1,118.99277574,3,-159.90582094,0\C,2,1.50149192,1,120.2202839,6,
 -157.73423918,0\H,3,1.08087639,1,121.5410712,5,178.1726389,0\C,5,1.583
 31142,3,110.38533103,1,72.79469138,0\H,5,1.0896419,3,111.22441452,9,11
 9.25084245,0\C,5,1.54070272,3,108.74869362,9,-118.92575069,0\H,7,1.090
 94799,2,110.79630691,1,-148.12043043,0\H,7,1.09631578,2,106.90146814,1
 2,-114.62705081,0\C,9,1.49193746,5,115.04569544,3,-40.8137173,0\H,9,1.
 0881649,5,108.09120887,14,-123.26753836,0\H,9,1.09101691,5,106.6953150
 9,14,118.70982819,0\H,11,1.0908843,5,109.6481152,3,-178.27120408,0\H,1
 1,1.09166909,5,109.34733207,17,117.46271569,0\N,14,1.36531419,9,118.57
 04565,5,80.31823584,0\C,14,1.47741771,9,120.15016396,19,158.22876858,0
 \O,19,1.25179753,14,113.0388932,9,-11.46131991,0\O,20,1.21535663,14,12
 3.19712062,9,11.90353085,0\O,20,1.34361635,14,113.86348227,22,179.0841
 7919,0\C,23,1.43383295,20,115.79278477,14,178.53979329,0\H,24,1.086649
 53,23,105.38027908,20,-178.99419047,0\H,24,1.08973872,23,110.69991061,
 25,119.4865906,0\H,24,1.09002269,23,110.84916014,25,-119.59740456,0\\V
 ersion=ES64L-G16RevA.03\HF=-669.4377837\RMSD=9.898e-09\Dipole=-0.14250
 33,1.3640755,0.2562746\Quadrupole=2.3154315,-4.5551954,2.239764,2.5668
 881,-5.5340225,-3.0108267\PG=C01 [X(C10H13N1O3)]\\@


 A FOOL CAN ASK MORE QUESTIONS THAN
 A WISE MAN CAN ANSWER.
 Job cpu time:       0 days  1 hours 45 minutes 30.7 seconds.
 Elapsed time:       0 days  0 hours  8 minutes 48.0 seconds.
 File lengths (MBytes):  RWF=    147 Int=      0 D2E=      0 Chk=     32 Scr=      1
 Normal termination of Gaussian 16 at Fri Jun 10 03:54:07 2022.
