 Entering Gaussian System, Link 0=g16
 Input=ts_initalOpt_zmat_sp.gjf
 Output=ts_initalOpt_zmat_sp.out
 Initial command:
 /software/gaussian/g16-a03/l1.exe "/local_scratch/11174427/Gau-19232.inp" -scrdir="/local_scratch/11174427/"
 Entering Link 1 = /software/gaussian/g16-a03/l1.exe PID=     19233.
  
 Copyright (c) 1988,1990,1992,1993,1995,1998,2003,2009,2016,
            Gaussian, Inc.  All Rights Reserved.
  
 This is part of the Gaussian(R) 16 program.  It is based on
 the Gaussian(R) 09 system (copyright 2009, Gaussian, Inc.),
 the Gaussian(R) 03 system (copyright 2003, Gaussian, Inc.),
 the Gaussian(R) 98 system (copyright 1998, Gaussian, Inc.),
 the Gaussian(R) 94 system (copyright 1995, Gaussian, Inc.),
 the Gaussian 92(TM) system (copyright 1992, Gaussian, Inc.),
 the Gaussian 90(TM) system (copyright 1990, Gaussian, Inc.),
 the Gaussian 88(TM) system (copyright 1988, Gaussian, Inc.),
 the Gaussian 86(TM) system (copyright 1986, Carnegie Mellon
 University), and the Gaussian 82(TM) system (copyright 1983,
 Carnegie Mellon University). Gaussian is a federally registered
 trademark of Gaussian, Inc.
  
 This software contains proprietary and confidential information,
 including trade secrets, belonging to Gaussian, Inc.
  
 This software is provided under written license and may be
 used, copied, transmitted, or stored only in accord with that
 written license.
  
 The following legend is applicable only to US Government
 contracts under FAR:
  
                    RESTRICTED RIGHTS LEGEND
  
 Use, reproduction and disclosure by the US Government is
 subject to restrictions as set forth in subparagraphs (a)
 and (c) of the Commercial Computer Software - Restricted
 Rights clause in FAR 52.227-19.
  
 Gaussian, Inc.
 340 Quinnipiac St., Bldg. 40, Wallingford CT 06492
  
  
 ---------------------------------------------------------------
 Warning -- This program may not be used in any manner that
 competes with the business of Gaussian, Inc. or will provide
 assistance to any competitor of Gaussian, Inc.  The licensee
 of this program is prohibited from giving any competitor of
 Gaussian, Inc. access to this program.  By using this program,
 the user acknowledges that Gaussian, Inc. is engaged in the
 business of creating and licensing software in the field of
 computational chemistry and represents and warrants to the
 licensee that it is not a competitor of Gaussian, Inc. and that
 it will not use this program in any manner prohibited above.
 ---------------------------------------------------------------
  

 Cite this work as:
 Gaussian 16, Revision A.03,
 M. J. Frisch, G. W. Trucks, H. B. Schlegel, G. E. Scuseria, 
 M. A. Robb, J. R. Cheeseman, G. Scalmani, V. Barone, 
 G. A. Petersson, H. Nakatsuji, X. Li, M. Caricato, A. V. Marenich, 
 J. Bloino, B. G. Janesko, R. Gomperts, B. Mennucci, H. P. Hratchian, 
 J. V. Ortiz, A. F. Izmaylov, J. L. Sonnenberg, D. Williams-Young, 
 F. Ding, F. Lipparini, F. Egidi, J. Goings, B. Peng, A. Petrone, 
 T. Henderson, D. Ranasinghe, V. G. Zakrzewski, J. Gao, N. Rega, 
 G. Zheng, W. Liang, M. Hada, M. Ehara, K. Toyota, R. Fukuda, 
 J. Hasegawa, M. Ishida, T. Nakajima, Y. Honda, O. Kitao, H. Nakai, 
 T. Vreven, K. Throssell, J. A. Montgomery, Jr., J. E. Peralta, 
 F. Ogliaro, M. J. Bearpark, J. J. Heyd, E. N. Brothers, K. N. Kudin, 
 V. N. Staroverov, T. A. Keith, R. Kobayashi, J. Normand, 
 K. Raghavachari, A. P. Rendell, J. C. Burant, S. S. Iyengar, 
 J. Tomasi, M. Cossi, J. M. Millam, M. Klene, C. Adamo, R. Cammi, 
 J. W. Ochterski, R. L. Martin, K. Morokuma, O. Farkas, 
 J. B. Foresman, and D. J. Fox, Gaussian, Inc., Wallingford CT, 2016.
 
 ******************************************
 Gaussian 16:  ES64L-G16RevA.03 25-Dec-2016
                10-Jun-2022 
 ******************************************
 %nprocshared=12
 Will use up to   12 processors via shared memory.
 %chk=checkpoint.chk
 %mem=12GB
 --------------------------
 # sp B3LYP/Def2TZVP NoSymm
 --------------------------
 1/38=1,172=1/1;
 2/12=2,15=1,17=6,18=5,40=1/2;
 3/5=44,7=101,11=2,25=1,30=1,74=-5/1,2,3;
 4//1;
 5/5=2,38=5/2;
 6/7=2,8=2,9=2,10=2,28=1/1;
 99/5=1,9=1/99;
 ---------------------------
 ts_initalOpt_zmat_AlignedSp
 ---------------------------
 Symbolic Z-matrix:
 Charge =  0 Multiplicity = 1
 H
 C                    1    R2
 C                    2    R3       1    A3
 C                    2    R4       1    A4       3    D4       0
 H                    3    R5       2    A5       1    D5       0
 H                    4    R6       2    A6       1    D6       0
 C                    3    R7       2    A7       5    D7       0
 N                    4    R8       2    A8       6    D8       0
 H                    4    R9       2    A9       6    D9       0
 H                    7    R10      3    A10      2    D10      0
       Variables:
  R2                    1.07852                  
  R3                    1.39163                  
  R4                    1.40048                  
  R5                    1.07962                  
  R6                    1.29016                  
  R7                    1.39546                  
  R8                    1.45423                  
  R9                    1.07928                  
  R10                   1.07973                  
  A3                  127.31466                  
  A4                  126.04575                  
  A5                  126.41566                  
  A6                  115.14097                  
  A7                  107.55931                  
  A8                  109.24852                  
  A9                  129.66066                  
  A10                 127.98006                  
  D4                  179.699                    
  D5                   -1.20791                  
  D6                  122.15484                  
  D7                 -178.21577                  
  D8                   59.49723                  
  D9                 -139.4218                   
  D10                 174.78041                  
 
                          Input orientation:                          
 ---------------------------------------------------------------------
 Center     Atomic      Atomic             Coordinates (Angstroms)
 Number     Number       Type             X           Y           Z
 ---------------------------------------------------------------------
      1          1           0        0.000000    0.000000    0.000000
      2          6           0        0.000000    0.000000    1.078517
      3          6           0        1.106788    0.000000    1.922111
      4          6           0       -1.132338    0.005949    1.902602
      5          1           0        2.143056   -0.018315    1.619800
      6          1           0       -1.214952   -0.982420    2.727715
      7          6           0        0.635158   -0.013382    3.235382
      8          7           0       -0.712221    0.043324    3.294322
      9          1           0       -2.154862    0.257946    1.666415
     10          1           0        1.208712   -0.094603    4.146566
 ---------------------------------------------------------------------
                    Distance matrix (angstroms):
                    1          2          3          4          5
     1  H    0.000000
     2  C    1.078517   0.000000
     3  C    2.217993   1.391629   0.000000
     4  C    2.214073   1.400479   2.239219   0.000000
     5  H    2.686406   2.210432   1.079620   3.287669   0.000000
     6  H    3.143515   2.271808   2.646624   1.290158   3.665132
     7  C    3.297166   2.248482   1.395455   2.213757   2.209952
     8  N    3.370711   2.327859   2.278954   1.454228   3.310654
     9  H    2.736221   2.248464   3.281809   1.079278   4.307039
    10  H    4.320179   3.298918   2.228797   3.244380   2.695063
                    6          7          8          9         10
     6  H    0.000000
     7  C    2.149341   0.000000
     8  N    1.275121   1.349859   0.000000
     9  H    1.883692   3.212396   2.185716   0.000000
    10  H    2.945421   1.079730   2.106022   4.193933   0.000000
 Symmetry turned off by external request.
 Stoichiometry    C4H5N
 Framework group  C1[X(C4H5N)]
 Deg. of freedom    24
 Full point group                 C1      NOp   1
 Rotational constants (GHZ):           9.1999105           8.8525117           4.5996332
 Standard basis: def2TZVP (5D, 7F)
   185 basis functions,   295 primitive gaussians,   210 cartesian basis functions
    18 alpha electrons       18 beta electrons
       nuclear repulsion energy       160.5895358700 Hartrees.
 NAtoms=   10 NActive=   10 NUniq=   10 SFac= 1.00D+00 NAtFMM=   60 NAOKFM=F Big=F
 Integral buffers will be    131072 words long.
 Raffenetti 2 integral format.
 Two-electron integral symmetry is turned off.
 One-electron integrals computed using PRISM.
   1 Symmetry operations used in ECPInt.
 ECPInt:  NShTT=    2850 NPrTT=    8640 LenC2=    2843 LenP2D=    7477.
 LDataN:  DoStor=T MaxTD1= 6 Len=  172
 NBasis=   185 RedAO= T EigKep=  5.73D-05  NBF=   185
 NBsUse=   185 1.00D-06 EigRej= -1.00D+00 NBFU=   185
 ExpMin= 9.52D-02 ExpMax= 1.97D+04 ExpMxC= 6.73D+02 IAcc=3 IRadAn=         5 AccDes= 0.00D+00
 Harris functional with IExCor=  402 and IRadAn=       5 diagonalized for initial guess.
 HarFok:  IExCor=  402 AccDes= 0.00D+00 IRadAn=         5 IDoV= 1 UseB2=F ITyADJ=14
 ICtDFT=  3500011 ScaDFX=  1.000000  1.000000  1.000000  1.000000
 FoFCou: FMM=F IPFlag=           0 FMFlag=      100000 FMFlg1=           0
         NFxFlg=           0 DoJE=T BraDBF=F KetDBF=T FulRan=T
         wScrn=  0.000000 ICntrl=       500 IOpCl=  0 I1Cent=   200000004 NGrid=           0
         NMat0=    1 NMatS0=      1 NMatT0=    0 NMatD0=    1 NMtDS0=    0 NMtDT0=    0
 Symmetry not used in FoFCou.
 Keep R1 ints in memory in canonical form, NReq=160464061.
 Requested convergence on RMS density matrix=1.00D-08 within 128 cycles.
 Requested convergence on MAX density matrix=1.00D-06.
 Requested convergence on             energy=1.00D-06.
 No special actions if energy rises.
 Integral accuracy reduced to 1.0D-05 until final iterations.
 Initial convergence to 1.0D-05 achieved.  Increase integral accuracy.
 SCF Done:  E(RB3LYP) =  -210.175708944     A.U. after   14 cycles
            NFock= 14  Conv=0.29D-08     -V/T= 2.0051

 **********************************************************************

            Population analysis using the SCF density.

 **********************************************************************

 Alpha  occ. eigenvalues --  -14.34125 -10.21670 -10.19481 -10.18050 -10.17778
 Alpha  occ. eigenvalues --   -0.97753  -0.77581  -0.73519  -0.58564  -0.56295
 Alpha  occ. eigenvalues --   -0.52621  -0.47542  -0.40877  -0.40248  -0.39979
 Alpha  occ. eigenvalues --   -0.30272  -0.28330  -0.25349
 Alpha virt. eigenvalues --   -0.01105   0.01723   0.05429   0.07031   0.08687
 Alpha virt. eigenvalues --    0.09004   0.09941   0.13859   0.15856   0.17736
 Alpha virt. eigenvalues --    0.19506   0.21428   0.22598   0.23806   0.24482
 Alpha virt. eigenvalues --    0.26406   0.30743   0.33418   0.34077   0.34366
 Alpha virt. eigenvalues --    0.36345   0.37095   0.39259   0.39969   0.40879
 Alpha virt. eigenvalues --    0.42232   0.43323   0.45804   0.46979   0.49867
 Alpha virt. eigenvalues --    0.51134   0.53024   0.56773   0.59607   0.60312
 Alpha virt. eigenvalues --    0.65515   0.67378   0.70032   0.74996   0.83947
 Alpha virt. eigenvalues --    0.86349   0.88357   0.92233   0.94831   0.95257
 Alpha virt. eigenvalues --    0.98218   1.03026   1.06715   1.08802   1.09528
 Alpha virt. eigenvalues --    1.12042   1.14951   1.18679   1.23550   1.24706
 Alpha virt. eigenvalues --    1.27609   1.33990   1.35647   1.42171   1.42652
 Alpha virt. eigenvalues --    1.44971   1.46288   1.48086   1.51099   1.55227
 Alpha virt. eigenvalues --    1.56050   1.59757   1.65156   1.68207   1.69761
 Alpha virt. eigenvalues --    1.71824   1.74235   1.77574   1.85696   1.89137
 Alpha virt. eigenvalues --    1.97674   1.98724   2.01627   2.06338   2.06487
 Alpha virt. eigenvalues --    2.09628   2.15093   2.18196   2.19859   2.30158
 Alpha virt. eigenvalues --    2.33250   2.38649   2.44308   2.45407   2.46522
 Alpha virt. eigenvalues --    2.50950   2.55505   2.56694   2.60938   2.62754
 Alpha virt. eigenvalues --    2.65069   2.68698   2.70884   2.72006   2.74717
 Alpha virt. eigenvalues --    2.79112   2.82807   2.84589   2.89916   2.91866
 Alpha virt. eigenvalues --    2.94063   2.95753   2.97112   3.00481   3.02305
 Alpha virt. eigenvalues --    3.04437   3.08792   3.09836   3.13582   3.17294
 Alpha virt. eigenvalues --    3.18274   3.23710   3.27942   3.32049   3.33526
 Alpha virt. eigenvalues --    3.38395   3.40896   3.42657   3.45218   3.46069
 Alpha virt. eigenvalues --    3.49365   3.50145   3.59903   3.61664   3.67209
 Alpha virt. eigenvalues --    3.79267   3.85158   3.97132   4.00102   4.07152
 Alpha virt. eigenvalues --    4.08809   4.11720   4.19448   4.20274   4.23187
 Alpha virt. eigenvalues --    4.28846   4.32018   4.36431   4.44085   4.48208
 Alpha virt. eigenvalues --    4.54304   4.66045   4.71120   4.74646   4.82975
 Alpha virt. eigenvalues --    4.88758   4.91491   4.96460   5.02376   5.15507
 Alpha virt. eigenvalues --    5.18668   5.24318   5.24871   5.41982   5.56334
 Alpha virt. eigenvalues --    5.70991   5.75231  22.09916  22.45436  22.56387
 Alpha virt. eigenvalues --   22.81556  32.13563
          Condensed to atoms (all electrons):
               1          2          3          4          5          6
     1  H    0.531432   0.401832  -0.031449  -0.030089  -0.001723  -0.000303
     2  C    0.401832   5.104443   0.503409   0.339980  -0.054048   0.024545
     3  C   -0.031449   0.503409   4.897091  -0.057751   0.414218  -0.022555
     4  C   -0.030089   0.339980  -0.057751   5.316406   0.017675   0.119767
     5  H   -0.001723  -0.054048   0.414218   0.017675   0.545423  -0.001156
     6  H   -0.000303   0.024545  -0.022555   0.119767  -0.001156   0.544072
     7  C    0.006037  -0.031588   0.515948  -0.182147  -0.041115  -0.014541
     8  N    0.004625  -0.074461  -0.085983   0.121286   0.006447   0.142039
     9  H   -0.001075  -0.043834   0.007381   0.417385   0.000002  -0.016715
    10  H   -0.000112   0.006090  -0.051070   0.009350  -0.000652  -0.002055
               7          8          9         10
     1  H    0.006037   0.004625  -0.001075  -0.000112
     2  C   -0.031588  -0.074461  -0.043834   0.006090
     3  C    0.515948  -0.085983   0.007381  -0.051070
     4  C   -0.182147   0.121286   0.417385   0.009350
     5  H   -0.041115   0.006447   0.000002  -0.000652
     6  H   -0.014541   0.142039  -0.016715  -0.002055
     7  C    4.908868   0.518503   0.004788   0.422963
     8  N    0.518503   6.712341  -0.030766  -0.029774
     9  H    0.004788  -0.030766   0.512181  -0.000191
    10  H    0.422963  -0.029774  -0.000191   0.529508
 Mulliken charges:
               1
     1  H    0.120825
     2  C   -0.176369
     3  C   -0.089239
     4  C   -0.071861
     5  H    0.114929
     6  H    0.226902
     7  C   -0.107717
     8  N   -0.284257
     9  H    0.150845
    10  H    0.115943
 Sum of Mulliken charges =  -0.00000
 Mulliken charges with hydrogens summed into heavy atoms:
               1
     2  C   -0.055544
     3  C    0.025690
     4  C    0.078984
     7  C    0.008226
     8  N   -0.057355
 Electronic spatial extent (au):  <R**2>=            977.5490
 Charge=             -0.0000 electrons
 Dipole moment (field-independent basis, Debye):
    X=              0.2740    Y=             -0.6724    Z=             -1.2844  Tot=              1.4754
 Quadrupole moment (field-independent basis, Debye-Ang):
   XX=            -27.1129   YY=            -31.9034   ZZ=            -36.2012
   XY=              0.5082   XZ=              3.0478   YZ=             -2.5436
 Traceless Quadrupole moment (field-independent basis, Debye-Ang):
   XX=              4.6263   YY=             -0.1642   ZZ=             -4.4621
   XY=              0.5082   XZ=              3.0478   YZ=             -2.5436
 Octapole moment (field-independent basis, Debye-Ang**2):
  XXX=              2.1119  YYY=              0.6086  ZZZ=           -232.4345  XYY=             -1.0418
  XXY=              0.3165  XXZ=            -64.3688  XZZ=             18.7763  YZZ=             -7.9065
  YYZ=            -70.9673  XYZ=              2.3877
 Hexadecapole moment (field-independent basis, Debye-Ang**3):
 XXXX=           -171.9223 YYYY=            -41.1017 ZZZZ=          -1232.7729 XXXY=             -2.2363
 XXXZ=              7.1206 YYYX=              0.3549 YYYZ=              1.4550 ZZZX=             93.3559
 ZZZY=            -22.1603 XXYY=            -40.9462 XXZZ=           -217.8277 YYZZ=           -200.3007
 XXYZ=             -1.2012 YYXZ=             -3.8088 ZZXY=              7.8304
 N-N= 1.605895358700D+02 E-N=-8.093026506564D+02  KE= 2.091031076446D+02
 1\1\GINC-BHC0006\SP\RB3LYP\def2TZVP\C4H5N1\DHANAWAY\10-Jun-2022\0\\# s
 p B3LYP/Def2TZVP NoSymm\\ts_initalOpt_zmat_AlignedSp\\0,1\H\C,1,1.0785
 173\C,2,1.3916285,1,127.31466348\C,2,1.40047886,1,126.04574691,3,179.6
 9900347,0\H,3,1.07961986,2,126.41566418,1,-1.20790883,0\H,4,1.2901583,
 2,115.1409749,1,122.15483978,0\C,3,1.39545501,2,107.55930729,5,-178.21
 576941,0\N,4,1.45422796,2,109.24852016,6,59.49723491,0\H,4,1.07927834,
 2,129.66066285,6,-139.42180241,0\H,7,1.07973011,3,127.98006366,2,174.7
 8041102,0\\Version=ES64L-G16RevA.03\HF=-210.1757089\RMSD=2.940e-09\Dip
 ole=0.1077912,-0.2645296,-0.5053114\Quadrupole=3.43951,-0.1220733,-3.3
 174367,0.3778572,2.2659834,-1.8911358\PG=C01 [X(C4H5N1)]\\@


 CONFIDENCE IS WHAT YOU FEEL BEFORE YOU FULLY
 COMPREHEND THE SITUATION.
 Job cpu time:       0 days  0 hours  1 minutes 41.6 seconds.
 Elapsed time:       0 days  0 hours  0 minutes 11.9 seconds.
 File lengths (MBytes):  RWF=     19 Int=      0 D2E=      0 Chk=     32 Scr=      1
 Normal termination of Gaussian 16 at Fri Jun 10 22:23:17 2022.
