 Entering Gaussian System, Link 0=g16
 Input=ts_zmat_field_N75.gjf
 Output=ts_zmat_field_N75.out
 Initial command:
 /software/gaussian/g16-a03/l1.exe "/local_scratch/11172285/Gau-24305.inp" -scrdir="/local_scratch/11172285/"
 Entering Link 1 = /software/gaussian/g16-a03/l1.exe PID=     24306.
  
 Copyright (c) 1988,1990,1992,1993,1995,1998,2003,2009,2016,
            Gaussian, Inc.  All Rights Reserved.
  
 This is part of the Gaussian(R) 16 program.  It is based on
 the Gaussian(R) 09 system (copyright 2009, Gaussian, Inc.),
 the Gaussian(R) 03 system (copyright 2003, Gaussian, Inc.),
 the Gaussian(R) 98 system (copyright 1998, Gaussian, Inc.),
 the Gaussian(R) 94 system (copyright 1995, Gaussian, Inc.),
 the Gaussian 92(TM) system (copyright 1992, Gaussian, Inc.),
 the Gaussian 90(TM) system (copyright 1990, Gaussian, Inc.),
 the Gaussian 88(TM) system (copyright 1988, Gaussian, Inc.),
 the Gaussian 86(TM) system (copyright 1986, Carnegie Mellon
 University), and the Gaussian 82(TM) system (copyright 1983,
 Carnegie Mellon University). Gaussian is a federally registered
 trademark of Gaussian, Inc.
  
 This software contains proprietary and confidential information,
 including trade secrets, belonging to Gaussian, Inc.
  
 This software is provided under written license and may be
 used, copied, transmitted, or stored only in accord with that
 written license.
  
 The following legend is applicable only to US Government
 contracts under FAR:
  
                    RESTRICTED RIGHTS LEGEND
  
 Use, reproduction and disclosure by the US Government is
 subject to restrictions as set forth in subparagraphs (a)
 and (c) of the Commercial Computer Software - Restricted
 Rights clause in FAR 52.227-19.
  
 Gaussian, Inc.
 340 Quinnipiac St., Bldg. 40, Wallingford CT 06492
  
  
 ---------------------------------------------------------------
 Warning -- This program may not be used in any manner that
 competes with the business of Gaussian, Inc. or will provide
 assistance to any competitor of Gaussian, Inc.  The licensee
 of this program is prohibited from giving any competitor of
 Gaussian, Inc. access to this program.  By using this program,
 the user acknowledges that Gaussian, Inc. is engaged in the
 business of creating and licensing software in the field of
 computational chemistry and represents and warrants to the
 licensee that it is not a competitor of Gaussian, Inc. and that
 it will not use this program in any manner prohibited above.
 ---------------------------------------------------------------
  

 Cite this work as:
 Gaussian 16, Revision A.03,
 M. J. Frisch, G. W. Trucks, H. B. Schlegel, G. E. Scuseria, 
 M. A. Robb, J. R. Cheeseman, G. Scalmani, V. Barone, 
 G. A. Petersson, H. Nakatsuji, X. Li, M. Caricato, A. V. Marenich, 
 J. Bloino, B. G. Janesko, R. Gomperts, B. Mennucci, H. P. Hratchian, 
 J. V. Ortiz, A. F. Izmaylov, J. L. Sonnenberg, D. Williams-Young, 
 F. Ding, F. Lipparini, F. Egidi, J. Goings, B. Peng, A. Petrone, 
 T. Henderson, D. Ranasinghe, V. G. Zakrzewski, J. Gao, N. Rega, 
 G. Zheng, W. Liang, M. Hada, M. Ehara, K. Toyota, R. Fukuda, 
 J. Hasegawa, M. Ishida, T. Nakajima, Y. Honda, O. Kitao, H. Nakai, 
 T. Vreven, K. Throssell, J. A. Montgomery, Jr., J. E. Peralta, 
 F. Ogliaro, M. J. Bearpark, J. J. Heyd, E. N. Brothers, K. N. Kudin, 
 V. N. Staroverov, T. A. Keith, R. Kobayashi, J. Normand, 
 K. Raghavachari, A. P. Rendell, J. C. Burant, S. S. Iyengar, 
 J. Tomasi, M. Cossi, J. M. Millam, M. Klene, C. Adamo, R. Cammi, 
 J. W. Ochterski, R. L. Martin, K. Morokuma, O. Farkas, 
 J. B. Foresman, and D. J. Fox, Gaussian, Inc., Wallingford CT, 2016.
 
 ******************************************
 Gaussian 16:  ES64L-G16RevA.03 25-Dec-2016
                10-Jun-2022 
 ******************************************
 %nprocshared=12
 Will use up to   12 processors via shared memory.
 %chk=checkpoint.chk
 %mem=12GB
 ----------------------------------------------------------------------
 # Opt=(TS, CalcFC, noeigentest, Z-matrix, MaxStep=10) geom=allcheckpoi
 nt guess=read Field=read NoSymm B3LYP/Def2TZVP freq=noraman pop=none
 ----------------------------------------------------------------------
 1/5=1,8=10,10=4,11=1,18=40,26=3,29=7,38=1/1,3;
 2/12=2,15=1,29=3,40=1/2;
 3/5=44,7=101,11=2,14=-6,25=1,30=1,71=2,74=-5,116=-2,140=1/1,2,3;
 4/5=1/1;
 5/5=2,38=6/2;
 8/6=4,10=90,11=11/1;
 11/6=1,8=1,9=11,15=111,16=1,31=1/1,2,10;
 10/6=1,13=1,31=1/2;
 7/10=1,18=20,25=1,30=1/1,2,3,16;
 1/5=1,8=10,10=4,11=1,18=40,26=3/3(2);
 2/15=1,29=3/2;
 99//99;
 2/15=1,29=3/2;
 3/5=44,7=101,11=2,14=-2,25=1,30=1,71=1,74=-5/1,2,3;
 4/5=5,16=3,69=1/1;
 5/5=2,38=5/2;
 7/30=1/1,2,3,16;
 1/5=1,8=10,11=1,18=40,26=3/3(-5);
 2/15=1,29=3/2;
 99/9=1/99;
 Structure from the checkpoint file:  "checkpoint.chk"
 -----------------
 ts_zmat_initalOpt
 -----------------
 Charge =  0 Multiplicity = 1
 Z-Matrix found in chk file.
 C
 C,1,R2
 S,1,R3,2,A3
 C,1,R4,2,A4,3,D4,0
 O,3,R5,1,A5,2,D5,0
 H,2,R6,1,A6,3,D6,0
 C,2,R7,1,A7,6,D7,0
 C,4,R8,1,A8,2,D8,0
 H,4,R9,1,A9,8,D9,0
 H,7,R10,2,A10,1,D10,0
 C,7,R11,2,A11,10,D11,0
 H,8,R12,4,A12,1,D12,0
 H,11,R13,7,A13,2,D13,0
 C,1,R14,2,A14,3,D14,0
 C,14,R15,1,A15,2,D15,0
 H,14,R16,1,A16,15,D16,0
 H,14,R17,1,A17,15,D17,0
 C,15,R18,14,A18,1,D18,0
 H,15,R19,14,A19,18,D19,0
 H,18,R20,15,A20,14,D20,0
 H,18,R21,15,A21,20,D21,0
      Variables:
 R2=1.39370183
 R3=1.78223941
 R4=1.39696581
 R5=1.52854932
 R6=1.08193084
 R7=1.38991585
 R8=1.38767203
 R9=1.0842378
 R10=1.08347331
 R11=1.39135871
 R12=1.08369099
 R13=1.08329809
 R14=3.89402283
 R15=1.38341043
 R16=1.08025126
 R17=1.08053003
 R18=1.37546189
 R19=1.08409149
 R20=1.08203356
 R21=1.08227473
 A3=121.15633193
 A4=120.01882337
 A5=106.00111827
 A6=118.98609034
 A7=119.68493311
 A8=119.87976744
 A9=119.91250987
 A10=119.41807686
 A11=120.50057525
 A12=119.55843666
 A13=120.19288859
 A14=83.02777285
 A15=84.60944606
 A16=135.38047024
 A17=63.86630333
 A18=119.48366158
 A19=118.64808694
 A20=121.31511004
 A21=120.74202691
 D4=178.75574759
 D5=-1.28888888
 D6=-0.29068681
 D7=-178.81211699
 D8=0.12963043
 D9=180.14405505
 D10=179.79037089
 D11=-179.53330425
 D12=-179.82463986
 D13=179.71095187
 D14=-31.29535191
 D15=-156.13015747
 D16=-130.28040177
 D17=127.8319747
 D18=27.67130274
 D19=-161.22268207
 D20=-169.13674035
 D21=-164.94149148
 Recover connectivity data from disk.

 GradGradGradGradGradGradGradGradGradGradGradGradGradGradGradGradGradGrad
 Berny optimization.
 Initialization pass.
                       ----------------------------
                       !    Initial Parameters    !
                       ! (Angstroms and Degrees)  !
 ----------------------                            ----------------------
 !      Name          Value   Derivative information (Atomic Units)     !
 ------------------------------------------------------------------------
 !       R2          1.3937   calculate D2E/DX2 analytically            !
 !       R3          1.7822   calculate D2E/DX2 analytically            !
 !       R4          1.397    calculate D2E/DX2 analytically            !
 !       R5          1.5285   calculate D2E/DX2 analytically            !
 !       R6          1.0819   calculate D2E/DX2 analytically            !
 !       R7          1.3899   calculate D2E/DX2 analytically            !
 !       R8          1.3877   calculate D2E/DX2 analytically            !
 !       R9          1.0842   calculate D2E/DX2 analytically            !
 !       R10         1.0835   calculate D2E/DX2 analytically            !
 !       R11         1.3914   calculate D2E/DX2 analytically            !
 !       R12         1.0837   calculate D2E/DX2 analytically            !
 !       R13         1.0833   calculate D2E/DX2 analytically            !
 !       R14         3.894    calculate D2E/DX2 analytically            !
 !       R15         1.3834   calculate D2E/DX2 analytically            !
 !       R16         1.0803   calculate D2E/DX2 analytically            !
 !       R17         1.0805   calculate D2E/DX2 analytically            !
 !       R18         1.3755   calculate D2E/DX2 analytically            !
 !       R19         1.0841   calculate D2E/DX2 analytically            !
 !       R20         1.082    calculate D2E/DX2 analytically            !
 !       R21         1.0823   calculate D2E/DX2 analytically            !
 !       A3        121.1563   calculate D2E/DX2 analytically            !
 !       A4        120.0188   calculate D2E/DX2 analytically            !
 !       A5        106.0011   calculate D2E/DX2 analytically            !
 !       A6        118.9861   calculate D2E/DX2 analytically            !
 !       A7        119.6849   calculate D2E/DX2 analytically            !
 !       A8        119.8798   calculate D2E/DX2 analytically            !
 !       A9        119.9125   calculate D2E/DX2 analytically            !
 !       A10       119.4181   calculate D2E/DX2 analytically            !
 !       A11       120.5006   calculate D2E/DX2 analytically            !
 !       A12       119.5584   calculate D2E/DX2 analytically            !
 !       A13       120.1929   calculate D2E/DX2 analytically            !
 !       A14        83.0278   calculate D2E/DX2 analytically            !
 !       A15        84.6094   calculate D2E/DX2 analytically            !
 !       A16       135.3805   calculate D2E/DX2 analytically            !
 !       A17        63.8663   calculate D2E/DX2 analytically            !
 !       A18       119.4837   calculate D2E/DX2 analytically            !
 !       A19       118.6481   calculate D2E/DX2 analytically            !
 !       A20       121.3151   calculate D2E/DX2 analytically            !
 !       A21       120.742    calculate D2E/DX2 analytically            !
 !       D4        178.7557   calculate D2E/DX2 analytically            !
 !       D5         -1.2889   calculate D2E/DX2 analytically            !
 !       D6         -0.2907   calculate D2E/DX2 analytically            !
 !       D7       -178.8121   calculate D2E/DX2 analytically            !
 !       D8          0.1296   calculate D2E/DX2 analytically            !
 !       D9        180.1441   calculate D2E/DX2 analytically            !
 !       D10       179.7904   calculate D2E/DX2 analytically            !
 !       D11      -179.5333   calculate D2E/DX2 analytically            !
 !       D12      -179.8246   calculate D2E/DX2 analytically            !
 !       D13       179.711    calculate D2E/DX2 analytically            !
 !       D14       -31.2954   calculate D2E/DX2 analytically            !
 !       D15      -156.1302   calculate D2E/DX2 analytically            !
 !       D16      -130.2804   calculate D2E/DX2 analytically            !
 !       D17       127.832    calculate D2E/DX2 analytically            !
 !       D18        27.6713   calculate D2E/DX2 analytically            !
 !       D19      -161.2227   calculate D2E/DX2 analytically            !
 !       D20      -169.1367   calculate D2E/DX2 analytically            !
 !       D21      -164.9415   calculate D2E/DX2 analytically            !
 ------------------------------------------------------------------------
 Trust Radius=1.00D-01 FncErr=1.00D-07 GrdErr=1.00D-06 EigMax=2.50D+02 EigMin=1.00D-04
 Number of steps in this run=     67 maximum allowed number of steps=    114.
 Search for a saddle point of order  1.
 GradGradGradGradGradGradGradGradGradGradGradGradGradGradGradGradGradGrad

 ---------------------------------------------------------------------------------------------------
                            Z-MATRIX (ANGSTROMS AND DEGREES)
   CD    Cent   Atom    N1       Length/X        N2       Alpha/Y        N3        Beta/Z          J
 ---------------------------------------------------------------------------------------------------
      1      1  C 
      2      2  C        1   1.393702(     1)
      3      3  S        1   1.782239(     2)      2  121.156(    21)
      4      4  C        1   1.396966(     3)      2  120.019(    22)      3  178.756(    40)      0
      5      5  O        3   1.528549(     4)      1  106.001(    23)      2   -1.289(    41)      0
      6      6  H        2   1.081931(     5)      1  118.986(    24)      3   -0.291(    42)      0
      7      7  C        2   1.389916(     6)      1  119.685(    25)      6 -178.812(    43)      0
      8      8  C        4   1.387672(     7)      1  119.880(    26)      2    0.130(    44)      0
      9      9  H        4   1.084238(     8)      1  119.913(    27)      8  180.144(    45)      0
     10     10  H        7   1.083473(     9)      2  119.418(    28)      1  179.790(    46)      0
     11     11  C        7   1.391359(    10)      2  120.501(    29)     10 -179.533(    47)      0
     12     12  H        8   1.083691(    11)      4  119.558(    30)      1 -179.825(    48)      0
     13     13  H       11   1.083298(    12)      7  120.193(    31)      2  179.711(    49)      0
     14     14  C        1   3.894023(    13)      2   83.028(    32)      3  -31.295(    50)      0
     15     15  C       14   1.383410(    14)      1   84.609(    33)      2 -156.130(    51)      0
     16     16  H       14   1.080251(    15)      1  135.380(    34)     15 -130.280(    52)      0
     17     17  H       14   1.080530(    16)      1   63.866(    35)     15  127.832(    53)      0
     18     18  C       15   1.375462(    17)     14  119.484(    36)      1   27.671(    54)      0
     19     19  H       15   1.084091(    18)     14  118.648(    37)     18 -161.223(    55)      0
     20     20  H       18   1.082034(    19)     15  121.315(    38)     14 -169.137(    56)      0
     21     21  H       18   1.082275(    20)     15  120.742(    39)     20 -164.941(    57)      0
 ---------------------------------------------------------------------------------------------------
                         Z-Matrix orientation:                         
 ---------------------------------------------------------------------
 Center     Atomic      Atomic             Coordinates (Angstroms)
 Number     Number       Type             X           Y           Z
 ---------------------------------------------------------------------
      1          6           0        0.000000    0.000000    0.000000
      2          6           0        0.000000    0.000000    1.393702
      3         16           0        1.525167    0.000000   -0.922086
      4          6           0       -1.209293   -0.026266   -0.698880
      5          8           0        2.645745    0.033050    0.116988
      6          1           0        0.946393   -0.004802    1.918003
      7          6           0       -1.207358   -0.018908    2.082030
      8          6           0       -2.409597   -0.049613   -0.002921
      9          1           0       -1.207190   -0.030710   -1.783107
     10          1           0       -1.202261   -0.022281    3.165486
     11          6           0       -2.414318   -0.043188    1.390266
     12          1           0       -3.344585   -0.072820   -0.550319
     13          1           0       -3.352346   -0.062576    1.931802
     14          6           0        3.302840    2.007791    0.472688
     15          6           0        3.033742    2.496442   -0.793262
     16          1           0        4.310862    1.768779    0.778804
     17          1           0        2.571682    2.101495    1.262735
     18          6           0        1.730654    2.571353   -1.227135
     19          1           0        3.835543    2.520156   -1.522513
     20          1           0        1.493607    2.781173   -2.261824
     21          1           0        0.916588    2.664080   -0.520016
 ---------------------------------------------------------------------
                    Distance matrix (angstroms):
                    1          2          3          4          5
     1  C    0.000000
     2  C    1.393702   0.000000
     3  S    1.782239   2.772906   0.000000
     4  C    1.396966   2.417019   2.743681   0.000000
     5  O    2.648537   2.937867   1.528549   3.940873   0.000000
     6  H    2.138789   1.081931   2.898466   3.390504   2.476466
     7  C    2.406849   1.389916   4.061005   2.780921   4.325563
     8  C    2.410109   2.785529   4.041002   1.387672   5.057440
     9  H    2.153537   3.398583   2.864974   1.084238   4.296456
    10  H    3.386182   2.141296   4.914022   3.864375   4.909537
    11  C    2.786330   2.414706   4.568192   2.411826   5.218361
    12  H    3.390340   3.869208   4.884465   2.140960   6.028314
    13  H    3.869625   3.395835   5.651436   3.393300   6.267360
    14  C    3.894023   3.973442   3.022705   5.086188   2.111374
    15  C    4.008126   4.496512   2.919695   4.937237   2.654693
    16  H    4.724262   4.700023   3.712372   5.989813   2.494668
    17  H    3.553074   3.323700   3.207011   4.761415   2.365731
    18  C    3.333598   4.059040   2.597525   3.958530   3.014471
    19  H    4.835351   5.437544   3.471244   5.710780   3.207690
    20  H    3.883508   4.829974   3.087202   4.198830   3.812918
    21  H    2.864938   3.405844   2.762128   3.433558   3.212176
                    6          7          8          9         10
     6  H    0.000000
     7  C    2.160034   0.000000
     8  C    3.867121   2.406937   0.000000
     9  H    4.282149   3.865155   2.148302   0.000000
    10  H    2.484600   1.083473   3.390754   4.948603   0.000000
    11  C    3.402111   1.391359   1.393210   3.395234   2.149633
    12  H    4.950731   3.391152   1.083691   2.467792   4.289442
    13  H    4.299150   2.150686   2.152231   4.289903   2.479206
    14  C    3.419401   5.199940   6.090243   5.439161   5.627459
    15  C    4.238420   5.707996   6.061103   5.035056   6.321343
    16  H    3.970266   5.945164   7.005870   6.344324   6.268866
    17  H    2.739968   4.410045   5.571561   5.301257   4.730068
    18  C    4.140474   5.127566   5.050726   3.963680   5.884220
    19  H    5.153615   6.698539   6.922041   5.657206   7.336266
    20  H    5.052924   5.831357   5.324565   3.928124   6.677032
    21  H    3.614935   4.298862   4.323774   3.656189   5.028815
                   11         12         13         14         15
    11  C    0.000000
    12  H    2.152242   0.000000
    13  H    1.083298   2.482155   0.000000
    14  C    6.142830   7.040153   7.120881   0.000000
    15  C    6.395223   6.880638   7.399775   1.383410   0.000000
    16  H    6.991792   7.985232   7.962916   1.080251   2.152190
    17  H    5.429192   6.558737   6.342316   1.080530   2.143969
    18  C    5.555844   5.762619   6.538605   2.383017   1.375462
    19  H    7.356343   7.695643   8.382634   2.127703   1.084091
    20  H    6.048690   5.872191   7.011182   3.368828   2.147035
    21  H    4.698235   5.064497   5.627598   2.666529   2.141287
                   16         17         18         19         20
    16  H    0.000000
    17  H    1.835657   0.000000
    18  C    3.365322   2.669746   0.000000
    19  H    2.467095   3.087106   2.126130   0.000000
    20  H    4.267000   3.747895   1.082034   2.469691   0.000000
    21  H    3.742940   2.496806   1.082275   3.089663   1.838628
                   21
    21  H    0.000000
 Symmetry turned off by external request.
 Stoichiometry    C9H10OS
 Framework group  C1[X(C9H10OS)]
 Deg. of freedom    57
 Full point group                 C1      NOp   1
 Rotational constants (GHZ):           2.0246077           0.5870908           0.5582380
 Standard basis: def2TZVP (5D, 7F)
 The following finite field(s) will be applied:
 An electric field of             -0.0073  0.0002  0.0019
   407 basis functions,   659 primitive gaussians,   462 cartesian basis functions
    44 alpha electrons       44 beta electrons
       nuclear repulsion energy       669.1916891802 Hartrees.
 NAtoms=   21 NActive=   21 NUniq=   21 SFac= 1.00D+00 NAtFMM=   60 NAOKFM=F Big=F
 Integral buffers will be    131072 words long.
 Raffenetti 2 integral format.
 Two-electron integral symmetry is turned off.
 One-electron integrals computed using PRISM.
   1 Symmetry operations used in ECPInt.
 ECPInt:  NShTT=   13366 NPrTT=   41614 LenC2=   12660 LenP2D=   29796.
 LDataN:  DoStor=T MaxTD1= 6 Len=  172
 NBasis=   407 RedAO= T EigKep=  8.42D-06  NBF=   407
 NBsUse=   407 1.00D-06 EigRej= -1.00D+00 NBFU=   407
 The nuclear repulsion energy is now       668.4715919585 hartrees.
 Initial guess from the checkpoint file:  "checkpoint.chk"
 B after Tr=    -0.000000    0.000000   -0.000000
         Rot=    1.000000    0.000000   -0.000000    0.000000 Ang=   0.00 deg.
 Requested convergence on RMS density matrix=1.00D-08 within 128 cycles.
 Requested convergence on MAX density matrix=1.00D-06.
 Requested convergence on             energy=1.00D-06.
 No special actions if energy rises.
 SCF Done:  E(RB3LYP) =  -822.502394316     A.U. after   12 cycles
            NFock= 12  Conv=0.26D-08     -V/T= 2.0035
 DoSCS=F DFT=T ScalE2(SS,OS)=  1.000000  1.000000
 Range of M.O.s used for correlation:     1   407
 NBasis=   407 NAE=    44 NBE=    44 NFC=     0 NFV=     0
 NROrb=    407 NOA=    44 NOB=    44 NVA=   363 NVB=   363

 **** Warning!!: The largest alpha MO coefficient is  0.73586709D+02

   1 Symmetry operations used in ECPInt.
 ECPInt:  NShTT=   13366 NPrTT=   41614 LenC2=   12660 LenP2D=   29796.
 LDataN:  DoStor=T MaxTD1= 7 Len=  274
 Symmetrizing basis deriv contribution to polar:
 IMax=3 JMax=2 DiffMx= 0.00D+00
 G2DrvN: will do    22 centers at a time, making    1 passes.
 Calling FoFCou, ICntrl=  3107 FMM=F I1Cent=   0 AccDes= 0.00D+00.
 End of G2Drv F.D. properties file   721 does not exist.
 End of G2Drv F.D. properties file   722 does not exist.
 End of G2Drv F.D. properties file   788 does not exist.
          IDoAtm=111111111111111111111
          Differentiating once with respect to nuclear coordinates.
 CalDSu exits because no D1Ps are significant.
          There are    66 degrees of freedom in the 1st order CPHF.  IDoFFX=6 NUNeed=     0.
     60 vectors produced by pass  0 Test12= 2.42D-14 1.52D-09 XBig12= 1.70D-01 1.42D-01.
 AX will form    60 AO Fock derivatives at one time.
     60 vectors produced by pass  1 Test12= 2.42D-14 1.52D-09 XBig12= 7.54D-02 7.45D-02.
     60 vectors produced by pass  2 Test12= 2.42D-14 1.52D-09 XBig12= 1.09D-03 4.59D-03.
     60 vectors produced by pass  3 Test12= 2.42D-14 1.52D-09 XBig12= 6.55D-06 2.47D-04.
     60 vectors produced by pass  4 Test12= 2.42D-14 1.52D-09 XBig12= 1.77D-08 1.05D-05.
     59 vectors produced by pass  5 Test12= 2.42D-14 1.52D-09 XBig12= 3.56D-11 4.84D-07.
     24 vectors produced by pass  6 Test12= 2.42D-14 1.52D-09 XBig12= 5.13D-14 2.44D-08.
 InvSVY:  IOpt=1 It=  1 EMax= 3.33D-16
 Solved reduced A of dimension   383 with    66 vectors.
 End of Minotr F.D. properties file   721 does not exist.
 End of Minotr F.D. properties file   722 does not exist.
 End of Minotr F.D. properties file   788 does not exist.
   1 Symmetry operations used in ECPInt.
 ECPInt:  NShTT=   13366 NPrTT=   41614 LenC2=   12660 LenP2D=   29796.
 LDataN:  DoStor=T MaxTD1= 8 Len=  415
 Calling FoFJK, ICntrl=    100147 FMM=F ISym2X=0 I1Cent= 0 IOpClX= 0 NMat=1 NMatS=1 NMatT=0.
 -------------------------------------------------------------------
 Center     Atomic                   Forces (Hartrees/Bohr)
 Number     Number              X              Y              Z
 -------------------------------------------------------------------
      1        6           0.001800813    0.001581447   -0.000896169
      2        6          -0.000968706   -0.000380152    0.000756026
      3       16           0.000538001   -0.001995483    0.000145062
      4        6          -0.000998510   -0.000033354    0.000200409
      5        8          -0.000954822    0.000619601    0.000149783
      6        1           0.000160763   -0.000009337   -0.000130252
      7        6           0.000303100    0.000022630   -0.000126893
      8        6           0.000430574    0.000024990   -0.000186446
      9        1           0.000187656   -0.000015986    0.000006990
     10        1           0.000100696   -0.000014818    0.000176938
     11        6          -0.000282641    0.000031650    0.000162663
     12        1          -0.000288910   -0.000016900   -0.000243655
     13        1          -0.000387456   -0.000030232    0.000264139
     14        6           0.000145402   -0.000732392    0.000479872
     15        6          -0.000736758   -0.000071860   -0.001471423
     16        1           0.000069572   -0.000079348   -0.000067456
     17        1          -0.000084055    0.000077496    0.000073092
     18        6           0.000877301    0.001044369    0.000480033
     19        1           0.000018103    0.000115988    0.000133243
     20        1           0.000137767   -0.000100466   -0.000095298
     21        1          -0.000067889   -0.000037842    0.000189342
 -------------------------------------------------------------------
 Cartesian Forces:  Max     0.001995483 RMS     0.000584295
 -----------------------------------------------------------------------------------------------
                       Internal Coordinate Forces (Hartree/Bohr or radian)
  Cent   Atom   N1       Length/X         N2         Alpha/Y        N3         Beta/Z          J
 -----------------------------------------------------------------------------------------------
      1  C 
      2  C        1   0.001103(     1)
      3  S        1  -0.000509(     2)      2  -0.002316(    21)
      4  C        1   0.000691(     3)      2   0.000929(    22)      3  -0.000068(    40)     0
      5  O        3  -0.000585(     4)      1  -0.002204(    23)      2  -0.001743(    41)     0
      6  H        2   0.000078(     5)      1  -0.000392(    24)      3  -0.000040(    42)     0
      7  C        2   0.000467(     6)      1   0.002867(    25)      6  -0.000025(    43)     0
      8  C        4  -0.000338(     7)      1   0.000921(    26)      2   0.000048(    44)     0
      9  H        4  -0.000007(     8)      1  -0.000384(    27)      8   0.000035(    45)     0
     10  H        7   0.000177(     9)      2  -0.000204(    28)      1  -0.000054(    46)     0
     11  C        7   0.000369(    10)      2   0.001921(    29)     10  -0.000027(    47)     0
     12  H        8   0.000373(    11)      4  -0.000132(    30)      1   0.000017(    48)     0
     13  H       11   0.000468(    12)      7  -0.000071(    31)      2  -0.000039(    49)     0
     14  C        1   0.000382(    13)      2   0.000752(    32)      3   0.003052(    50)     0
     15  C       14   0.000990(    14)      1   0.002860(    33)      2   0.001397(    51)     0
     16  H       14   0.000063(    15)      1  -0.000102(    34)     15   0.000137(    52)     0
     17  H       14   0.000117(    16)      1   0.000066(    35)     15  -0.000111(    53)     0
     18  C       15  -0.001029(    17)     14   0.000419(    36)      1   0.001891(    54)     0
     19  H       15  -0.000074(    18)     14  -0.000115(    37)     18  -0.000272(    55)     0
     20  H       18   0.000041(    19)     15  -0.000305(    38)     14   0.000117(    56)     0
     21  H       18   0.000172(    20)     15  -0.000203(    39)     20  -0.000091(    57)     0
 -----------------------------------------------------------------------------------------------
 Internal  Forces:  Max     0.003051927 RMS     0.000997430

 GradGradGradGradGradGradGradGradGradGradGradGradGradGradGradGradGradGrad
 Berny optimization.
 Search for a saddle point.
 Step number   1 out of a maximum of   67
 All quantities printed in internal units (Hartrees-Bohrs-Radians)
 Swapping is turned off.
 Second derivative matrix not updated -- analytic derivatives used.
 ITU=  0
     Eigenvalues ---   -0.13489   0.00805   0.01245   0.02798   0.03160
     Eigenvalues ---    0.03409   0.03610   0.03783   0.04227   0.05763
     Eigenvalues ---    0.06196   0.06726   0.08618   0.10696   0.11480
     Eigenvalues ---    0.11886   0.13591   0.15900   0.16098   0.16845
     Eigenvalues ---    0.18118   0.19199   0.20848   0.22302   0.22767
     Eigenvalues ---    0.22965   0.23245   0.23609   0.28919   0.30122
     Eigenvalues ---    0.33574   0.34273   0.34720   0.35138   0.35232
     Eigenvalues ---    0.35371   0.35672   0.36016   0.36195   0.36589
     Eigenvalues ---    0.36738   0.38236   0.39407   0.41749   0.42449
     Eigenvalues ---    0.44891   0.47020   0.48651   0.49686   0.52447
     Eigenvalues ---    0.55551   0.57598   1.39963   2.39047   2.68550
     Eigenvalues ---    3.42823  23.96579
 Eigenvectors required to have negative eigenvalues:
                          A15       D15       D5        D17       D18
   1                    0.46691   0.34426  -0.33218  -0.29632   0.25802
                          D14       R5        R15       A17       D21
   1                    0.25763   0.25287   0.23202   0.22905  -0.21733
 RFO step:  Lambda0=1.142509659D-04 Lambda=-1.89960854D-04.
 Linear search not attempted -- option 19 set.
 Maximum step size (   0.100) exceeded in Quadratic search.
    -- Step size scaled by   0.833
 Variable       Old X    -DE/DX   Delta X   Delta X   Delta X     New X
                                 (Linear)    (Quad)   (Total)
    R2        2.63371   0.00110   0.00000   0.00148   0.00148   2.63520
    R3        3.36794  -0.00051   0.00000  -0.00014  -0.00014   3.36781
    R4        2.63988   0.00069   0.00000   0.00117   0.00117   2.64105
    R5        2.88854  -0.00058   0.00000  -0.00595  -0.00595   2.88259
    R6        2.04455   0.00008   0.00000   0.00023   0.00023   2.04479
    R7        2.62656   0.00047   0.00000  -0.00041  -0.00041   2.62615
    R8        2.62232  -0.00034   0.00000  -0.00013  -0.00013   2.62219
    R9        2.04891  -0.00001   0.00000   0.00007   0.00007   2.04899
   R10        2.04747   0.00018   0.00000   0.00045   0.00045   2.04792
   R11        2.62929   0.00037   0.00000   0.00090   0.00090   2.63019
   R12        2.04788   0.00037   0.00000   0.00090   0.00090   2.04878
   R13        2.04714   0.00047   0.00000   0.00101   0.00101   2.04814
   R14        7.35864   0.00038   0.00000   0.07996   0.07996   7.43860
   R15        2.61427   0.00099   0.00000  -0.00305  -0.00305   2.61122
   R16        2.04138   0.00006   0.00000   0.00013   0.00013   2.04151
   R17        2.04191   0.00012   0.00000   0.00001   0.00001   2.04191
   R18        2.59925  -0.00103   0.00000   0.00187   0.00187   2.60111
   R19        2.04864  -0.00007   0.00000  -0.00021  -0.00021   2.04843
   R20        2.04475   0.00004   0.00000  -0.00001  -0.00001   2.04474
   R21        2.04520   0.00017   0.00000   0.00050   0.00050   2.04570
    A3        2.11458  -0.00232   0.00000  -0.00130  -0.00130   2.11328
    A4        2.09472   0.00093   0.00000  -0.00209  -0.00209   2.09263
    A5        1.85007  -0.00220   0.00000  -0.00104  -0.00104   1.84903
    A6        2.07670  -0.00039   0.00000  -0.00220  -0.00220   2.07450
    A7        2.08890   0.00287   0.00000   0.00112   0.00112   2.09002
    A8        2.09230   0.00092   0.00000   0.00112   0.00112   2.09341
    A9        2.09287  -0.00038   0.00000  -0.00170  -0.00170   2.09117
   A10        2.08424  -0.00020   0.00000  -0.00097  -0.00097   2.08327
   A11        2.10313   0.00192   0.00000   0.00054   0.00054   2.10367
   A12        2.08669  -0.00013   0.00000  -0.00081  -0.00081   2.08588
   A13        2.09776  -0.00007   0.00000   0.00035   0.00035   2.09811
   A14        1.44911   0.00075   0.00000  -0.00364  -0.00364   1.44547
   A15        1.47671   0.00286   0.00000  -0.01316  -0.01316   1.46356
   A16        2.36283  -0.00010   0.00000  -0.00759  -0.00759   2.35525
   A17        1.11468   0.00007   0.00000   0.00859   0.00859   1.12326
   A18        2.08538   0.00042   0.00000   0.00046   0.00046   2.08585
   A19        2.07080  -0.00011   0.00000   0.00091   0.00091   2.07171
   A20        2.11735  -0.00031   0.00000  -0.00071  -0.00071   2.11663
   A21        2.10735  -0.00020   0.00000  -0.00140  -0.00140   2.10595
    D4        3.11988  -0.00007   0.00000   0.00367   0.00367   3.12355
    D5       -0.02250  -0.00174   0.00000   0.03895   0.03895   0.01646
    D6       -0.00507  -0.00004   0.00000  -0.00413  -0.00413  -0.00921
    D7       -3.12086  -0.00002   0.00000   0.00186   0.00186  -3.11900
    D8        0.00226   0.00005   0.00000  -0.00038  -0.00038   0.00188
    D9        3.14411   0.00003   0.00000   0.00153   0.00153   3.14563
   D10        3.13793  -0.00005   0.00000  -0.00102  -0.00102   3.13691
   D11       -3.13345  -0.00003   0.00000  -0.00058  -0.00058  -3.13402
   D12       -3.13853   0.00002   0.00000   0.00078   0.00078  -3.13775
   D13        3.13655  -0.00004   0.00000  -0.00047  -0.00047   3.13608
   D14       -0.54621   0.00305   0.00000   0.02523   0.02523  -0.52097
   D15       -2.72499   0.00140   0.00000   0.01297   0.01297  -2.71202
   D16       -2.27382   0.00014   0.00000   0.02028   0.02028  -2.25354
   D17        2.23109  -0.00011   0.00000   0.00692   0.00692   2.23801
   D18        0.48296   0.00189   0.00000   0.01481   0.01481   0.49776
   D19       -2.81387  -0.00027   0.00000  -0.00870  -0.00870  -2.82257
   D20       -2.95199   0.00012   0.00000  -0.00888  -0.00888  -2.96087
   D21       -2.87877  -0.00009   0.00000   0.00407   0.00407  -2.87470
         Item               Value     Threshold  Converged?
 Maximum Force            0.003052     0.000450     NO 
 RMS     Force            0.000997     0.000300     NO 
 Maximum Displacement     0.079962     0.001800     NO 
 RMS     Displacement     0.013245     0.001200     NO 
 Predicted change in Energy=-3.765323D-05
 GradGradGradGradGradGradGradGradGradGradGradGradGradGradGradGradGradGrad

 ---------------------------------------------------------------------------------------------------
                            Z-MATRIX (ANGSTROMS AND DEGREES)
   CD    Cent   Atom    N1       Length/X        N2       Alpha/Y        N3        Beta/Z          J
 ---------------------------------------------------------------------------------------------------
      1      1  C 
      2      2  C        1   1.394486(     1)
      3      3  S        1   1.782168(     2)      2  121.082(    21)
      4      4  C        1   1.397583(     3)      2  119.899(    22)      3  178.966(    40)      0
      5      5  O        3   1.525401(     4)      1  105.942(    23)      2    0.943(    41)      0
      6      6  H        2   1.082054(     5)      1  118.860(    24)      3   -0.528(    42)      0
      7      7  C        2   1.389701(     6)      1  119.749(    25)      6 -178.706(    43)      0
      8      8  C        4   1.387605(     7)      1  119.944(    26)      2    0.108(    44)      0
      9      9  H        4   1.084277(     8)      1  119.815(    27)      8  180.232(    45)      0
     10     10  H        7   1.083710(     9)      2  119.362(    28)      1  179.732(    46)      0
     11     11  C        7   1.391837(    10)      2  120.532(    29)     10 -179.566(    47)      0
     12     12  H        8   1.084166(    11)      4  119.512(    30)      1 -179.780(    48)      0
     13     13  H       11   1.083831(    12)      7  120.213(    31)      2  179.684(    49)      0
     14     14  C        1   3.936337(    13)      2   82.819(    32)      3  -29.850(    50)      0
     15     15  C       14   1.381797(    14)      1   83.856(    33)      2 -155.387(    51)      0
     16     16  H       14   1.080322(    15)      1  134.946(    34)     15 -129.118(    52)      0
     17     17  H       14   1.080534(    16)      1   64.358(    35)     15  128.229(    53)      0
     18     18  C       15   1.376450(    17)     14  119.510(    36)      1   28.520(    54)      0
     19     19  H       15   1.083980(    18)     14  118.700(    37)     18 -161.721(    55)      0
     20     20  H       18   1.082029(    19)     15  121.274(    38)     14 -169.646(    56)      0
     21     21  H       18   1.082537(    20)     15  120.662(    39)     20 -164.708(    57)      0
 ---------------------------------------------------------------------------------------------------
                         Z-Matrix orientation:                         
 ---------------------------------------------------------------------
 Center     Atomic      Atomic             Coordinates (Angstroms)
 Number     Number       Type             X           Y           Z
 ---------------------------------------------------------------------
      1          6           0        0.000000    0.000000    0.000000
      2          6           0        0.000000    0.000000    1.394486
      3         16           0        1.526301    0.000000   -0.920069
      4          6           0       -1.211374   -0.021860   -0.696659
      5          8           0        2.642237   -0.024137    0.119619
      6          1           0        0.947624   -0.008725    1.916763
      7          6           0       -1.206440   -0.016147    2.084060
      8          6           0       -2.411012   -0.041247    0.000434
      9          1           0       -1.209694   -0.027401   -1.780920
     10          1           0       -1.199070   -0.020470    3.167736
     11          6           0       -2.415044   -0.035784    1.394061
     12          1           0       -3.346565   -0.061768   -0.547047
     13          1           0       -3.352860   -0.053480    1.937087
     14          6           0        3.387342    1.943850    0.492047
     15          6           0        3.110693    2.444802   -0.765679
     16          1           0        4.391761    1.666765    0.777463
     17          1           0        2.669685    2.044674    1.293519
     18          6           0        1.802042    2.562938   -1.175667
     19          1           0        3.900714    2.453646   -1.507839
     20          1           0        1.553961    2.792038   -2.203653
     21          1           0        1.004729    2.674547   -0.451980
 ---------------------------------------------------------------------
                    Distance matrix (angstroms):
                    1          2          3          4          5
     1  C    0.000000
     2  C    1.394486   0.000000
     3  S    1.782168   2.772500   0.000000
     4  C    1.397583   2.416772   2.746862   0.000000
     5  O    2.645054   2.933817   1.525401   3.939115   0.000000
     6  H    2.138235   1.082054   2.895265   3.389900   2.470158
     7  C    2.408124   1.389701   4.061148   2.780729   4.321042
     8  C    2.411365   2.785329   4.043694   1.387605   5.054683
     9  H    2.153088   3.398134   2.868359   1.084277   4.295281
    10  H    3.387144   2.140702   4.913066   3.864415   4.903741
    11  C    2.788749   2.415309   4.570632   2.412493   5.215403
    12  H    3.391544   3.869478   4.887513   2.140798   6.025911
    13  H    3.872574   3.396902   5.654415   3.394640   6.264602
    14  C    3.936337   4.008370   3.039095   5.140547   2.137020
    15  C    4.029855   4.507746   2.917395   4.976891   2.664369
    16  H    4.761315   4.737762   3.724323   6.034866   2.520464
    17  H    3.602930   3.364239   3.223041   4.826385   2.378817
    18  C    3.346371   4.052368   2.590369   3.998912   3.012748
    19  H    4.848662   5.446048   3.464634   5.737559   3.220527
    20  H    3.881541   4.812159   3.073081   4.223284   3.809564
    21  H    2.892572   3.401782   2.764841   3.498799   3.207967
                    6          7          8          9         10
     6  H    0.000000
     7  C    2.160563   0.000000
     8  C    3.867016   2.406890   0.000000
     9  H    4.281032   3.864998   2.148623   0.000000
    10  H    2.484626   1.083710   3.391318   4.948673   0.000000
    11  C    3.403158   1.391837   1.393643   3.396092   2.150524
    12  H    4.951084   3.391893   1.084166   2.467760   4.291044
    13  H    4.300765   2.151770   2.153567   4.291551   2.480806
    14  C    3.434325   5.242034   6.148431   5.494084   5.661540
    15  C    4.230149   5.728430   6.103818   5.080182   6.334302
    16  H    3.995917   5.989928   7.056826   6.386848   6.310116
    17  H    2.751431   4.460524   5.642395   5.366121   4.769148
    18  C    4.111764   5.131126   5.090659   4.018301   5.877569
    19  H    5.148972   6.714509   6.952500   5.687393   7.347792
    20  H    5.018939   5.821529   5.348506   3.970608   6.658919
    21  H    3.579686   4.308202   4.387198   3.737684   5.022170
                   11         12         13         14         15
    11  C    0.000000
    12  H    2.153208   0.000000
    13  H    1.083831   2.484155   0.000000
    14  C    6.196794   7.102656   7.176892   0.000000
    15  C    6.430517   6.930142   7.438002   1.381797   0.000000
    16  H    7.043540   8.038895   8.017675   1.080322   2.151224
    17  H    5.494805   6.634760   6.409951   1.080534   2.143569
    18  C    5.580382   5.813122   6.565660   2.382796   1.376450
    19  H    7.382891   7.731331   8.412344   2.126732   1.083980
    20  H    6.057485   5.907936   7.022791   3.368606   2.147500
    21  H    4.737997   5.141033   5.669070   2.664948   2.141558
                   16         17         18         19         20
    16  H    0.000000
    17  H    1.837029   0.000000
    18  C    3.365187   2.668011   0.000000
    19  H    2.466356   3.087119   2.127606   0.000000
    20  H    4.266895   3.746146   1.082029   2.471015   0.000000
    21  H    3.741542   2.493108   1.082537   3.090366   1.839516
                   21
    21  H    0.000000
 Symmetry turned off by external request.
 Stoichiometry    C9H10OS
 Framework group  C1[X(C9H10OS)]
 Deg. of freedom    57
 Full point group                 C1      NOp   1
 Rotational constants (GHZ):           2.0425251           0.5822243           0.5532245
 Standard basis: def2TZVP (5D, 7F)
 The following finite field(s) will be applied:
 An electric field of             -0.0073  0.0002  0.0019
   407 basis functions,   659 primitive gaussians,   462 cartesian basis functions
    44 alpha electrons       44 beta electrons
       nuclear repulsion energy       668.3809068056 Hartrees.
 NAtoms=   21 NActive=   21 NUniq=   21 SFac= 1.00D+00 NAtFMM=   60 NAOKFM=F Big=F
 Integral buffers will be    131072 words long.
 Raffenetti 2 integral format.
 Two-electron integral symmetry is turned off.
 One-electron integrals computed using PRISM.
   1 Symmetry operations used in ECPInt.
 ECPInt:  NShTT=   13366 NPrTT=   41614 LenC2=   12641 LenP2D=   29759.
 LDataN:  DoStor=T MaxTD1= 6 Len=  172
 NBasis=   407 RedAO= T EigKep=  8.47D-06  NBF=   407
 NBsUse=   407 1.00D-06 EigRej= -1.00D+00 NBFU=   407
 The nuclear repulsion energy is now       667.6393361834 hartrees.
 Initial guess from the checkpoint file:  "checkpoint.chk"
 B after Tr=     0.017651   -0.004289    0.005228
         Rot=    0.999941   -0.006317   -0.000127    0.008829 Ang=  -1.24 deg.
 ExpMin= 9.52D-02 ExpMax= 6.07D+04 ExpMxC= 2.07D+03 IAcc=2 IRadAn=         4 AccDes= 0.00D+00
 Harris functional with IExCor=  402 and IRadAn=       4 diagonalized for initial guess.
 HarFok:  IExCor=  402 AccDes= 0.00D+00 IRadAn=         4 IDoV= 1 UseB2=F ITyADJ=14
 ICtDFT=  3500011 ScaDFX=  1.000000  1.000000  1.000000  1.000000
 FoFCou: FMM=F IPFlag=           0 FMFlag=      100000 FMFlg1=           0
         NFxFlg=           0 DoJE=T BraDBF=F KetDBF=T FulRan=T
         wScrn=  0.000000 ICntrl=       500 IOpCl=  0 I1Cent=   200000004 NGrid=           0
         NMat0=    1 NMatS0=      1 NMatT0=    0 NMatD0=    1 NMtDS0=    0 NMtDT0=    0
 Symmetry not used in FoFCou.
 Requested convergence on RMS density matrix=1.00D-08 within 128 cycles.
 Requested convergence on MAX density matrix=1.00D-06.
 Requested convergence on             energy=1.00D-06.
 No special actions if energy rises.
 Integral accuracy reduced to 1.0D-05 until final iterations.
 Initial convergence to 1.0D-05 achieved.  Increase integral accuracy.
 SCF Done:  E(RB3LYP) =  -822.502432465     A.U. after   12 cycles
            NFock= 12  Conv=0.97D-08     -V/T= 2.0035
   1 Symmetry operations used in ECPInt.
 ECPInt:  NShTT=   13366 NPrTT=   41614 LenC2=   12641 LenP2D=   29759.
 LDataN:  DoStor=T MaxTD1= 7 Len=  274
 Calling FoFJK, ICntrl=      2127 FMM=F ISym2X=0 I1Cent= 0 IOpClX= 0 NMat=1 NMatS=1 NMatT=0.
 -------------------------------------------------------------------
 Center     Atomic                   Forces (Hartrees/Bohr)
 Number     Number              X              Y              Z
 -------------------------------------------------------------------
      1        6           0.000689783    0.002472938   -0.000148783
      2        6          -0.000567897   -0.000630326    0.000130136
      3       16           0.000087035   -0.001924942   -0.000059115
      4        6          -0.000162281   -0.000001118    0.000033298
      5        8          -0.000136525    0.000089056    0.000146839
      6        1           0.000024186   -0.000004760   -0.000019261
      7        6           0.000061865    0.000004475   -0.000014793
      8        6           0.000064256    0.000000971   -0.000022132
      9        1           0.000034341   -0.000001882    0.000003020
     10        1           0.000016438   -0.000001974    0.000030054
     11        6          -0.000047503    0.000005737    0.000016243
     12        1          -0.000049045   -0.000003321   -0.000040770
     13        1          -0.000065244   -0.000004745    0.000044647
     14        6           0.000088157   -0.000188948    0.000043809
     15        6          -0.000190467    0.000006780   -0.000268239
     16        1           0.000011426   -0.000010183    0.000013293
     17        1          -0.000014998    0.000002424    0.000022293
     18        6           0.000131907    0.000186830    0.000039160
     19        1           0.000007114    0.000022650    0.000027057
     20        1           0.000024449   -0.000001959   -0.000013227
     21        1          -0.000006998   -0.000017703    0.000036470
 -------------------------------------------------------------------
 Cartesian Forces:  Max     0.002472938 RMS     0.000425003
 -----------------------------------------------------------------------------------------------
                       Internal Coordinate Forces (Hartree/Bohr or radian)
  Cent   Atom   N1       Length/X         N2         Alpha/Y        N3         Beta/Z          J
 -----------------------------------------------------------------------------------------------
      1  C 
      2  C        1   0.000187(     1)
      3  S        1  -0.000088(     2)      2  -0.000745(    21)
      4  C        1   0.000111(     3)      2   0.000127(    22)      3  -0.000018(    40)     0
      5  O        3  -0.000001(     4)      1  -0.000577(    23)      2  -0.000249(    41)     0
      6  H        2   0.000012(     5)      1  -0.000058(    24)      3  -0.000017(    42)     0
      7  C        2   0.000068(     6)      1   0.000460(    25)      6  -0.000009(    43)     0
      8  C        4  -0.000045(     7)      1   0.000144(    26)      2  -0.000001(    44)     0
      9  H        4  -0.000003(     8)      1  -0.000070(    27)      8   0.000004(    45)     0
     10  H        7   0.000030(     9)      2  -0.000033(    28)      1  -0.000009(    46)     0
     11  C        7   0.000068(    10)      2   0.000298(    29)     10  -0.000006(    47)     0
     12  H        8   0.000063(    11)      4  -0.000021(    30)      1   0.000004(    48)     0
     13  H       11   0.000079(    12)      7  -0.000012(    31)      2  -0.000006(    49)     0
     14  C        1   0.000031(    13)      2   0.000489(    32)      3   0.000665(    50)     0
     15  C       14   0.000241(    14)      1   0.000464(    33)      2   0.000344(    51)     0
     16  H       14   0.000017(    15)      1  -0.000015(    34)     15  -0.000012(    52)     0
     17  H       14   0.000027(    16)      1   0.000006(    35)     15   0.000004(    53)     0
     18  C       15  -0.000146(    17)     14   0.000139(    36)      1   0.000312(    54)     0
     19  H       15  -0.000013(    18)     14  -0.000027(    37)     18  -0.000055(    55)     0
     20  H       18   0.000007(    19)     15  -0.000055(    38)     14  -0.000027(    56)     0
     21  H       18   0.000028(    20)     15  -0.000047(    39)     20  -0.000035(    57)     0
 -----------------------------------------------------------------------------------------------
 Internal  Forces:  Max     0.000744867 RMS     0.000213665

 GradGradGradGradGradGradGradGradGradGradGradGradGradGradGradGradGradGrad
 Berny optimization.
 Search for a saddle point.
 Step number   2 out of a maximum of   67
 All quantities printed in internal units (Hartrees-Bohrs-Radians)
 Swapping is turned off.
 Update second derivatives using D2CorN and points    1    2
 ITU=  0  0
     Eigenvalues ---   -0.13464   0.00772   0.01248   0.02799   0.03160
     Eigenvalues ---    0.03408   0.03610   0.03784   0.04227   0.05764
     Eigenvalues ---    0.06197   0.06727   0.08618   0.10696   0.11480
     Eigenvalues ---    0.11887   0.13590   0.15900   0.16097   0.16845
     Eigenvalues ---    0.18118   0.19199   0.20848   0.22303   0.22767
     Eigenvalues ---    0.22965   0.23245   0.23609   0.28919   0.30122
     Eigenvalues ---    0.33574   0.34273   0.34720   0.35138   0.35232
     Eigenvalues ---    0.35371   0.35672   0.36016   0.36195   0.36589
     Eigenvalues ---    0.36738   0.38236   0.39408   0.41750   0.42449
     Eigenvalues ---    0.44891   0.47020   0.48650   0.49685   0.52447
     Eigenvalues ---    0.55550   0.57597   1.39957   2.39046   2.68550
     Eigenvalues ---    3.42823  23.96579
 Eigenvectors required to have negative eigenvalues:
                          A15       D15       D5        D17       D18
   1                    0.46685   0.34480  -0.33109  -0.29654   0.25890
                          D14       R5        R15       A17       D21
   1                    0.25847   0.25276   0.23201   0.22958  -0.21759
 RFO step:  Lambda0=4.364460683D-06 Lambda=-8.63071672D-06.
 Linear search not attempted -- option 19 set.
 Variable       Old X    -DE/DX   Delta X   Delta X   Delta X     New X
                                 (Linear)    (Quad)   (Total)
    R2        2.63520   0.00019   0.00000   0.00031   0.00031   2.63550
    R3        3.36781  -0.00009   0.00000   0.00006   0.00006   3.36787
    R4        2.64105   0.00011   0.00000   0.00022   0.00022   2.64127
    R5        2.88259  -0.00000   0.00000  -0.00112  -0.00112   2.88147
    R6        2.04479   0.00001   0.00000   0.00005   0.00005   2.04483
    R7        2.62615   0.00007   0.00000  -0.00011  -0.00011   2.62605
    R8        2.62219  -0.00004   0.00000  -0.00000  -0.00000   2.62219
    R9        2.04899  -0.00000   0.00000   0.00001   0.00001   2.04900
   R10        2.04792   0.00003   0.00000   0.00009   0.00009   2.04801
   R11        2.63019   0.00007   0.00000   0.00020   0.00020   2.63039
   R12        2.04878   0.00006   0.00000   0.00018   0.00018   2.04896
   R13        2.04814   0.00008   0.00000   0.00021   0.00021   2.04835
   R14        7.43860   0.00003   0.00000   0.02104   0.02104   7.45964
   R15        2.61122   0.00024   0.00000  -0.00062  -0.00062   2.61060
   R16        2.04151   0.00002   0.00000   0.00005   0.00005   2.04156
   R17        2.04191   0.00003   0.00000   0.00001   0.00001   2.04192
   R18        2.60111  -0.00015   0.00000   0.00050   0.00050   2.60161
   R19        2.04843  -0.00001   0.00000  -0.00003  -0.00003   2.04840
   R20        2.04474   0.00001   0.00000  -0.00000  -0.00000   2.04473
   R21        2.04570   0.00003   0.00000   0.00010   0.00010   2.04580
    A3        2.11328  -0.00074   0.00000  -0.00008  -0.00008   2.11320
    A4        2.09263   0.00013   0.00000  -0.00045  -0.00045   2.09219
    A5        1.84903  -0.00058   0.00000  -0.00019  -0.00019   1.84884
    A6        2.07450  -0.00006   0.00000  -0.00042  -0.00042   2.07408
    A7        2.09002   0.00046   0.00000   0.00025   0.00025   2.09027
    A8        2.09341   0.00014   0.00000   0.00024   0.00024   2.09365
    A9        2.09117  -0.00007   0.00000  -0.00037  -0.00037   2.09080
   A10        2.08327  -0.00003   0.00000  -0.00018  -0.00018   2.08308
   A11        2.10367   0.00030   0.00000   0.00010   0.00010   2.10377
   A12        2.08588  -0.00002   0.00000  -0.00016  -0.00016   2.08572
   A13        2.09811  -0.00001   0.00000   0.00006   0.00006   2.09818
   A14        1.44547   0.00049   0.00000  -0.00104  -0.00104   1.44443
   A15        1.46356   0.00046   0.00000  -0.00397  -0.00397   1.45958
   A16        2.35525  -0.00002   0.00000  -0.00113  -0.00113   2.35412
   A17        1.12326   0.00001   0.00000   0.00297   0.00297   1.12623
   A18        2.08585   0.00014   0.00000   0.00032   0.00032   2.08617
   A19        2.07171  -0.00003   0.00000   0.00009   0.00009   2.07180
   A20        2.11663  -0.00005   0.00000  -0.00017  -0.00017   2.11646
   A21        2.10595  -0.00005   0.00000  -0.00040  -0.00040   2.10555
    D4        3.12355  -0.00002   0.00000   0.00137   0.00137   3.12492
    D5        0.01646  -0.00025   0.00000   0.01175   0.01175   0.02821
    D6       -0.00921  -0.00002   0.00000  -0.00154  -0.00154  -0.01074
    D7       -3.11900  -0.00001   0.00000   0.00063   0.00063  -3.11837
    D8        0.00188  -0.00000   0.00000  -0.00024  -0.00024   0.00165
    D9        3.14563   0.00000   0.00000   0.00044   0.00044   3.14607
   D10        3.13691  -0.00001   0.00000  -0.00024  -0.00024   3.13667
   D11       -3.13402  -0.00001   0.00000  -0.00020  -0.00020  -3.13422
   D12       -3.13775   0.00000   0.00000   0.00027   0.00027  -3.13749
   D13        3.13608  -0.00001   0.00000  -0.00010  -0.00010   3.13598
   D14       -0.52097   0.00067   0.00000   0.00795   0.00795  -0.51303
   D15       -2.71202   0.00034   0.00000   0.00644   0.00644  -2.70558
   D16       -2.25354  -0.00001   0.00000   0.00513   0.00513  -2.24841
   D17        2.23801   0.00000   0.00000   0.00177   0.00177   2.23978
   D18        0.49776   0.00031   0.00000   0.00305   0.00305   0.50082
   D19       -2.82257  -0.00006   0.00000  -0.00192  -0.00192  -2.82449
   D20       -2.96087  -0.00003   0.00000  -0.00258  -0.00258  -2.96346
   D21       -2.87470  -0.00003   0.00000   0.00144   0.00144  -2.87326
         Item               Value     Threshold  Converged?
 Maximum Force            0.000745     0.000450     NO 
 RMS     Force            0.000214     0.000300     YES
 Maximum Displacement     0.021042     0.001800     NO 
 RMS     Displacement     0.003680     0.001200     NO 
 Predicted change in Energy=-2.133054D-06
 GradGradGradGradGradGradGradGradGradGradGradGradGradGradGradGradGradGrad

 ---------------------------------------------------------------------------------------------------
                            Z-MATRIX (ANGSTROMS AND DEGREES)
   CD    Cent   Atom    N1       Length/X        N2       Alpha/Y        N3        Beta/Z          J
 ---------------------------------------------------------------------------------------------------
      1      1  C 
      2      2  C        1   1.394649(     1)
      3      3  S        1   1.782199(     2)      2  121.078(    21)
      4      4  C        1   1.397698(     3)      2  119.874(    22)      3  179.045(    40)      0
      5      5  O        3   1.524809(     4)      1  105.931(    23)      2    1.616(    41)      0
      6      6  H        2   1.082078(     5)      1  118.836(    24)      3   -0.616(    42)      0
      7      7  C        2   1.389644(     6)      1  119.764(    25)      6 -178.670(    43)      0
      8      8  C        4   1.387604(     7)      1  119.957(    26)      2    0.094(    44)      0
      9      9  H        4   1.084283(     8)      1  119.794(    27)      8  180.257(    45)      0
     10     10  H        7   1.083758(     9)      2  119.352(    28)      1  179.718(    46)      0
     11     11  C        7   1.391944(    10)      2  120.537(    29)     10 -179.578(    47)      0
     12     12  H        8   1.084262(    11)      4  119.503(    30)      1 -179.765(    48)      0
     13     13  H       11   1.083939(    12)      7  120.217(    31)      2  179.679(    49)      0
     14     14  C        1   3.947472(    13)      2   82.760(    32)      3  -29.394(    50)      0
     15     15  C       14   1.381469(    14)      1   83.628(    33)      2 -155.018(    51)      0
     16     16  H       14   1.080348(    15)      1  134.881(    34)     15 -128.824(    52)      0
     17     17  H       14   1.080537(    16)      1   64.528(    35)     15  128.330(    53)      0
     18     18  C       15   1.376713(    17)     14  119.529(    36)      1   28.695(    54)      0
     19     19  H       15   1.083964(    18)     14  118.706(    37)     18 -161.831(    55)      0
     20     20  H       18   1.082026(    19)     15  121.264(    38)     14 -169.793(    56)      0
     21     21  H       18   1.082592(    20)     15  120.639(    39)     20 -164.626(    57)      0
 ---------------------------------------------------------------------------------------------------
                         Z-Matrix orientation:                         
 ---------------------------------------------------------------------
 Center     Atomic      Atomic             Coordinates (Angstroms)
 Number     Number       Type             X           Y           Z
 ---------------------------------------------------------------------
      1          6           0        0.000000    0.000000    0.000000
      2          6           0        0.000000    0.000000    1.394649
      3         16           0        1.526399    0.000000   -0.919968
      4          6           0       -1.211813   -0.020208   -0.696176
      5          8           0        2.641423   -0.041352    0.119288
      6          1           0        0.947851   -0.010185    1.916539
      7          6           0       -1.206229   -0.015047    2.084501
      8          6           0       -2.411328   -0.038232    0.001167
      9          1           0       -1.210219   -0.025943   -1.780442
     10          1           0       -1.198386   -0.019596    3.168221
     11          6           0       -2.415192   -0.033064    1.394869
     12          1           0       -3.347010   -0.057724   -0.546321
     13          1           0       -3.352963   -0.050000    1.938215
     14          6           0        3.411856    1.922044    0.497509
     15          6           0        3.131397    2.429557   -0.756377
     16          1           0        4.415454    1.634318    0.775279
     17          1           0        2.699458    2.023592    1.303571
     18          6           0        1.821061    2.560112   -1.158015
     19          1           0        3.917148    2.436194   -1.503055
     20          1           0        1.568912    2.797234   -2.183186
     21          1           0        1.029269    2.674774   -0.428685
 ---------------------------------------------------------------------
                    Distance matrix (angstroms):
                    1          2          3          4          5
     1  C    0.000000
     2  C    1.394649   0.000000
     3  S    1.782199   2.772606   0.000000
     4  C    1.397698   2.416702   2.747417   0.000000
     5  O    2.644438   2.933491   1.524809   3.938637   0.000000
     6  H    2.138141   1.082078   2.894925   3.389768   2.469670
     7  C    2.408393   1.389644   4.061319   2.780687   4.320553
     8  C    2.411631   2.785274   4.044211   1.387604   5.054132
     9  H    2.152969   3.398015   2.868826   1.084283   4.294689
    10  H    3.387349   2.140577   4.913056   3.864420   4.903121
    11  C    2.789248   2.415419   4.571182   2.412624   5.215030
    12  H    3.391795   3.869518   4.888053   2.140778   6.025333
    13  H    3.873181   3.397105   5.655075   3.394911   6.264282
    14  C    3.947472   4.017447   3.042769   5.155148   2.142788
    15  C    4.034910   4.509468   2.916424   4.986827   2.666881
    16  H    4.771613   4.748773   3.727130   6.047212   2.526931
    17  H    3.616807   3.374951   3.227246   4.845013   2.381153
    18  C    3.348348   4.048028   2.587985   4.008699   3.011995
    19  H    4.851625   5.447548   3.462761   5.743798   3.224548
    20  H    3.879730   4.804883   3.069535   4.228665   3.809099
    21  H    2.897858   3.396815   2.764582   3.515242   3.205722
                    6          7          8          9         10
     6  H    0.000000
     7  C    2.160624   0.000000
     8  C    3.866977   2.406881   0.000000
     9  H    4.280792   3.864960   2.148708   0.000000
    10  H    2.484578   1.083758   3.391431   4.948681   0.000000
    11  C    3.403340   1.391944   1.393716   3.396264   2.150716
    12  H    4.951138   3.392048   1.084262   2.467781   4.291370
    13  H    4.301052   2.151996   2.153826   4.291892   2.481137
    14  C    3.437801   5.253340   6.164293   5.508838   5.670714
    15  C    4.226664   5.732510   6.114380   5.091936   6.336232
    16  H    4.003890   6.003148   7.071182   6.398154   6.322721
    17  H    2.753199   4.474404   5.662817   5.384914   4.779615
    18  C    4.101439   5.129311   5.099824   4.032834   5.872671
    19  H    5.147341   6.717748   6.959531   5.694643   7.349858
    20  H    5.007500   5.815796   5.352903   3.981972   6.650566
    21  H    3.565909   4.306819   4.402599   3.759843   5.015955
                   11         12         13         14         15
    11  C    0.000000
    12  H    2.153395   0.000000
    13  H    1.083939   2.484555   0.000000
    14  C    6.211457   7.119785   7.192174   0.000000
    15  C    6.438712   6.942654   7.446875   1.381469   0.000000
    16  H    7.058455   8.053911   8.033533   1.080348   2.151089
    17  H    5.513421   6.656857   6.429179   1.080537   2.143540
    18  C    5.584587   5.825478   6.570376   2.382965   1.376713
    19  H    7.388758   7.739701   8.418908   2.126482   1.083964
    20  H    6.056909   5.915776   7.022645   3.368757   2.147633
    21  H    4.745740   5.160639   5.677196   2.664801   2.141601
                   16         17         18         19         20
    16  H    0.000000
    17  H    1.837191   0.000000
    18  C    3.365353   2.668116   0.000000
    19  H    2.466196   3.087096   2.127908   0.000000
    20  H    4.267048   3.746215   1.082026   2.471263   0.000000
    21  H    3.741435   2.492846   1.082592   3.090476   1.839697
                   21
    21  H    0.000000
 Symmetry turned off by external request.
 Stoichiometry    C9H10OS
 Framework group  C1[X(C9H10OS)]
 Deg. of freedom    57
 Full point group                 C1      NOp   1
 Rotational constants (GHZ):           2.0476108           0.5810197           0.5520217
 Standard basis: def2TZVP (5D, 7F)
 The following finite field(s) will be applied:
 An electric field of             -0.0073  0.0002  0.0019
   407 basis functions,   659 primitive gaussians,   462 cartesian basis functions
    44 alpha electrons       44 beta electrons
       nuclear repulsion energy       668.1965919705 Hartrees.
 NAtoms=   21 NActive=   21 NUniq=   21 SFac= 1.00D+00 NAtFMM=   60 NAOKFM=F Big=F
 Integral buffers will be    131072 words long.
 Raffenetti 2 integral format.
 Two-electron integral symmetry is turned off.
 One-electron integrals computed using PRISM.
   1 Symmetry operations used in ECPInt.
 ECPInt:  NShTT=   13366 NPrTT=   41614 LenC2=   12636 LenP2D=   29751.
 LDataN:  DoStor=T MaxTD1= 6 Len=  172
 NBasis=   407 RedAO= T EigKep=  8.49D-06  NBF=   407
 NBsUse=   407 1.00D-06 EigRej= -1.00D+00 NBFU=   407
 The nuclear repulsion energy is now       667.4491486830 hartrees.
 Initial guess from the checkpoint file:  "checkpoint.chk"
 B after Tr=     0.004395   -0.001125    0.001226
         Rot=    0.999994   -0.002154   -0.000117    0.002683 Ang=  -0.39 deg.
 ExpMin= 9.52D-02 ExpMax= 6.07D+04 ExpMxC= 2.07D+03 IAcc=2 IRadAn=         4 AccDes= 0.00D+00
 Harris functional with IExCor=  402 and IRadAn=       4 diagonalized for initial guess.
 HarFok:  IExCor=  402 AccDes= 0.00D+00 IRadAn=         4 IDoV= 1 UseB2=F ITyADJ=14
 ICtDFT=  3500011 ScaDFX=  1.000000  1.000000  1.000000  1.000000
 FoFCou: FMM=F IPFlag=           0 FMFlag=      100000 FMFlg1=           0
         NFxFlg=           0 DoJE=T BraDBF=F KetDBF=T FulRan=T
         wScrn=  0.000000 ICntrl=       500 IOpCl=  0 I1Cent=   200000004 NGrid=           0
         NMat0=    1 NMatS0=      1 NMatT0=    0 NMatD0=    1 NMtDS0=    0 NMtDT0=    0
 Symmetry not used in FoFCou.
 Requested convergence on RMS density matrix=1.00D-08 within 128 cycles.
 Requested convergence on MAX density matrix=1.00D-06.
 Requested convergence on             energy=1.00D-06.
 No special actions if energy rises.
 Integral accuracy reduced to 1.0D-05 until final iterations.
 Initial convergence to 1.0D-05 achieved.  Increase integral accuracy.
 SCF Done:  E(RB3LYP) =  -822.502434850     A.U. after   10 cycles
            NFock= 10  Conv=0.73D-08     -V/T= 2.0035
   1 Symmetry operations used in ECPInt.
 ECPInt:  NShTT=   13366 NPrTT=   41614 LenC2=   12636 LenP2D=   29751.
 LDataN:  DoStor=T MaxTD1= 7 Len=  274
 Calling FoFJK, ICntrl=      2127 FMM=F ISym2X=0 I1Cent= 0 IOpClX= 0 NMat=1 NMatS=1 NMatT=0.
 -------------------------------------------------------------------
 Center     Atomic                   Forces (Hartrees/Bohr)
 Number     Number              X              Y              Z
 -------------------------------------------------------------------
      1        6           0.000470023    0.002724557    0.000001622
      2        6          -0.000470856   -0.000715297    0.000000422
      3       16           0.000011766   -0.001966928   -0.000026684
      4        6           0.000003984    0.000001160   -0.000000068
      5        8           0.000001334   -0.000022350    0.000052009
      6        1          -0.000001534   -0.000001491    0.000002052
      7        6           0.000005750    0.000000184    0.000003449
      8        6          -0.000004346   -0.000001117    0.000005151
      9        1           0.000001356    0.000000373    0.000001189
     10        1          -0.000000306    0.000000274    0.000000280
     11        6           0.000000051    0.000000170   -0.000006623
     12        1          -0.000000176   -0.000000161    0.000000288
     13        1          -0.000000040    0.000000148    0.000000138
     14        6           0.000018980   -0.000023534   -0.000029273
     15        6          -0.000019772    0.000007109   -0.000003199
     16        1           0.000000166   -0.000000750    0.000009967
     17        1          -0.000002711   -0.000008838    0.000003263
     18        6          -0.000016764    0.000004751   -0.000020854
     19        1           0.000001191    0.000000501    0.000001980
     20        1           0.000001204    0.000007918    0.000001954
     21        1           0.000000699   -0.000006679    0.000002937
 -------------------------------------------------------------------
 Cartesian Forces:  Max     0.002724557 RMS     0.000441027
 -----------------------------------------------------------------------------------------------
                       Internal Coordinate Forces (Hartree/Bohr or radian)
  Cent   Atom   N1       Length/X         N2         Alpha/Y        N3         Beta/Z          J
 -----------------------------------------------------------------------------------------------
      1  C 
      2  C        1  -0.000000(     1)
      3  S        1  -0.000002(     2)      2  -0.000203(    21)
      4  C        1  -0.000004(     3)      2  -0.000018(    22)      3  -0.000002(    40)     0
      5  O        3   0.000037(     4)      1  -0.000107(    23)      2   0.000058(    41)     0
      6  H        2  -0.000000(     5)      1   0.000005(    24)      3  -0.000005(    42)     0
      7  C        2  -0.000006(     6)      1  -0.000014(    25)      6  -0.000003(    43)     0
      8  C        4   0.000007(     7)      1  -0.000007(    26)      2  -0.000003(    44)     0
      9  H        4  -0.000001(     8)      1  -0.000003(    27)      8  -0.000001(    45)     0
     10  H        7   0.000000(     9)      2   0.000001(    28)      1  -0.000000(    46)     0
     11  C        7   0.000003(    10)      2  -0.000015(    29)     10  -0.000001(    47)     0
     12  H        8   0.000000(    11)      4   0.000001(    30)      1   0.000000(    48)     0
     13  H       11   0.000000(    12)      7  -0.000000(    31)      2   0.000000(    49)     0
     14  C        1  -0.000028(    13)      2   0.000217(    32)      3   0.000033(    50)     0
     15  C       14   0.000027(    14)      1  -0.000019(    33)      2   0.000060(    51)     0
     16  H       14   0.000003(    15)      1  -0.000003(    34)     15  -0.000014(    52)     0
     17  H       14   0.000003(    16)      1  -0.000011(    35)     15   0.000014(    53)     0
     18  C       15   0.000019(    17)     14   0.000025(    36)      1  -0.000012(    54)     0
     19  H       15  -0.000000(    18)     14  -0.000004(    37)     18  -0.000003(    55)     0
     20  H       18  -0.000000(    19)     15  -0.000002(    38)     14  -0.000026(    56)     0
     21  H       18   0.000001(    20)     15  -0.000006(    39)     20  -0.000012(    57)     0
 -----------------------------------------------------------------------------------------------
 Internal  Forces:  Max     0.000217059 RMS     0.000044864

 GradGradGradGradGradGradGradGradGradGradGradGradGradGradGradGradGradGrad
 Berny optimization.
 Search for a saddle point.
 Step number   3 out of a maximum of   67
 All quantities printed in internal units (Hartrees-Bohrs-Radians)
 Swapping is turned off.
 Update second derivatives using D2CorN and points    1    2    3
 ITU=  0  0  0
     Eigenvalues ---   -0.13443   0.00700   0.01261   0.02799   0.03160
     Eigenvalues ---    0.03407   0.03610   0.03786   0.04229   0.05765
     Eigenvalues ---    0.06199   0.06727   0.08618   0.10696   0.11480
     Eigenvalues ---    0.11887   0.13590   0.15900   0.16097   0.16846
     Eigenvalues ---    0.18118   0.19199   0.20848   0.22304   0.22767
     Eigenvalues ---    0.22965   0.23244   0.23608   0.28919   0.30121
     Eigenvalues ---    0.33573   0.34273   0.34720   0.35138   0.35232
     Eigenvalues ---    0.35371   0.35672   0.36016   0.36195   0.36589
     Eigenvalues ---    0.36738   0.38236   0.39409   0.41751   0.42449
     Eigenvalues ---    0.44892   0.47020   0.48649   0.49685   0.52446
     Eigenvalues ---    0.55549   0.57595   1.39939   2.39041   2.68550
     Eigenvalues ---    3.42823  23.96580
 Eigenvectors required to have negative eigenvalues:
                          A15       D15       D5        D17       D18
   1                    0.46697   0.34498  -0.33021  -0.29681   0.25986
                          D14       R5        R15       A17       D21
   1                    0.25912   0.25259   0.23199   0.23002  -0.21776
 RFO step:  Lambda0=2.492252155D-09 Lambda=-1.69689968D-07.
 Linear search not attempted -- option 19 set.
 Variable       Old X    -DE/DX   Delta X   Delta X   Delta X     New X
                                 (Linear)    (Quad)   (Total)
    R2        2.63550  -0.00000   0.00000   0.00001   0.00001   2.63551
    R3        3.36787  -0.00000   0.00000  -0.00000  -0.00000   3.36787
    R4        2.64127  -0.00000   0.00000  -0.00000  -0.00000   2.64126
    R5        2.88147   0.00004   0.00000   0.00004   0.00004   2.88151
    R6        2.04483  -0.00000   0.00000  -0.00000  -0.00000   2.04483
    R7        2.62605  -0.00001   0.00000  -0.00001  -0.00001   2.62604
    R8        2.62219   0.00001   0.00000   0.00001   0.00001   2.62220
    R9        2.04900  -0.00000   0.00000  -0.00000  -0.00000   2.04900
   R10        2.04801   0.00000   0.00000  -0.00000  -0.00000   2.04801
   R11        2.63039   0.00000   0.00000   0.00001   0.00001   2.63040
   R12        2.04896   0.00000   0.00000  -0.00000  -0.00000   2.04896
   R13        2.04835   0.00000   0.00000   0.00000   0.00000   2.04835
   R14        7.45964  -0.00003   0.00000   0.00127   0.00127   7.46091
   R15        2.61060   0.00003   0.00000   0.00001   0.00001   2.61061
   R16        2.04156   0.00000   0.00000   0.00001   0.00001   2.04157
   R17        2.04192   0.00000   0.00000  -0.00000  -0.00000   2.04192
   R18        2.60161   0.00002   0.00000   0.00004   0.00004   2.60165
   R19        2.04840  -0.00000   0.00000   0.00000   0.00000   2.04840
   R20        2.04473  -0.00000   0.00000  -0.00000  -0.00000   2.04473
   R21        2.04580   0.00000   0.00000   0.00000   0.00000   2.04580
    A3        2.11320  -0.00020   0.00000   0.00012   0.00012   2.11332
    A4        2.09219  -0.00002   0.00000  -0.00003  -0.00003   2.09216
    A5        1.84884  -0.00011   0.00000  -0.00002  -0.00002   1.84882
    A6        2.07408   0.00001   0.00000   0.00002   0.00002   2.07410
    A7        2.09027  -0.00001   0.00000   0.00002   0.00002   2.09029
    A8        2.09365  -0.00001   0.00000   0.00002   0.00002   2.09367
    A9        2.09080  -0.00000   0.00000  -0.00002  -0.00002   2.09078
   A10        2.08308   0.00000   0.00000   0.00000   0.00000   2.08308
   A11        2.10377  -0.00001   0.00000  -0.00000  -0.00000   2.10376
   A12        2.08572   0.00000   0.00000   0.00000   0.00000   2.08572
   A13        2.09818  -0.00000   0.00000  -0.00000  -0.00000   2.09817
   A14        1.44443   0.00022   0.00000  -0.00021  -0.00021   1.44422
   A15        1.45958  -0.00002   0.00000  -0.00047  -0.00047   1.45911
   A16        2.35412  -0.00000   0.00000   0.00024   0.00024   2.35436
   A17        1.12623  -0.00001   0.00000   0.00043   0.00043   1.12666
   A18        2.08617   0.00003   0.00000   0.00007   0.00007   2.08624
   A19        2.07180  -0.00000   0.00000  -0.00004  -0.00004   2.07177
   A20        2.11646  -0.00000   0.00000  -0.00001  -0.00001   2.11645
   A21        2.10555  -0.00001   0.00000  -0.00004  -0.00004   2.10550
    D4        3.12492  -0.00000   0.00000   0.00033   0.00033   3.12525
    D5        0.02821   0.00006   0.00000   0.00174   0.00174   0.02995
    D6       -0.01074  -0.00001   0.00000  -0.00038  -0.00038  -0.01112
    D7       -3.11837  -0.00000   0.00000   0.00012   0.00012  -3.11825
    D8        0.00165  -0.00000   0.00000  -0.00006  -0.00006   0.00159
    D9        3.14607  -0.00000   0.00000   0.00004   0.00004   3.14611
   D10        3.13667  -0.00000   0.00000  -0.00001  -0.00001   3.13666
   D11       -3.13422  -0.00000   0.00000  -0.00004  -0.00004  -3.13426
   D12       -3.13749   0.00000   0.00000   0.00004   0.00004  -3.13745
   D13        3.13598   0.00000   0.00000   0.00001   0.00001   3.13599
   D14       -0.51303   0.00003   0.00000   0.00123   0.00123  -0.51180
   D15       -2.70558   0.00006   0.00000   0.00192   0.00192  -2.70366
   D16       -2.24841  -0.00001   0.00000   0.00030   0.00030  -2.24811
   D17        2.23978   0.00001   0.00000   0.00013   0.00013   2.23991
   D18        0.50082  -0.00001   0.00000  -0.00014  -0.00014   0.50068
   D19       -2.82449  -0.00000   0.00000   0.00001   0.00001  -2.82448
   D20       -2.96346  -0.00003   0.00000  -0.00027  -0.00027  -2.96372
   D21       -2.87326  -0.00001   0.00000   0.00022   0.00022  -2.87303
         Item               Value     Threshold  Converged?
 Maximum Force            0.000217     0.000450     YES
 RMS     Force            0.000045     0.000300     YES
 Maximum Displacement     0.001916     0.001800     NO 
 RMS     Displacement     0.000437     0.001200     YES
 Predicted change in Energy=-8.359886D-08
 GradGradGradGradGradGradGradGradGradGradGradGradGradGradGradGradGradGrad

 ---------------------------------------------------------------------------------------------------
                            Z-MATRIX (ANGSTROMS AND DEGREES)
   CD    Cent   Atom    N1       Length/X        N2       Alpha/Y        N3        Beta/Z          J
 ---------------------------------------------------------------------------------------------------
      1      1  C 
      2      2  C        1   1.394652(     1)
      3      3  S        1   1.782198(     2)      2  121.085(    21)
      4      4  C        1   1.397697(     3)      2  119.872(    22)      3  179.063(    40)      0
      5      5  O        3   1.524829(     4)      1  105.930(    23)      2    1.716(    41)      0
      6      6  H        2   1.082078(     5)      1  118.837(    24)      3   -0.637(    42)      0
      7      7  C        2   1.389638(     6)      1  119.765(    25)      6 -178.663(    43)      0
      8      8  C        4   1.387610(     7)      1  119.958(    26)      2    0.091(    44)      0
      9      9  H        4   1.084282(     8)      1  119.793(    27)      8  180.259(    45)      0
     10     10  H        7   1.083758(     9)      2  119.352(    28)      1  179.717(    46)      0
     11     11  C        7   1.391949(    10)      2  120.537(    29)     10 -179.580(    47)      0
     12     12  H        8   1.084262(    11)      4  119.503(    30)      1 -179.762(    48)      0
     13     13  H       11   1.083940(    12)      7  120.216(    31)      2  179.679(    49)      0
     14     14  C        1   3.948144(    13)      2   82.748(    32)      3  -29.324(    50)      0
     15     15  C       14   1.381475(    14)      1   83.601(    33)      2 -154.908(    51)      0
     16     16  H       14   1.080353(    15)      1  134.895(    34)     15 -128.807(    52)      0
     17     17  H       14   1.080537(    16)      1   64.553(    35)     15  128.338(    53)      0
     18     18  C       15   1.376735(    17)     14  119.533(    36)      1   28.687(    54)      0
     19     19  H       15   1.083966(    18)     14  118.704(    37)     18 -161.831(    55)      0
     20     20  H       18   1.082026(    19)     15  121.264(    38)     14 -169.809(    56)      0
     21     21  H       18   1.082593(    20)     15  120.636(    39)     20 -164.613(    57)      0
 ---------------------------------------------------------------------------------------------------
                         Z-Matrix orientation:                         
 ---------------------------------------------------------------------
 Center     Atomic      Atomic             Coordinates (Angstroms)
 Number     Number       Type             X           Y           Z
 ---------------------------------------------------------------------
      1          6           0        0.000000    0.000000    0.000000
      2          6           0        0.000000    0.000000    1.394652
      3         16           0        1.526285    0.000000   -0.920153
      4          6           0       -1.211836   -0.019812   -0.696143
      5          8           0        2.641395   -0.043910    0.118936
      6          1           0        0.947835   -0.010542    1.916561
      7          6           0       -1.206214   -0.014738    2.084525
      8          6           0       -2.411353   -0.037514    0.001215
      9          1           0       -1.210252   -0.025536   -1.780409
     10          1           0       -1.198353   -0.019301    3.168245
     11          6           0       -2.415197   -0.032384    1.394909
     12          1           0       -3.347047   -0.056739   -0.546263
     13          1           0       -3.352962   -0.049075    1.938272
     14          6           0        3.414717    1.918108    0.498404
     15          6           0        3.133273    2.427764   -0.754398
     16          1           0        4.418368    1.629106    0.774675
     17          1           0        2.703375    2.019113    1.305466
     18          6           0        1.822609    2.559859   -1.154535
[...]
 0014138,0.00003763,-0.00008095,-0.00395518,-0.00007705,-0.00010436,-0.
 03376330,0.00141521,-0.00026072,0.00802737,0.00003732,0.00002593,-0.00
 129571,0.00000982,0.00045368,0.02455217,0.00324092,0.00010687,0.000242
 51,-0.00167507,0.00005975,-0.01283760,-0.00045528,0.00009656,-0.000634
 13,0.00020565,0.00001023,0.00073088,0.00006393,-0.00005516,0.00024135,
 0.00006410,-0.00002550,0.00088497,-0.00247676,0.00118509,-0.33120094,-
 0.00340586,-0.00002777,0.00074910,-0.00000663,-0.00000524,-0.00007005,
 0.00206436,-0.00135245,0.35356950,-0.01307195,-0.00016770,-0.03176962,
 -0.06038322,-0.00080936,0.02555230,-0.00312567,-0.00032785,0.00254950,
 0.02794554,0.00047463,0.02836967,0.00090001,0.00024196,0.00100655,-0.0
 0222388,-0.00014357,0.00325887,-0.27468313,-0.00331522,-0.11892017,-0.
 12492365,-0.00168004,0.03115078,-0.00440416,-0.00015220,0.00317367,0.0
 0453362,-0.00003003,0.00266059,0.70719854,-0.00022847,-0.00378383,-0.0
 0053089,-0.00089630,0.00379036,0.00012024,-0.00003341,-0.00076206,-0.0
 0006414,0.00057484,0.00200102,0.00047082,0.00013297,0.00007217,0.00008
 428,0.00006278,0.00729430,0.00016063,-0.00397044,-0.04949015,-0.001677
 76,-0.00157491,-0.04675528,-0.00038437,-0.00022813,0.00798437,0.000008
 99,0.00024501,0.00027121,0.00010412,0.01005826,0.10688378,-0.03284843,
 -0.00061980,-0.04934607,-0.02266058,-0.00084734,0.06116362,0.00242416,
 0.00099587,-0.00233902,0.07711218,0.00125444,-0.02932589,0.00087279,-0
 .00002177,0.00122880,0.00369191,0.00031017,-0.00102161,-0.05484616,-0.
 00023086,-0.17699742,-0.03240427,-0.00206137,-0.32182952,0.00202378,0.
 00015484,0.00104239,-0.02849158,-0.00051521,-0.01190196,-0.03403926,0.
 00030934,0.66626494,-0.00365721,-0.00026775,0.00413244,0.00013737,0.00
 001861,0.00092538,0.00056632,-0.00016587,-0.00113768,-0.02036340,-0.00
 038557,-0.01629289,-0.00085589,0.00005433,-0.00005840,-0.00004292,0.00
 001745,-0.00006499,0.00187998,-0.00009623,0.00011958,-0.25916135,-0.00
 462625,-0.11730963,0.00111865,0.00010348,0.00022552,-0.00003888,-0.000
 01306,0.00018544,0.00284124,0.00009500,0.00185880,0.27665223,-0.000074
 68,0.00819870,0.00008319,0.00003066,-0.00111305,-0.00001184,0.00001231
 ,0.00035799,-0.00000465,-0.00037437,0.00044046,-0.00019930,0.00006225,
 -0.00029942,-0.00001860,0.00000116,-0.00113776,-0.00002137,-0.00002238
 ,0.00801048,-0.00001725,-0.00475324,-0.03071666,-0.00260605,0.00007790
 ,-0.00371329,0.00005278,-0.00002088,0.00027771,-0.00000088,-0.00005083
 ,-0.00087716,-0.00007625,0.00510591,0.02351312,0.00344989,0.00003749,-
 0.00059997,0.00084640,0.00001983,-0.00064970,-0.00003541,-0.00001568,0
 .00053115,0.01438823,0.00024664,0.01109360,0.00038720,0.00000104,0.000
 03885,-0.00004624,0.00000097,0.00007367,0.00153578,-0.00000924,-0.0058
 1549,-0.11763645,-0.00251867,-0.12828551,-0.00055907,0.00001319,0.0009
 6575,-0.00143365,-0.00001710,-0.00068836,-0.02951322,-0.00063615,-0.01
 039003,0.12800523,0.00280408,0.13266833,0.00027727,0.00002731,-0.00101
 038,-0.00332237,-0.00014827,-0.00444765,-0.00002219,-0.00003895,-0.000
 14821,0.00184040,-0.00015599,-0.00001255,-0.00009573,0.00000704,0.0002
 6357,-0.00079923,-0.00004020,0.00090608,-0.01959394,-0.00037067,0.0173
 7255,0.00244343,0.00008694,-0.00190599,-0.00005823,-0.00000133,-0.0001
 5646,0.00105480,0.00006527,-0.00045826,-0.26046332,-0.00415489,0.11678
 980,0.00088391,0.00007606,0.00063701,0.27780499,0.00010333,-0.00175316
 ,-0.00006275,-0.00019827,0.00804584,-0.00002488,-0.00011461,-0.0003801
 3,-0.00003434,-0.00027722,0.00805163,-0.00004562,0.00002566,-0.0002688
 1,0.00010855,0.00002680,0.00036114,0.00004568,-0.00013110,-0.00140884,
 0.00033653,0.00028153,-0.00204244,-0.00026626,0.00002020,0.00029548,-0
 .00002257,0.00004585,-0.00323780,-0.00002984,-0.00434995,-0.02646204,0
 .00215326,0.00005544,-0.00299092,0.00004553,0.00455820,0.02178993,-0.0
 0097138,-0.00000582,-0.00084702,-0.00300074,-0.00000401,-0.00066143,-0
 .00017538,0.00006006,0.00007598,-0.00140984,-0.00008877,-0.00571894,0.
 00012522,-0.00002668,0.00011684,-0.00061105,-0.00001002,0.00035163,-0.
 01421044,-0.00028135,0.01142943,0.02974375,0.00057839,-0.01056536,0.00
 141033,0.00002731,-0.00063841,0.00067474,0.00000299,0.00091570,0.11686
 563,0.00199875,-0.12690246,-0.00061731,-0.00000572,0.00110684,-0.12783
 040,-0.00221332,0.13132884,0.00174647,-0.00277453,-0.00028790,-0.00022
 273,0.00051989,-0.00033146,-0.01644629,-0.00936932,-0.01469485,-0.0005
 7150,0.00031721,0.00017122,0.00113109,0.02227812,0.01068217,-0.0002985
 3,-0.00053196,0.00029253,-0.00039570,0.00022171,0.00010427,0.00041993,
 0.00031228,-0.00012219,0.00004079,-0.00011331,0.00004792,-0.00005250,-
 0.00002392,0.00005631,-0.00006222,-0.00006565,0.00046000,-0.00002016,-
 0.00004123,-0.00001114,0.00001156,-0.00003371,0.00003089,0.63372105,0.
 00652866,-0.00086890,0.00140363,-0.00141781,0.00048521,0.00054974,-0.0
 3622497,-0.01852794,-0.02723635,0.00025279,0.00020015,-0.00085466,0.04
 009354,0.02268187,0.02841299,-0.00072259,-0.00005927,0.00065393,0.0004
 3152,0.00028234,-0.00015330,0.00067951,-0.00032817,0.00079715,-0.00004
 497,0.00016806,0.00006069,-0.00001118,0.00000695,0.00005109,-0.0008687
 6,-0.00009876,0.00013517,0.00006587,0.00002047,-0.00007583,0.00000273,
 0.00004713,0.00001730,-0.15789514,0.14878591,-0.00467650,0.00371651,0.
 00205811,0.00076308,-0.00098701,-0.00085248,0.00783233,0.00750499,0.00
 171345,0.00151587,-0.00040262,0.00011817,-0.00852314,-0.00739401,-0.02
 031681,0.00010655,0.00073564,-0.00024385,-0.00026553,-0.00049163,-0.00
 007865,-0.00071541,0.00000363,0.00063279,-0.00005685,-0.00007170,-0.00
 001589,0.00008072,0.00004768,-0.00010825,0.00045839,0.00011171,-0.0006
 8295,0.00004540,0.00002442,0.00002197,0.00000173,-0.00000541,-0.000038
 08,-0.00347071,-0.11210885,0.67701666,0.00606471,-0.00240378,-0.001461
 10,-0.00079511,0.00048679,0.00131898,-0.02321677,-0.03218785,-0.009269
 83,-0.00112556,0.00050333,-0.00043720,0.01780200,0.02407211,0.01037060
 ,-0.00031034,-0.00007488,0.00026836,0.00050368,0.00032276,-0.00029573,
 0.00081592,-0.00009141,-0.00025742,-0.00004788,0.00003652,-0.00002073,
 -0.00001969,-0.00000302,0.00008400,-0.00079959,-0.00005615,0.00058909,
 -0.00002988,-0.00001906,-0.00006749,-0.00004484,0.00000688,0.00003207,
 -0.11927443,0.00368373,-0.02013683,0.69525586,-0.00112831,-0.00060749,
 0.00056602,-0.00001248,-0.00013623,-0.00013318,0.00006305,-0.00912162,
 0.00869571,-0.00003454,-0.00024314,0.00031405,-0.01924680,-0.02978028,
 -0.00576974,0.00008383,-0.00010675,-0.00015467,-0.00014034,0.00018007,
 0.00004268,-0.00002574,-0.00008716,-0.00014024,0.00005757,0.00010144,-
 0.00001473,-0.00001531,-0.00001242,0.00001779,0.00009818,0.00003413,0.
 00005360,-0.00004318,-0.00002048,0.00000288,-0.00002448,-0.00001185,0.
 00000989,0.03859078,-0.07666373,0.10025685,-0.05933154,0.19756349,0.00
 888970,-0.00315974,-0.00305028,-0.00148261,0.00110578,0.00200791,-0.03
 123231,-0.02633440,-0.01145621,-0.00260531,0.00059413,-0.00036530,0.02
 551495,0.03221874,0.01770282,-0.00027008,-0.00056918,0.00029734,0.0005
 8504,0.00057072,-0.00028462,0.00130757,-0.00002837,-0.00065758,0.00006
 555,0.00000494,0.00000158,-0.00008813,-0.00004210,0.00019602,-0.001337
 24,-0.00012067,0.00121516,-0.00011362,-0.00002452,-0.00009281,-0.00007
 151,-0.00002909,0.00007501,-0.05299013,0.07807046,-0.33545575,-0.03684
 851,-0.12995869,0.65618116,0.00017816,-0.00019708,0.00004071,0.0001104
 5,0.00000174,0.00002539,0.00012346,0.00007441,0.00016421,0.00000671,0.
 00002900,-0.00005172,-0.00075966,-0.00013214,-0.00012598,-0.00006252,0
 .00005014,-0.00003736,-0.00004329,0.00000014,-0.00000599,0.00001205,0.
 00002371,-0.00003165,-0.00000788,-0.00000875,-0.00000208,-0.00000021,0
 .00000368,-0.00000500,0.00005160,0.00000441,0.00001712,0.00000943,-0.0
 0000236,-0.00000117,0.00000090,-0.00000377,-0.00000174,-0.31125530,0.0
 7917959,-0.06746567,0.00080975,0.00086859,0.00171110,0.32084759,0.0006
 5962,-0.00084120,-0.00067467,0.00020304,0.00024698,0.00010522,-0.00170
 200,-0.00190077,-0.00047048,-0.00045467,0.00016068,0.00007388,-0.00642
 214,0.00154157,-0.00214078,-0.00002140,-0.00012366,-0.00001640,-0.0001
 8918,0.00006474,0.00001761,0.00015073,0.00012769,-0.00027541,0.0000085
 6,-0.00007112,-0.00000123,-0.00001440,0.00000341,0.00001498,0.00005675
 ,-0.00001709,0.00025436,-0.00001934,-0.00001455,-0.00000298,-0.0000043
 7,-0.00002496,0.00001084,0.07748341,-0.06031435,0.02398533,0.01324649,
 0.00400578,0.00068500,-0.08505890,0.05379196,0.00031027,-0.00020585,-0
 .00020180,0.00000698,0.00017653,-0.00000554,-0.00052106,-0.00023809,-0
 .00053105,-0.00017923,0.00001853,-0.00000885,-0.00141720,0.00021052,-0
 .00041201,0.00004559,-0.00016068,0.00006377,-0.00008620,0.00003961,0.0
 0004864,0.00009490,0.00003311,-0.00009555,0.00001244,-0.00002006,0.000
 01396,-0.00000325,-0.00000577,0.00000346,0.00001720,-0.00001126,0.0001
 0740,0.00000082,0.00000311,-0.00000032,0.00000806,-0.00001122,0.000004
 38,-0.06221991,0.02486944,-0.07360086,-0.02705314,0.00658511,-0.002523
 12,0.07171197,-0.02767449,0.07215648,-0.00015091,0.00034545,0.00002282
 ,-0.00016352,-0.00011502,0.00007673,0.00134704,0.00014152,0.00057084,-
 0.00000654,-0.00006292,0.00000002,-0.00041537,-0.00529627,-0.00467260,
 0.00000951,-0.00019735,0.00006466,0.00003506,-0.00004604,0.00005491,0.
 00000567,-0.00000692,0.00002196,0.00000779,-0.00000831,0.00000452,0.00
 000763,0.00001670,-0.00001398,-0.00003232,0.00000162,-0.00002587,0.000
 00372,-0.00000194,0.00000254,0.00001381,0.00000147,-0.00000289,-0.1842
 9581,0.02780246,0.14173028,0.00765821,-0.00153722,-0.00196640,-0.01185
 238,0.00191408,0.02089646,0.18679292,-0.00034703,0.00088024,-0.0001191
 1,-0.00064617,-0.00020178,-0.00019185,0.00243185,0.00067390,0.00179987
 ,-0.00007982,-0.00017934,0.00010143,-0.00206445,-0.01133463,-0.0082131
 8,-0.00022812,-0.00025124,0.00016066,0.00034074,-0.00011308,0.00009131
 ,0.00004344,-0.00001515,0.00006886,0.00002925,-0.00000889,0.00001811,-
 0.00001153,0.00001656,-0.00000469,-0.00015594,-0.00001532,-0.00007333,
 0.00000264,0.00001379,0.00000866,0.00003570,0.00001666,0.00000164,0.02
 696203,-0.03159402,-0.02051146,-0.00502127,0.00312077,0.01679294,0.004
 81493,0.00352092,-0.00516423,-0.02367949,0.03421786,-0.00008214,0.0002
 1044,-0.00004985,-0.00004559,0.00002212,-0.00011872,0.00022637,-0.0005
 7740,-0.00015696,-0.00011036,-0.00002110,-0.00003133,-0.00088509,-0.00
 200312,-0.00069451,0.00011610,0.00001185,0.00022040,-0.00000340,0.0000
 1598,0.00003137,0.00005631,-0.00001818,-0.00003821,0.00000408,-0.00001
 076,0.00000389,0.00001315,-0.00000796,-0.00000630,-0.00001839,0.000004
 28,0.00004800,0.00000585,0.00000849,-0.00000121,0.00000988,-0.00000301
 ,0.00000016,0.14067750,-0.01302305,-0.21241382,0.02235715,-0.00300935,
 -0.01650327,-0.00552024,0.00220159,0.00833233,-0.15409318,0.01429911,0
 .22246778,-0.00619312,-0.00151006,0.00270219,0.00108677,-0.00053538,-0
 .00153575,0.01233968,0.01877197,0.01319612,0.00099651,-0.00071686,0.00
 034464,-0.02385091,-0.02098147,-0.01923408,0.00020884,-0.00001339,-0.0
 0012036,-0.00086781,0.00014626,0.00024454,-0.00041969,-0.00000521,0.00
 017157,0.00000168,0.00011839,0.00004708,0.00005630,0.00000526,-0.00011
 613,0.00076648,0.00009736,-0.00027516,0.00009155,0.00000282,0.00004324
 ,0.00006905,-0.00002389,-0.00003760,-0.00843964,0.03944633,-0.04161368
 ,-0.36064154,0.03036693,-0.04020403,0.00113747,0.00105887,0.00021363,-
 0.00056140,-0.00486782,0.00061703,0.67588339,-0.00788030,0.00161306,0.
 00321735,0.00142384,-0.00004300,-0.00247130,0.02350241,0.01590553,0.00
 849211,0.00322751,-0.00023268,0.00009418,-0.01394072,-0.01717451,-0.00
 785608,0.00023146,0.00023711,-0.00028038,-0.00075892,-0.00026815,0.000
 49379,-0.00148445,0.00007431,0.00099916,0.00001368,-0.00006003,0.00005
 060,0.00004613,0.00000800,-0.00013906,0.00138692,0.00002192,-0.0013196
 5,0.00010167,0.00005226,0.00008734,0.00005250,-0.00003011,-0.00004991,
 0.01268458,0.01408206,-0.00589346,0.05728488,-0.05602056,0.03375848,0.
 00187136,0.00394653,0.00285387,-0.00192253,-0.00445924,-0.00104633,-0.
 11722814,0.11671363,-0.00067093,0.00301146,0.00123479,0.00058329,0.000
 09689,-0.00076940,0.00571998,-0.00829163,-0.00698896,0.00094185,-0.000
 06855,-0.00006166,-0.01156541,0.00241532,-0.00653963,-0.00010678,0.000
 31403,0.00000590,-0.00036873,-0.00031687,0.00023991,-0.00009860,-0.000
 39382,-0.00012745,-0.00002822,0.00020982,0.00002367,0.00002284,0.00002
 502,-0.00008733,0.00074585,0.00002060,-0.00020850,0.00008567,0.0000251
 5,0.00002155,0.00004277,0.00006554,-0.00002479,-0.03673697,0.01906213,
 -0.01968422,-0.07326294,0.01321051,-0.12336693,-0.00021545,0.00484465,
 -0.00420390,-0.00202328,-0.00199745,0.00145725,0.01563327,-0.07775217,
 0.65174468,-0.00017167,0.00009916,-0.00005352,0.00002272,-0.00003388,-
 0.00011727,-0.00036209,0.00016484,-0.00007898,0.00005381,-0.00003879,0
 .00003446,0.00046748,0.00010172,0.00045021,-0.00000696,-0.00000331,0.0
 0002148,0.00001910,-0.00002805,-0.00001913,0.00002307,-0.00000902,0.00
 001614,-0.00000684,0.00001044,0.00001052,0.00000242,0.00000044,-0.0000
 0133,-0.00000224,0.00000555,-0.00001120,0.00000155,0.00000394,0.000000
 13,0.00000197,0.00000524,0.00000132,0.00871576,0.00001220,-0.00677914,
 -0.20155819,0.00017786,0.13771245,0.00049497,-0.00107234,-0.00009657,0
 .00101503,0.00189000,-0.00206319,-0.02029487,0.00149051,0.02145911,0.2
 1398163,-0.00036020,0.00023141,0.00005057,0.00004167,-0.00012611,-0.00
 000647,0.00002031,0.00076276,0.00009490,0.00000641,-0.00004505,-0.0000
 2746,0.00041691,0.00013044,0.00005695,-0.00001264,0.00003150,0.0000369
 6,0.00005066,-0.00004279,-0.00003072,-0.00000854,-0.00001440,0.0000430
 2,-0.00001723,-0.00000334,0.00000052,0.00001433,0.00000111,-0.00001772
 ,-0.00002178,0.00002032,-0.00003759,0.00001811,0.00000046,0.00000240,0
 .00001430,0.00000784,-0.00000825,-0.00735965,0.00360545,0.00837880,0.0
 0496057,-0.04172225,0.00249079,-0.00113161,-0.00343630,-0.00123958,0.0
 0203318,0.00507016,0.00259897,0.00285549,0.00287220,-0.00363971,-0.002
 76331,0.02985896,-0.00008662,0.00005456,0.00004875,-0.00007795,0.00000
 981,-0.00007005,0.00048510,0.00003768,0.00001264,0.00002768,-0.0000246
 6,0.00002261,-0.00045054,-0.00016665,0.00039443,-0.00002022,-0.0000527
 6,0.00002517,0.00002871,-0.00001057,0.00001917,0.00001066,-0.00000934,
 0.00001400,0.00000029,0.00000521,0.00000552,-0.00000530,-0.00000189,0.
 00000036,0.00000311,0.00000192,-0.00001715,0.00000414,0.00000173,0.000
 00346,0.00000783,0.00000362,-0.00000062,0.02209259,-0.00078606,-0.0200
 7869,0.13898805,0.00605221,-0.18817495,-0.00048869,-0.00126016,0.00095
 807,-0.00102774,0.00382597,-0.00294519,-0.00904659,0.00078953,0.009944
 93,-0.14806379,-0.00897473,0.19871968,-0.00028083,-0.00018330,0.000105
 75,-0.00012837,-0.00017362,0.00001004,0.00017824,0.00123064,0.00112005
 ,0.00020579,-0.00001688,0.00006293,-0.00010161,-0.00066081,-0.00024698
 ,-0.00002968,0.00003805,-0.00001481,0.00021651,-0.00001017,-0.00006972
 ,-0.00013636,0.00006654,0.00013420,-0.00002900,-0.00009874,-0.00004305
 ,0.00000149,0.00000282,-0.00000404,-0.00007772,0.00000820,-0.00015580,
 -0.00001326,-0.00000481,0.00000416,-0.00000317,-0.00000429,-0.00000900
 ,-0.00587012,0.00154451,-0.00053185,-0.00060765,0.00820438,-0.02961625
 ,-0.00000918,0.00056943,-0.00142814,0.00004801,-0.00013228,-0.00022793
 ,-0.07074907,0.01492955,-0.05664499,0.00119497,-0.00085296,0.00020727,
 0.06915015,0.00004152,-0.00068506,-0.00059529,-0.00022181,-0.00017010,
 0.00028336,-0.00064575,0.00085417,0.00391694,-0.00013649,0.00004252,0.
 00020282,0.00304593,-0.00113205,0.00150251,0.00002470,-0.00003644,-0.0
 0003396,0.00028406,0.00004192,-0.00015585,-0.00007476,0.00014099,0.000
 09863,-0.00005900,-0.00015265,-0.00004971,-0.00000023,-0.00000223,0.00
 001834,-0.00030839,-0.00001216,-0.00007200,-0.00003814,-0.00000217,0.0
 0000278,-0.00001277,-0.00001381,-0.00000682,-0.00051204,0.00510347,0.0
 0148839,0.00083866,0.00475688,-0.00018808,-0.00029665,-0.00061278,-0.0
 0016663,-0.00020708,-0.00010508,0.00035756,0.01927241,-0.04744950,0.06
 534442,-0.00065411,-0.00425298,-0.00077933,-0.01920900,0.04024723,0.00
 023623,-0.00014470,-0.00015197,-0.00009348,0.00006486,0.00016387,0.000
 07673,0.00047269,0.00067595,-0.00016128,0.00005597,-0.00011701,0.00078
 323,-0.00077893,0.00089841,0.00001914,-0.00005050,0.00001768,0.0000319
 9,0.00002712,0.00003399,0.00003776,0.00000721,0.00000838,0.00001950,0.
 00000274,0.00005289,-0.00000429,-0.00000998,0.00000870,-0.00004136,-0.
 00000028,0.00000515,0.00000474,0.00000775,0.00000107,0.00000252,-0.000
 00567,0.00000437,-0.00248338,0.00039037,0.00068619,0.00183300,0.001794
 32,-0.00434377,0.00011051,0.00017671,-0.00023853,0.00009052,-0.0001540
 4,0.00039573,-0.06166374,0.06177953,-0.31395398,-0.00030803,-0.0007135
 5,0.00071125,0.06753265,-0.06739038,0.32842597,0.00045545,-0.00063096,
 -0.00029933,0.00004024,0.00008718,-0.00002235,0.00000278,-0.00164376,-
 0.00055152,0.00020407,0.00014495,-0.00006171,0.00023496,0.00083160,0.0
 0030621,-0.00001343,0.00007578,-0.00004601,0.00000602,-0.00000413,0.00
 002284,-0.00018010,0.00008205,0.00010350,0.00000213,-0.00004756,-0.000
 02127,0.00000011,0.00000270,-0.00000695,0.00001604,-0.00007768,-0.0000
 8133,-0.00000300,-0.00000723,0.00000405,0.00000092,0.00000621,-0.00000
 617,0.00141830,-0.00253802,0.00170097,-0.02043866,0.00302875,0.0230397
 8,0.00020791,-0.00039224,-0.00031363,0.00053385,0.00068336,-0.00103391
 ,-0.20061966,0.02496806,0.13648766,-0.00359161,0.00209597,-0.00258799,
 0.00704086,-0.00113106,-0.00602295,0.21468282,0.00199698,-0.00014909,-
 0.00094889,-0.00007122,0.00053588,0.00059886,-0.00074423,-0.01263328,-
 0.00580821,-0.00074159,0.00042629,-0.00020608,0.00203317,0.00254689,0.
 00351735,0.00003453,-0.00013044,0.00003145,-0.00018065,-0.00000747,0.0
 0011231,0.00013137,-0.00003431,-0.00028171,0.00001556,-0.00004966,-0.0
 0001236,-0.00001231,-0.00000168,-0.00000652,0.00006494,-0.00009974,0.0
 0025413,0.00001688,0.00000002,0.00000281,0.00002588,0.00000923,-0.0000
 0650,-0.00064957,-0.00701392,0.00161220,-0.00625374,0.00477140,-0.0058
 3712,-0.00009044,-0.00005349,0.00010805,0.00082461,0.00074692,-0.00001
 013,0.03374013,-0.02978883,-0.01618536,0.00064092,0.00705061,0.0012839
 3,-0.00524728,0.00343982,0.00446877,-0.02553396,0.03043483,0.00005461,
 0.00060692,0.00024193,-0.00021523,-0.00016234,0.00035943,0.00006338,0.
 00005895,-0.00009396,-0.00018127,0.00008955,-0.00008976,0.00006936,-0.
 00002286,0.00017780,0.00000664,0.00007972,-0.00003317,0.00030795,-0.00
 003249,-0.00007500,-0.00012117,0.00002012,0.00011874,-0.00000472,-0.00
 006488,-0.00006173,0.00000810,0.00000660,-0.00000761,-0.00017284,0.000
 02985,-0.00011291,-0.00000447,-0.00002426,-0.00000284,-0.00000040,-0.0
 0000472,-0.00001207,-0.00126675,-0.00023597,0.00132294,-0.00673036,0.0
 0157898,0.00859760,0.00017172,0.00014642,0.00013304,0.00028969,-0.0007
 3921,0.00000246,0.14063381,-0.01580760,-0.18865593,-0.00211367,0.00094
 190,0.00040663,0.01981551,-0.00377770,-0.01328436,-0.15060988,0.017313
 03,0.19106876\\-0.00046233,-0.00275093,0.00000024,0.00045983,0.0007314
 5,0.00000019,-0.00000531,0.00200966,-0.00000302,-0.00000093,0.00000015
 ,0.,0.00000305,0.00000776,-0.00000237,0.00000020,-0.00000016,-0.000000
 15,-0.00000062,-0.00000004,-0.00000041,0.00000077,-0.00000008,-0.00000
 075,-0.00000013,0.00000003,-0.00000009,0.00000004,-0.00000001,0.000000
 03,-0.00000003,-0.00000002,0.00000085,0.00000002,-0.00000002,-0.000000
 06,-0.00000007,0.,0.00000004,0.00000321,-0.00000160,0.00000693,-0.0000
 0244,-0.00000067,-0.00000332,0.00000002,0.00000139,0.00000056,0.000001
 11,0.00000222,0.00000030,0.00000351,0.00000044,0.00000210,0.00000008,0
 .00000034,-0.00000006,-0.00000002,-0.00000049,-0.00000018,0.00000005,0
 .00000058,-0.00000082\\\@


 TELEVISION IS CALLED A MEDIUM BECAUSE IT ISN'T
 RARE, AND IT ISN'T WELL DONE.
 Job cpu time:       0 days  3 hours 38 minutes 17.9 seconds.
 Elapsed time:       0 days  0 hours 18 minutes 12.3 seconds.
 File lengths (MBytes):  RWF=    290 Int=      0 D2E=      0 Chk=     32 Scr=      1
 Normal termination of Gaussian 16 at Fri Jun 10 13:42:37 2022.
