 Entering Gaussian System, Link 0=g16
 Input=ts_zmat_field_N25.gjf
 Output=ts_zmat_field_N25.out
 Initial command:
 /software/gaussian/g16-a03/l1.exe "/local_scratch/11171874/Gau-22539.inp" -scrdir="/local_scratch/11171874/"
 Entering Link 1 = /software/gaussian/g16-a03/l1.exe PID=     22540.
  
 Copyright (c) 1988,1990,1992,1993,1995,1998,2003,2009,2016,
            Gaussian, Inc.  All Rights Reserved.
  
 This is part of the Gaussian(R) 16 program.  It is based on
 the Gaussian(R) 09 system (copyright 2009, Gaussian, Inc.),
 the Gaussian(R) 03 system (copyright 2003, Gaussian, Inc.),
 the Gaussian(R) 98 system (copyright 1998, Gaussian, Inc.),
 the Gaussian(R) 94 system (copyright 1995, Gaussian, Inc.),
 the Gaussian 92(TM) system (copyright 1992, Gaussian, Inc.),
 the Gaussian 90(TM) system (copyright 1990, Gaussian, Inc.),
 the Gaussian 88(TM) system (copyright 1988, Gaussian, Inc.),
 the Gaussian 86(TM) system (copyright 1986, Carnegie Mellon
 University), and the Gaussian 82(TM) system (copyright 1983,
 Carnegie Mellon University). Gaussian is a federally registered
 trademark of Gaussian, Inc.
  
 This software contains proprietary and confidential information,
 including trade secrets, belonging to Gaussian, Inc.
  
 This software is provided under written license and may be
 used, copied, transmitted, or stored only in accord with that
 written license.
  
 The following legend is applicable only to US Government
 contracts under FAR:
  
                    RESTRICTED RIGHTS LEGEND
  
 Use, reproduction and disclosure by the US Government is
 subject to restrictions as set forth in subparagraphs (a)
 and (c) of the Commercial Computer Software - Restricted
 Rights clause in FAR 52.227-19.
  
 Gaussian, Inc.
 340 Quinnipiac St., Bldg. 40, Wallingford CT 06492
  
  
 ---------------------------------------------------------------
 Warning -- This program may not be used in any manner that
 competes with the business of Gaussian, Inc. or will provide
 assistance to any competitor of Gaussian, Inc.  The licensee
 of this program is prohibited from giving any competitor of
 Gaussian, Inc. access to this program.  By using this program,
 the user acknowledges that Gaussian, Inc. is engaged in the
 business of creating and licensing software in the field of
 computational chemistry and represents and warrants to the
 licensee that it is not a competitor of Gaussian, Inc. and that
 it will not use this program in any manner prohibited above.
 ---------------------------------------------------------------
  

 Cite this work as:
 Gaussian 16, Revision A.03,
 M. J. Frisch, G. W. Trucks, H. B. Schlegel, G. E. Scuseria, 
 M. A. Robb, J. R. Cheeseman, G. Scalmani, V. Barone, 
 G. A. Petersson, H. Nakatsuji, X. Li, M. Caricato, A. V. Marenich, 
 J. Bloino, B. G. Janesko, R. Gomperts, B. Mennucci, H. P. Hratchian, 
 J. V. Ortiz, A. F. Izmaylov, J. L. Sonnenberg, D. Williams-Young, 
 F. Ding, F. Lipparini, F. Egidi, J. Goings, B. Peng, A. Petrone, 
 T. Henderson, D. Ranasinghe, V. G. Zakrzewski, J. Gao, N. Rega, 
 G. Zheng, W. Liang, M. Hada, M. Ehara, K. Toyota, R. Fukuda, 
 J. Hasegawa, M. Ishida, T. Nakajima, Y. Honda, O. Kitao, H. Nakai, 
 T. Vreven, K. Throssell, J. A. Montgomery, Jr., J. E. Peralta, 
 F. Ogliaro, M. J. Bearpark, J. J. Heyd, E. N. Brothers, K. N. Kudin, 
 V. N. Staroverov, T. A. Keith, R. Kobayashi, J. Normand, 
 K. Raghavachari, A. P. Rendell, J. C. Burant, S. S. Iyengar, 
 J. Tomasi, M. Cossi, J. M. Millam, M. Klene, C. Adamo, R. Cammi, 
 J. W. Ochterski, R. L. Martin, K. Morokuma, O. Farkas, 
 J. B. Foresman, and D. J. Fox, Gaussian, Inc., Wallingford CT, 2016.
 
 ******************************************
 Gaussian 16:  ES64L-G16RevA.03 25-Dec-2016
                10-Jun-2022 
 ******************************************
 %nprocshared=12
 Will use up to   12 processors via shared memory.
 %chk=checkpoint.chk
 %mem=12GB
 ----------------------------------------------------------------------
 # Opt=(TS, CalcFC, noeigentest, Z-matrix, MaxStep=10) Field=read NoSym
 m B3LYP/Def2TZVP freq=noraman pop=none
 ----------------------------------------------------------------------
 1/5=1,8=10,10=4,11=1,18=40,26=3,38=1/1,3;
 2/12=2,15=1,17=6,18=5,29=3,40=1/2;
 3/5=44,7=101,11=2,14=-6,25=1,30=1,71=2,74=-5,140=1/1,2,3;
 4//1;
 5/5=2,38=5/2;
 8/6=4,10=90,11=11/1;
 11/6=1,8=1,9=11,15=111,16=1,31=1/1,2,10;
 10/6=1,13=1,31=1/2;
 7/10=1,18=20,25=1,30=1/1,2,3,16;
 1/5=1,8=10,10=4,11=1,18=40,26=3/3(2);
 2/15=1,29=3/2;
 99//99;
 2/15=1,29=3/2;
 3/5=44,7=101,11=2,14=-2,25=1,30=1,71=1,74=-5/1,2,3;
 4/5=5,16=3,69=1/1;
 5/5=2,38=5/2;
 7/30=1/1,2,3,16;
 1/5=1,8=10,11=1,18=40,26=3/3(-5);
 2/15=1,29=3/2;
 99/9=1/99;
 -----------------
 ts_zmat_initalOpt
 -----------------
 Symbolic Z-matrix:
 Charge =  0 Multiplicity = 1
 C
 C                    1    R2
 S                    1    R3       2    A3
 C                    1    R4       2    A4       3    D4       0
 O                    3    R5       1    A5       2    D5       0
 H                    2    R6       1    A6       3    D6       0
 C                    2    R7       1    A7       6    D7       0
 C                    4    R8       1    A8       2    D8       0
 H                    4    R9       1    A9       8    D9       0
 H                    7    R10      2    A10      1    D10      0
 C                    7    R11      2    A11      10   D11      0
 H                    8    R12      4    A12      1    D12      0
 H                    11   R13      7    A13      2    D13      0
 C                    1    R14      2    A14      3    D14      0
 C                    14   R15      1    A15      2    D15      0
 H                    14   R16      1    A16      15   D16      0
 H                    14   R17      1    A17      15   D17      0
 C                    15   R18      14   A18      1    D18      0
 H                    15   R19      14   A19      18   D19      0
 H                    18   R20      15   A20      14   D20      0
 H                    18   R21      15   A21      20   D21      0
       Variables:
  R2                    1.39254                  
  R3                    1.78174                  
  R4                    1.39614                  
  R5                    1.53578                  
  R6                    1.08178                  
  R7                    1.3903                   
  R8                    1.38786                  
  R9                    1.08419                  
  R10                   1.08301                  
  R11                   1.39068                  
  R12                   1.08283                  
  R13                   1.08238                  
  R14                   3.81838                  
  R15                   1.3868                   
  R16                   1.08037                  
  R17                   1.08052                  
  R18                   1.37364                  
  R19                   1.08463                  
  R20                   1.08206                  
  R21                   1.08175                  
  A3                  121.40622                  
  A4                  120.24104                  
  A5                  106.23472                  
  A6                  119.25279                  
  A7                  119.55262                  
  A8                  119.76282                  
  A9                  120.12194                  
  A10                 119.54392                  
  A11                 120.45902                  
  A12                 119.67223                  
  A13                 120.16713                  
  A14                  83.90941                  
  A15                  86.22836                  
  A16                 136.15039                  
  A17                  62.80502                  
  A18                 119.40565                  
  A19                 118.55878                  
  A20                 121.41982                  
  A21                 120.89325                  
  D4                  178.35414                  
  D5                   -5.91294                  
  D6                    0.25642                  
  D7                 -179.08653                  
  D8                    0.12574                  
  D9                  179.96079                  
  D10                 179.95524                  
  D11                -179.52024                  
  D12                -179.92395                  
  D13                 179.76471                  
  D14                 -34.17773                  
  D15                -157.96514                  
  D16                -132.80473                  
  D17                 126.95113                  
  D18                  26.175                    
  D19                -160.29958                  
  D20                -168.196                    
  D21                -165.34908                  
 

 GradGradGradGradGradGradGradGradGradGradGradGradGradGradGradGradGradGrad
 Berny optimization.
 Initialization pass.
                       ----------------------------
                       !    Initial Parameters    !
                       ! (Angstroms and Degrees)  !
 ----------------------                            ----------------------
 !      Name          Value   Derivative information (Atomic Units)     !
 ------------------------------------------------------------------------
 !       R2          1.3925   calculate D2E/DX2 analytically            !
 !       R3          1.7817   calculate D2E/DX2 analytically            !
 !       R4          1.3961   calculate D2E/DX2 analytically            !
 !       R5          1.5358   calculate D2E/DX2 analytically            !
 !       R6          1.0818   calculate D2E/DX2 analytically            !
 !       R7          1.3903   calculate D2E/DX2 analytically            !
 !       R8          1.3879   calculate D2E/DX2 analytically            !
 !       R9          1.0842   calculate D2E/DX2 analytically            !
 !       R10         1.083    calculate D2E/DX2 analytically            !
 !       R11         1.3907   calculate D2E/DX2 analytically            !
 !       R12         1.0828   calculate D2E/DX2 analytically            !
 !       R13         1.0824   calculate D2E/DX2 analytically            !
 !       R14         3.8184   calculate D2E/DX2 analytically            !
 !       R15         1.3868   calculate D2E/DX2 analytically            !
 !       R16         1.0804   calculate D2E/DX2 analytically            !
 !       R17         1.0805   calculate D2E/DX2 analytically            !
 !       R18         1.3736   calculate D2E/DX2 analytically            !
 !       R19         1.0846   calculate D2E/DX2 analytically            !
 !       R20         1.0821   calculate D2E/DX2 analytically            !
 !       R21         1.0818   calculate D2E/DX2 analytically            !
 !       A3        121.4062   calculate D2E/DX2 analytically            !
 !       A4        120.241    calculate D2E/DX2 analytically            !
 !       A5        106.2347   calculate D2E/DX2 analytically            !
 !       A6        119.2528   calculate D2E/DX2 analytically            !
 !       A7        119.5526   calculate D2E/DX2 analytically            !
 !       A8        119.7628   calculate D2E/DX2 analytically            !
 !       A9        120.1219   calculate D2E/DX2 analytically            !
 !       A10       119.5439   calculate D2E/DX2 analytically            !
 !       A11       120.459    calculate D2E/DX2 analytically            !
 !       A12       119.6722   calculate D2E/DX2 analytically            !
 !       A13       120.1671   calculate D2E/DX2 analytically            !
 !       A14        83.9094   calculate D2E/DX2 analytically            !
 !       A15        86.2284   calculate D2E/DX2 analytically            !
 !       A16       136.1504   calculate D2E/DX2 analytically            !
 !       A17        62.805    calculate D2E/DX2 analytically            !
 !       A18       119.4056   calculate D2E/DX2 analytically            !
 !       A19       118.5588   calculate D2E/DX2 analytically            !
 !       A20       121.4198   calculate D2E/DX2 analytically            !
 !       A21       120.8932   calculate D2E/DX2 analytically            !
 !       D4        178.3541   calculate D2E/DX2 analytically            !
 !       D5         -5.9129   calculate D2E/DX2 analytically            !
 !       D6          0.2564   calculate D2E/DX2 analytically            !
 !       D7       -179.0865   calculate D2E/DX2 analytically            !
 !       D8          0.1257   calculate D2E/DX2 analytically            !
 !       D9        179.9608   calculate D2E/DX2 analytically            !
 !       D10       179.9552   calculate D2E/DX2 analytically            !
 !       D11      -179.5202   calculate D2E/DX2 analytically            !
 !       D12      -179.9239   calculate D2E/DX2 analytically            !
 !       D13       179.7647   calculate D2E/DX2 analytically            !
 !       D14       -34.1777   calculate D2E/DX2 analytically            !
 !       D15      -157.9651   calculate D2E/DX2 analytically            !
 !       D16      -132.8047   calculate D2E/DX2 analytically            !
 !       D17       126.9511   calculate D2E/DX2 analytically            !
 !       D18        26.175    calculate D2E/DX2 analytically            !
 !       D19      -160.2996   calculate D2E/DX2 analytically            !
 !       D20      -168.196    calculate D2E/DX2 analytically            !
 !       D21      -165.3491   calculate D2E/DX2 analytically            !
 ------------------------------------------------------------------------
 Trust Radius=1.00D-01 FncErr=1.00D-07 GrdErr=1.00D-06 EigMax=2.50D+02 EigMin=1.00D-04
 Number of steps in this run=     67 maximum allowed number of steps=    114.
 Search for a saddle point of order  1.
 GradGradGradGradGradGradGradGradGradGradGradGradGradGradGradGradGradGrad

 ---------------------------------------------------------------------------------------------------
                            Z-MATRIX (ANGSTROMS AND DEGREES)
   CD    Cent   Atom    N1       Length/X        N2       Alpha/Y        N3        Beta/Z          J
 ---------------------------------------------------------------------------------------------------
      1      1  C 
      2      2  C        1   1.392540(     1)
      3      3  S        1   1.781736(     2)      2  121.406(    21)
      4      4  C        1   1.396143(     3)      2  120.241(    22)      3  178.354(    40)      0
      5      5  O        3   1.535781(     4)      1  106.235(    23)      2   -5.913(    41)      0
      6      6  H        2   1.081780(     5)      1  119.253(    24)      3    0.256(    42)      0
      7      7  C        2   1.390297(     6)      1  119.553(    25)      6 -179.087(    43)      0
      8      8  C        4   1.387863(     7)      1  119.763(    26)      2    0.126(    44)      0
      9      9  H        4   1.084189(     8)      1  120.122(    27)      8  179.961(    45)      0
     10     10  H        7   1.083012(     9)      2  119.544(    28)      1  179.955(    46)      0
     11     11  C        7   1.390683(    10)      2  120.459(    29)     10 -179.520(    47)      0
     12     12  H        8   1.082833(    11)      4  119.672(    30)      1 -179.924(    48)      0
     13     13  H       11   1.082383(    12)      7  120.167(    31)      2  179.765(    49)      0
     14     14  C        1   3.818385(    13)      2   83.909(    32)      3  -34.178(    50)      0
     15     15  C       14   1.386799(    14)      1   86.228(    33)      2 -157.965(    51)      0
     16     16  H       14   1.080374(    15)      1  136.150(    34)     15 -132.805(    52)      0
     17     17  H       14   1.080517(    16)      1   62.805(    35)     15  126.951(    53)      0
     18     18  C       15   1.373643(    17)     14  119.406(    36)      1   26.175(    54)      0
     19     19  H       15   1.084627(    18)     14  118.559(    37)     18 -160.300(    55)      0
     20     20  H       18   1.082058(    19)     15  121.420(    38)     14 -168.196(    56)      0
     21     21  H       18   1.081753(    20)     15  120.893(    39)     20 -165.349(    57)      0
 ---------------------------------------------------------------------------------------------------
                         Z-Matrix orientation:                         
 ---------------------------------------------------------------------
 Center     Atomic      Atomic             Coordinates (Angstroms)
 Number     Number       Type             X           Y           Z
 ---------------------------------------------------------------------
      1          6           0        0.000000    0.000000    0.000000
      2          6           0        0.000000    0.000000    1.392540
      3         16           0        1.520701    0.000000   -0.928467
      4          6           0       -1.205651   -0.034643   -0.703152
      5          8           0        2.651459    0.151903    0.099608
      6          1           0        0.943813    0.004224    1.921167
      7          6           0       -1.209172   -0.024693    2.078266
      8          6           0       -2.407201   -0.066522   -0.009304
      9          1           0       -1.203358   -0.035994   -1.787338
     10          1           0       -1.208993   -0.025425    3.161278
     11          6           0       -2.413226   -0.058384    1.383199
     12          1           0       -3.341392   -0.094618   -0.556136
     13          1           0       -3.351771   -0.081352    1.921863
     14          6           0        3.141115    2.132915    0.405133
     15          6           0        2.887021    2.587913   -0.880022
     16          1           0        4.151873    1.973356    0.751712
     17          1           0        2.384407    2.217650    1.171768
     18          6           0        1.598776    2.577764   -1.356697
     19          1           0        3.709423    2.634547   -1.585639
     20          1           0        1.383583    2.743110   -2.404171
     21          1           0        0.756111    2.639583   -0.681209
 ---------------------------------------------------------------------
                    Distance matrix (angstroms):
                    1          2          3          4          5
     1  C    0.000000
     2  C    1.392540   0.000000
     3  S    1.781736   2.774816   0.000000
     4  C    1.396143   2.417999   2.735866   0.000000
     5  O    2.657674   2.953808   1.535781   3.944175   0.000000
     6  H    2.140487   1.081780   2.907444   3.392456   2.501188
     7  C    2.404558   1.390297   4.061190   2.781439   4.341745
     8  C    2.408137   2.786433   4.034563   1.387863   5.064544
     9  H    2.154981   3.400146   2.856475   1.084189   4.295984
    10  H    3.384670   2.142602   4.917102   3.864443   4.930351
    11  C    2.782141   2.413950   4.563222   2.410740   5.229040
    12  H    3.388678   3.869262   4.877246   2.141635   6.033658
    13  H    3.864524   3.394285   5.645528   3.390976   6.278040
    14  C    3.818385   3.923124   2.992249   4.982065   2.063375
    15  C    3.975754   4.494076   2.926853   4.864055   2.636154
    16  H    4.658031   4.641427   3.693264   5.903537   2.448300
    17  H    3.460694   3.263756   3.174105   4.634291   2.342681
    18  C    3.322887   4.093807   2.614258   3.888007   3.018901
    19  H    4.818185   5.437850   3.487580   5.662270   3.181645
    20  H    3.901153   4.884053   3.117877   4.160950   3.819786
    21  H    2.828984   3.440863   2.759191   3.316697   3.223441
                    6          7          8          9         10
     6  H    0.000000
     7  C    2.158903   0.000000
     8  C    3.867947   2.407275   0.000000
     9  H    4.285437   3.865625   2.147458   0.000000
    10  H    2.484618   1.083012   3.389688   4.948631   0.000000
    11  C    3.400447   1.390683   1.392540   3.393610   2.147750
    12  H    4.950735   3.389886   1.082833   2.467891   4.286150
    13  H    4.296437   2.149047   2.149847   4.286713   2.476040
    14  C    3.414355   5.136111   5.982732   5.327808   5.583744
    15  C    4.277635   5.688231   5.986063   4.943612   6.319728
    16  H    3.941669   5.873053   6.910984   6.258015   6.208061
    17  H    2.745207   4.331702   5.438003   5.167908   4.679963
    18  C    4.218587   5.143571   4.985536   3.856051   5.922184
    19  H    5.183135   6.684934   6.869767   5.595345   7.334814
    20  H    5.138428   5.871572   5.291452   3.846578   6.735018
    21  H    3.708465   4.309920   4.216753   3.495962   5.072338
                   11         12         13         14         15
    11  C    0.000000
    12  H    2.150309   0.000000
    13  H    1.082383   2.478057   0.000000
    14  C    6.050546   6.921621   7.025739   0.000000
    15  C    6.341741   6.789256   7.341529   1.386799   0.000000
    16  H    6.901251   7.882639   7.867385   1.080374   2.154086
    17  H    5.314350   6.412254   6.225093   1.080517   2.144658
    18  C    5.527429   5.673428   6.505980   2.383431   1.373643
    19  H    7.317972   7.630348   8.339013   2.130208   1.084627
    20  H    6.050480   5.813202   7.008262   3.369487   2.146495
    21  H    4.646021   4.927579   5.572627   2.669287   2.140787
                   16         17         18         19         20
    16  H    0.000000
    17  H    1.833048   0.000000
    18  C    3.365858   2.672084   0.000000
    19  H    2.469038   3.087518   2.123787   0.000000
    20  H    4.267967   3.750346   1.082058   2.468058   0.000000
    21  H    3.745440   2.502579   1.081753   3.088700   1.836583
                   21
    21  H    0.000000
 Symmetry turned off by external request.
 Stoichiometry    C9H10OS
 Framework group  C1[X(C9H10OS)]
 Deg. of freedom    57
 Full point group                 C1      NOp   1
 Rotational constants (GHZ):           1.9953412           0.5948234           0.5658211
 Standard basis: def2TZVP (5D, 7F)
 The following finite field(s) will be applied:
 An electric field of             -0.0024  0.0001  0.0006
   407 basis functions,   659 primitive gaussians,   462 cartesian basis functions
    44 alpha electrons       44 beta electrons
       nuclear repulsion energy       670.3376118913 Hartrees.
 NAtoms=   21 NActive=   21 NUniq=   21 SFac= 1.00D+00 NAtFMM=   60 NAOKFM=F Big=F
 Integral buffers will be    131072 words long.
 Raffenetti 2 integral format.
 Two-electron integral symmetry is turned off.
 One-electron integrals computed using PRISM.
   1 Symmetry operations used in ECPInt.
 ECPInt:  NShTT=   13366 NPrTT=   41614 LenC2=   12679 LenP2D=   29851.
 LDataN:  DoStor=T MaxTD1= 6 Len=  172
 NBasis=   407 RedAO= T EigKep=  8.37D-06  NBF=   407
 NBsUse=   407 1.00D-06 EigRej= -1.00D+00 NBFU=   407
 The nuclear repulsion energy is now       670.1102994136 hartrees.
 ExpMin= 9.52D-02 ExpMax= 6.07D+04 ExpMxC= 2.07D+03 IAcc=3 IRadAn=         5 AccDes= 0.00D+00
 Harris functional with IExCor=  402 and IRadAn=       5 diagonalized for initial guess.
 HarFok:  IExCor=  402 AccDes= 0.00D+00 IRadAn=         5 IDoV= 1 UseB2=F ITyADJ=14
 ICtDFT=  3500011 ScaDFX=  1.000000  1.000000  1.000000  1.000000
 FoFCou: FMM=F IPFlag=           0 FMFlag=      100000 FMFlg1=           0
         NFxFlg=           0 DoJE=T BraDBF=F KetDBF=T FulRan=T
         wScrn=  0.000000 ICntrl=       500 IOpCl=  0 I1Cent=   200000004 NGrid=           0
         NMat0=    1 NMatS0=      1 NMatT0=    0 NMatD0=    1 NMtDS0=    0 NMtDT0=    0
 Symmetry not used in FoFCou.
 Requested convergence on RMS density matrix=1.00D-08 within 128 cycles.
 Requested convergence on MAX density matrix=1.00D-06.
 Requested convergence on             energy=1.00D-06.
 No special actions if energy rises.
 Integral accuracy reduced to 1.0D-05 until final iterations.
 Initial convergence to 1.0D-05 achieved.  Increase integral accuracy.
 SCF Done:  E(RB3LYP) =  -822.500790814     A.U. after   17 cycles
            NFock= 17  Conv=0.25D-08     -V/T= 2.0035
 DoSCS=F DFT=T ScalE2(SS,OS)=  1.000000  1.000000
 Range of M.O.s used for correlation:     1   407
 NBasis=   407 NAE=    44 NBE=    44 NFC=     0 NFV=     0
 NROrb=    407 NOA=    44 NOB=    44 NVA=   363 NVB=   363

 **** Warning!!: The largest alpha MO coefficient is  0.49223086D+02

   1 Symmetry operations used in ECPInt.
 ECPInt:  NShTT=   13366 NPrTT=   41614 LenC2=   12679 LenP2D=   29851.
 LDataN:  DoStor=T MaxTD1= 7 Len=  274
 Symmetrizing basis deriv contribution to polar:
 IMax=3 JMax=2 DiffMx= 0.00D+00
 G2DrvN: will do    22 centers at a time, making    1 passes.
 Calling FoFCou, ICntrl=  3107 FMM=F I1Cent=   0 AccDes= 0.00D+00.
 End of G2Drv F.D. properties file   721 does not exist.
 End of G2Drv F.D. properties file   722 does not exist.
 End of G2Drv F.D. properties file   788 does not exist.
          IDoAtm=111111111111111111111
          Differentiating once with respect to nuclear coordinates.
 CalDSu exits because no D1Ps are significant.
          There are    66 degrees of freedom in the 1st order CPHF.  IDoFFX=6 NUNeed=     0.
     60 vectors produced by pass  0 Test12= 2.42D-14 1.52D-09 XBig12= 1.66D-01 1.31D-01.
 AX will form    60 AO Fock derivatives at one time.
     60 vectors produced by pass  1 Test12= 2.42D-14 1.52D-09 XBig12= 9.19D-02 8.21D-02.
     60 vectors produced by pass  2 Test12= 2.42D-14 1.52D-09 XBig12= 1.12D-03 5.06D-03.
     60 vectors produced by pass  3 Test12= 2.42D-14 1.52D-09 XBig12= 6.69D-06 2.70D-04.
     60 vectors produced by pass  4 Test12= 2.42D-14 1.52D-09 XBig12= 1.91D-08 1.12D-05.
     59 vectors produced by pass  5 Test12= 2.42D-14 1.52D-09 XBig12= 3.90D-11 5.16D-07.
     22 vectors produced by pass  6 Test12= 2.42D-14 1.52D-09 XBig12= 5.41D-14 2.31D-08.
 InvSVY:  IOpt=1 It=  1 EMax= 3.89D-16
 Solved reduced A of dimension   381 with    66 vectors.
 End of Minotr F.D. properties file   721 does not exist.
 End of Minotr F.D. properties file   722 does not exist.
 End of Minotr F.D. properties file   788 does not exist.
   1 Symmetry operations used in ECPInt.
 ECPInt:  NShTT=   13366 NPrTT=   41614 LenC2=   12679 LenP2D=   29851.
 LDataN:  DoStor=T MaxTD1= 8 Len=  415
 Calling FoFJK, ICntrl=    100147 FMM=F ISym2X=0 I1Cent= 0 IOpClX= 0 NMat=1 NMatS=1 NMatT=0.
 -------------------------------------------------------------------
 Center     Atomic                   Forces (Hartrees/Bohr)
 Number     Number              X              Y              Z
 -------------------------------------------------------------------
      1        6           0.001049976    0.000083567   -0.000525835
      2        6          -0.000553562    0.000046644    0.000436401
      3       16           0.000824223   -0.000701641   -0.000069822
      4        6          -0.000736857   -0.000040196    0.000267799
      5        8          -0.001045872    0.000627315    0.000140248
      6        1           0.000111978   -0.000013897   -0.000137620
      7        6           0.000099697    0.000025330   -0.000110389
      8        6           0.000327967    0.000024407   -0.000017791
      9        1           0.000193134   -0.000015996    0.000025055
     10        1           0.000107536   -0.000019985    0.000138488
     11        6          -0.000125648    0.000015648    0.000064807
     12        1          -0.000178247   -0.000019877   -0.000200023
     13        1          -0.000231001   -0.000024201    0.000182684
     14        6           0.000155740   -0.000729014    0.000406137
     15        6          -0.000585332   -0.000182640   -0.001350758
     16        1          -0.000036306   -0.000062919   -0.000090487
     17        1          -0.000067551    0.000080324    0.000068735
     18        6           0.000680401    0.000936938    0.000472628
     19        1          -0.000102836    0.000111697    0.000203126
     20        1           0.000142801   -0.000100267   -0.000075360
     21        1          -0.000030241   -0.000041236    0.000171976
 -------------------------------------------------------------------
 Cartesian Forces:  Max     0.001350758 RMS     0.000403241
 -----------------------------------------------------------------------------------------------
                       Internal Coordinate Forces (Hartree/Bohr or radian)
  Cent   Atom   N1       Length/X         N2         Alpha/Y        N3         Beta/Z          J
 -----------------------------------------------------------------------------------------------
      1  C 
      2  C        1   0.000574(     1)
      3  S        1  -0.000226(     2)      2  -0.002145(    21)
      4  C        1   0.000304(     3)      2   0.000165(    22)      3  -0.000117(    40)     0
      5  O        3  -0.000614(     4)      1  -0.002400(    23)      2  -0.001861(    41)     0
      6  H        2   0.000030(     5)      1  -0.000357(    24)      3   0.000004(    42)     0
      7  C        2   0.000266(     6)      1   0.001776(    25)      6   0.000030(    43)     0
      8  C        4  -0.000239(     7)      1   0.000467(    26)      2   0.000040(    44)     0
      9  H        4  -0.000025(     8)      1  -0.000395(    27)      8   0.000038(    45)     0
     10  H        7   0.000139(     9)      2  -0.000219(    28)      1  -0.000036(    46)     0
     11  C        7   0.000185(    10)      2   0.001120(    29)     10   0.000004(    47)     0
     12  H        8   0.000255(    11)      4  -0.000169(    30)      1   0.000025(    48)     0
     13  H       11   0.000292(    12)      7  -0.000088(    31)      2  -0.000033(    49)     0
     14  C        1   0.000115(    13)      2   0.000429(    32)      3   0.002901(    50)     0
     15  C       14   0.000754(    14)      1   0.001974(    33)      2   0.001372(    51)     0
     16  H       14  -0.000054(    15)      1  -0.000106(    34)     15   0.000126(    52)     0
     17  H       14   0.000102(    16)      1   0.000100(    35)     15  -0.000097(    53)     0
     18  C       15  -0.000947(    17)     14   0.000187(    36)      1   0.001554(    54)     0
     19  H       15  -0.000205(    18)     14  -0.000081(    37)     18  -0.000258(    55)     0
     20  H       18   0.000029(    19)     15  -0.000293(    38)     14   0.000118(    56)     0
     21  H       18   0.000129(    20)     15  -0.000231(    39)     20  -0.000094(    57)     0
 -----------------------------------------------------------------------------------------------
 Internal  Forces:  Max     0.002901399 RMS     0.000824148

 GradGradGradGradGradGradGradGradGradGradGradGradGradGradGradGradGradGrad
 Berny optimization.
 Search for a saddle point.
 Step number   1 out of a maximum of   67
 All quantities printed in internal units (Hartrees-Bohrs-Radians)
 Swapping is turned off.
 Second derivative matrix not updated -- analytic derivatives used.
 ITU=  0
     Eigenvalues ---   -0.15079   0.00778   0.01254   0.02834   0.03162
     Eigenvalues ---    0.03363   0.03666   0.03768   0.04208   0.05792
     Eigenvalues ---    0.06196   0.06949   0.09224   0.11014   0.11447
     Eigenvalues ---    0.11890   0.13847   0.15892   0.16192   0.16803
     Eigenvalues ---    0.18150   0.19491   0.21095   0.22510   0.22804
     Eigenvalues ---    0.23184   0.23336   0.23728   0.28740   0.30265
     Eigenvalues ---    0.33746   0.34147   0.34892   0.35288   0.35416
     Eigenvalues ---    0.35626   0.35681   0.35991   0.36071   0.36599
     Eigenvalues ---    0.36729   0.38096   0.39553   0.41939   0.42671
     Eigenvalues ---    0.44392   0.47106   0.48468   0.49824   0.53086
     Eigenvalues ---    0.55843   0.58235   1.42484   2.49525   2.68773
     Eigenvalues ---    3.58052  24.07076
 Eigenvectors required to have negative eigenvalues:
                          A15       D5        D15       D17       R5
   1                    0.45932  -0.36296   0.33540  -0.29339   0.27394
                          D14       R15       A17       D18       D21
   1                    0.25364   0.24309   0.24116   0.23289  -0.20260
 RFO step:  Lambda0=7.543106329D-05 Lambda=-1.11898971D-04.
 Linear search not attempted -- option 19 set.
 Variable       Old X    -DE/DX   Delta X   Delta X   Delta X     New X
                                 (Linear)    (Quad)   (Total)
    R2        2.63152   0.00057   0.00000   0.00085   0.00085   2.63237
    R3        3.36699  -0.00023   0.00000   0.00043   0.00043   3.36742
    R4        2.63833   0.00030   0.00000   0.00065   0.00065   2.63898
    R5        2.90221  -0.00061   0.00000  -0.00679  -0.00679   2.89542
    R6        2.04427   0.00003   0.00000   0.00009   0.00009   2.04435
    R7        2.62728   0.00027   0.00000  -0.00028  -0.00028   2.62700
    R8        2.62268  -0.00024   0.00000  -0.00025  -0.00025   2.62243
    R9        2.04882  -0.00002   0.00000   0.00004   0.00004   2.04886
   R10        2.04660   0.00014   0.00000   0.00040   0.00040   2.04700
   R11        2.62801   0.00019   0.00000   0.00046   0.00046   2.62847
   R12        2.04626   0.00026   0.00000   0.00073   0.00073   2.04698
   R13        2.04541   0.00029   0.00000   0.00075   0.00075   2.04616
   R14        7.21570   0.00012   0.00000   0.06339   0.06339   7.27909
   R15        2.62067   0.00075   0.00000  -0.00293  -0.00293   2.61774
   R16        2.04161  -0.00005   0.00000  -0.00021  -0.00021   2.04140
   R17        2.04188   0.00010   0.00000  -0.00000  -0.00000   2.04188
   R18        2.59581  -0.00095   0.00000   0.00126   0.00126   2.59707
   R19        2.04965  -0.00021   0.00000  -0.00060  -0.00060   2.04904
   R20        2.04479   0.00003   0.00000  -0.00004  -0.00004   2.04475
   R21        2.04422   0.00013   0.00000   0.00045   0.00045   2.04466
    A3        2.11894  -0.00215   0.00000  -0.00192  -0.00192   2.11702
    A4        2.09860   0.00017   0.00000  -0.00184  -0.00184   2.09676
    A5        1.85415  -0.00240   0.00000  -0.00191  -0.00191   1.85224
    A6        2.08135  -0.00036   0.00000  -0.00220  -0.00220   2.07916
    A7        2.08659   0.00178   0.00000   0.00112   0.00112   2.08771
    A8        2.09026   0.00047   0.00000   0.00097   0.00097   2.09123
    A9        2.09652  -0.00039   0.00000  -0.00180  -0.00180   2.09473
   A10        2.08644  -0.00022   0.00000  -0.00111  -0.00111   2.08533
   A11        2.10241   0.00112   0.00000   0.00030   0.00030   2.10271
   A12        2.08867  -0.00017   0.00000  -0.00101  -0.00101   2.08766
   A13        2.09731  -0.00009   0.00000   0.00020   0.00020   2.09751
   A14        1.46450   0.00043   0.00000  -0.00890  -0.00890   1.45560
   A15        1.50497   0.00197   0.00000  -0.01369  -0.01369   1.49128
   A16        2.37627  -0.00011   0.00000  -0.00611  -0.00611   2.37016
   A17        1.09615   0.00010   0.00000   0.00993   0.00993   1.10608
   A18        2.08402   0.00019   0.00000   0.00048   0.00048   2.08451
   A19        2.06924  -0.00008   0.00000   0.00081   0.00081   2.07005
   A20        2.11918  -0.00029   0.00000  -0.00070  -0.00070   2.11847
   A21        2.10999  -0.00023   0.00000  -0.00136  -0.00136   2.10863
    D4        3.11287  -0.00012   0.00000   0.00337   0.00337   3.11624
    D5       -0.10320  -0.00186   0.00000   0.03820   0.03820  -0.06500
    D6        0.00448   0.00000   0.00000  -0.00500  -0.00500  -0.00052
    D7       -3.12565   0.00003   0.00000   0.00255   0.00255  -3.12310
    D8        0.00219   0.00004   0.00000   0.00025   0.00025   0.00245
    D9        3.14091   0.00004   0.00000   0.00144   0.00144   3.14235
   D10        3.14081  -0.00004   0.00000  -0.00150  -0.00150   3.13931
   D11       -3.13322   0.00000   0.00000   0.00005   0.00005  -3.13317
   D12       -3.14027   0.00003   0.00000   0.00080   0.00080  -3.13946
   D13        3.13749  -0.00003   0.00000  -0.00042  -0.00042   3.13706
   D14       -0.59651   0.00290   0.00000   0.02357   0.02357  -0.57295
   D15       -2.75701   0.00137   0.00000   0.01730   0.01730  -2.73971
   D16       -2.31788   0.00013   0.00000   0.02218   0.02218  -2.29570
   D17        2.21572  -0.00010   0.00000   0.00728   0.00728   2.22300
   D18        0.45684   0.00155   0.00000   0.01212   0.01212   0.46896
   D19       -2.79776  -0.00026   0.00000  -0.00759  -0.00759  -2.80535
   D20       -2.93557   0.00012   0.00000  -0.00748  -0.00748  -2.94306
   D21       -2.88589  -0.00009   0.00000   0.00174   0.00174  -2.88414
         Item               Value     Threshold  Converged?
 Maximum Force            0.002901     0.000450     NO 
 RMS     Force            0.000824     0.000300     NO 
 Maximum Displacement     0.063390     0.001800     NO 
 RMS     Displacement     0.011606     0.001200     NO 
 Predicted change in Energy=-1.861962D-05
 GradGradGradGradGradGradGradGradGradGradGradGradGradGradGradGradGradGrad

 ---------------------------------------------------------------------------------------------------
                            Z-MATRIX (ANGSTROMS AND DEGREES)
   CD    Cent   Atom    N1       Length/X        N2       Alpha/Y        N3        Beta/Z          J
 ---------------------------------------------------------------------------------------------------
      1      1  C 
      2      2  C        1   1.392990(     1)
      3      3  S        1   1.781963(     2)      2  121.296(    21)
      4      4  C        1   1.396490(     3)      2  120.136(    22)      3  178.547(    40)      0
      5      5  O        3   1.532188(     4)      1  106.126(    23)      2   -3.724(    41)      0
      6      6  H        2   1.081826(     5)      1  119.127(    24)      3   -0.030(    42)      0
      7      7  C        2   1.390149(     6)      1  119.617(    25)      6 -178.941(    43)      0
      8      8  C        4   1.387730(     7)      1  119.818(    26)      2    0.140(    44)      0
      9      9  H        4   1.084212(     8)      1  120.019(    27)      8  180.043(    45)      0
     10     10  H        7   1.083225(     9)      2  119.480(    28)      1  179.869(    46)      0
     11     11  C        7   1.390926(    10)      2  120.476(    29)     10 -179.517(    47)      0
     12     12  H        8   1.083218(    11)      4  119.614(    30)      1 -179.878(    48)      0
     13     13  H       11   1.082779(    12)      7  120.178(    31)      2  179.741(    49)      0
     14     14  C        1   3.851929(    13)      2   83.400(    32)      3  -32.827(    50)      0
     15     15  C       14   1.385248(    14)      1   85.444(    33)      2 -156.974(    51)      0
     16     16  H       14   1.080262(    15)      1  135.800(    34)     15 -131.534(    52)      0
     17     17  H       14   1.080516(    16)      1   63.374(    35)     15  127.368(    53)      0
     18     18  C       15   1.374310(    17)     14  119.433(    36)      1   26.869(    54)      0
     19     19  H       15   1.084308(    18)     14  118.605(    37)     18 -160.735(    55)      0
     20     20  H       18   1.082035(    19)     15  121.380(    38)     14 -168.625(    56)      0
     21     21  H       18   1.081990(    20)     15  120.815(    39)     20 -165.249(    57)      0
 ---------------------------------------------------------------------------------------------------
                         Z-Matrix orientation:                         
 ---------------------------------------------------------------------
 Center     Atomic      Atomic             Coordinates (Angstroms)
 Number     Number       Type             X           Y           Z
 ---------------------------------------------------------------------
      1          6           0        0.000000    0.000000    0.000000
      2          6           0        0.000000    0.000000    1.392990
      3         16           0        1.522672    0.000000   -0.925667
      4          6           0       -1.207350   -0.030621   -0.701108
      5          8           0        2.649293    0.095606    0.108347
      6          1           0        0.945021   -0.000494    1.919566
      7          6           0       -1.208328   -0.021711    2.080003
      8          6           0       -2.408289   -0.058130   -0.006284
      9          1           0       -1.205067   -0.033570   -1.785313
     10          1           0       -1.205709   -0.023818    3.163223
     11          6           0       -2.413700   -0.050730    1.386526
     12          1           0       -3.342803   -0.083846   -0.553444
     13          1           0       -3.351971   -0.071794    1.926541
     14          6           0        3.215349    2.074333    0.442757
     15          6           0        2.953439    2.548142   -0.832320
     16          1           0        4.225882    1.876376    0.769256
     17          1           0        2.471319    2.162212    1.221352
     18          6           0        1.657427    2.578404   -1.288569
     19          1           0        3.766105    2.586008   -1.549162
     20          1           0        1.430895    2.766763   -2.329724
     21          1           0        0.828100    2.651655   -0.597517
 ---------------------------------------------------------------------
                    Distance matrix (angstroms):
                    1          2          3          4          5
     1  C    0.000000
     2  C    1.392990   0.000000
     3  S    1.781963   2.773933   0.000000
     4  C    1.396490   2.417411   2.739413   0.000000
     5  O    2.653230   2.945879   1.532188   3.942695   0.000000
     6  H    2.139579   1.081826   2.903279   3.391392   2.488833
     7  C    2.405606   1.390149   4.061144   2.781125   4.333870
     8  C    2.408999   2.785894   4.037463   1.387730   5.061216
     9  H    2.154218   3.399254   2.860189   1.084212   4.296362
    10  H    3.385304   2.141968   4.915654   3.864337   4.920119
    11  C    2.784058   2.414242   4.565505   2.411203   5.223893
    12  H    3.389345   3.869104   4.880413   2.141214   6.031201
    13  H    3.866836   3.394928   5.648220   3.391995   6.272879
    14  C    3.851929   3.942622   3.006758   5.029863   2.085092
    15  C    3.988557   4.490861   2.923839   4.896876   2.644294
    16  H    4.687283   4.665609   3.701472   5.942946   2.468517
    17  H    3.503467   3.288166   3.191361   4.694355   2.354000
    18  C    3.325002   4.072590   2.607301   3.919064   3.016530
    19  H    4.823991   5.433898   3.479824   5.683414   3.193228
    20  H    3.889737   4.853971   3.103993   4.175893   3.816250
    21  H    2.841487   3.417476   2.760686   3.368737   3.216889
                    6          7          8          9         10
     6  H    0.000000
     7  C    2.159422   0.000000
     8  C    3.867416   2.407037   0.000000
     9  H    4.283702   3.865336   2.147858   0.000000
    10  H    2.484526   1.083225   3.390155   4.948546   0.000000
    11  C    3.401127   1.390926   1.392840   3.394356   2.148632
    12  H    4.950571   3.390411   1.083218   2.467782   4.287701
    13  H    4.297589   2.149712   2.150937   4.288183   2.477524
    14  C    3.411782   5.161676   6.031114   5.380300   5.599011
    15  C    4.254663   5.692634   6.018565   4.986643   6.314891
    16  H    3.950937   5.903510   6.953848   6.298327   6.232495
    17  H    2.737587   4.364242   5.499781   5.232333   4.697885
    18  C    4.177363   5.130344   5.012546   3.906793   5.898097
    19  H    5.165325   6.687005   6.891668   5.624101   7.330532
    20  H    5.094138   5.846946   5.302616   3.884140   6.701603
    21  H    3.658315   4.296864   4.262242   3.571423   5.043580
                   11         12         13         14         15
    11  C    0.000000
    12  H    2.151234   0.000000
    13  H    1.082779   2.480030   0.000000
    14  C    6.090385   6.975637   7.066623   0.000000
    15  C    6.362672   6.829920   7.364345   1.385248   0.000000
    16  H    6.941096   7.929502   7.909395   1.080262   2.153003
    17  H    5.365427   6.480640   6.276844   1.080516   2.144516
    18  C    5.535571   5.712292   6.515715   2.383001   1.374310
    19  H    7.332165   7.658731   8.355323   2.129057   1.084308
    20  H    6.043980   5.836895   7.003499   3.369033   2.146662
    21  H    4.663537   4.988120   5.591157   2.667289   2.140775
                   16         17         18         19         20
    16  H    0.000000
    17  H    1.834281   0.000000
    18  C    3.365182   2.671206   0.000000
    19  H    2.467800   3.087366   2.124733   0.000000
    20  H    4.267132   3.749414   1.082035   2.468837   0.000000
    21  H    3.743535   2.499602   1.081990   3.088983   1.837703
                   21
    21  H    0.000000
 Symmetry turned off by external request.
 Stoichiometry    C9H10OS
 Framework group  C1[X(C9H10OS)]
 Deg. of freedom    57
 Full point group                 C1      NOp   1
 Rotational constants (GHZ):           2.0071654           0.5915805           0.5628705
 Standard basis: def2TZVP (5D, 7F)
 The following finite field(s) will be applied:
 An electric field of             -0.0024  0.0001  0.0006
   407 basis functions,   659 primitive gaussians,   462 cartesian basis functions
    44 alpha electrons       44 beta electrons
       nuclear repulsion energy       669.8841242898 Hartrees.
 NAtoms=   21 NActive=   21 NUniq=   21 SFac= 1.00D+00 NAtFMM=   60 NAOKFM=F Big=F
 Integral buffers will be    131072 words long.
 Raffenetti 2 integral format.
 Two-electron integral symmetry is turned off.
 One-electron integrals computed using PRISM.
   1 Symmetry operations used in ECPInt.
 ECPInt:  NShTT=   13366 NPrTT=   41614 LenC2=   12669 LenP2D=   29825.
 LDataN:  DoStor=T MaxTD1= 6 Len=  172
 NBasis=   407 RedAO= T EigKep=  8.38D-06  NBF=   407
 NBsUse=   407 1.00D-06 EigRej= -1.00D+00 NBFU=   407
 The nuclear repulsion energy is now       669.6512796058 hartrees.
 Initial guess from the checkpoint file:  "checkpoint.chk"
 B after Tr=     0.013382   -0.003123    0.010163
         Rot=    0.999937   -0.007677    0.000438    0.008229 Ang=  -1.29 deg.
 ExpMin= 9.52D-02 ExpMax= 6.07D+04 ExpMxC= 2.07D+03 IAcc=2 IRadAn=         4 AccDes= 0.00D+00
 Harris functional with IExCor=  402 and IRadAn=       4 diagonalized for initial guess.
 HarFok:  IExCor=  402 AccDes= 0.00D+00 IRadAn=         4 IDoV= 1 UseB2=F ITyADJ=14
 ICtDFT=  3500011 ScaDFX=  1.000000  1.000000  1.000000  1.000000
 FoFCou: FMM=F IPFlag=           0 FMFlag=      100000 FMFlg1=           0
         NFxFlg=           0 DoJE=T BraDBF=F KetDBF=T FulRan=T
         wScrn=  0.000000 ICntrl=       500 IOpCl=  0 I1Cent=   200000004 NGrid=           0
         NMat0=    1 NMatS0=      1 NMatT0=    0 NMatD0=    1 NMtDS0=    0 NMtDT0=    0
 Symmetry not used in FoFCou.
 Requested convergence on RMS density matrix=1.00D-08 within 128 cycles.
 Requested convergence on MAX density matrix=1.00D-06.
 Requested convergence on             energy=1.00D-06.
 No special actions if energy rises.
 Integral accuracy reduced to 1.0D-05 until final iterations.
 Initial convergence to 1.0D-05 achieved.  Increase integral accuracy.
 SCF Done:  E(RB3LYP) =  -822.500809028     A.U. after   12 cycles
            NFock= 12  Conv=0.99D-08     -V/T= 2.0035
   1 Symmetry operations used in ECPInt.
 ECPInt:  NShTT=   13366 NPrTT=   41614 LenC2=   12669 LenP2D=   29825.
 LDataN:  DoStor=T MaxTD1= 7 Len=  274
 Calling FoFJK, ICntrl=      2127 FMM=F ISym2X=0 I1Cent= 0 IOpClX= 0 NMat=1 NMatS=1 NMatT=0.
 -------------------------------------------------------------------
 Center     Atomic                   Forces (Hartrees/Bohr)
 Number     Number              X              Y              Z
 -------------------------------------------------------------------
      1        6           0.000150965    0.000607850   -0.000005016
      2        6          -0.000164380   -0.000177708    0.000005902
      3       16           0.000002800   -0.000376005   -0.000044326
      4        6           0.000004514    0.000004142   -0.000000272
      5        8           0.000023133   -0.000013115    0.000110152
      6        1           0.000002600    0.000000785    0.000003390
      7        6           0.000011755    0.000000816    0.000004728
      8        6          -0.000008716   -0.000003163    0.000008415
      9        1           0.000001423   -0.000000155    0.000002109
     10        1          -0.000000349    0.000000234    0.000000389
     11        6          -0.000001126    0.000000215   -0.000011081
     12        1          -0.000000588   -0.000000621    0.000000185
     13        1          -0.000000287    0.000000051    0.000000258
     14        6           0.000060697   -0.000048650   -0.000042610
     15        6          -0.000042548    0.000013159   -0.000010105
     16        1          -0.000001460   -0.000004115    0.000023572
     17        1          -0.000014546   -0.000025267   -0.000005791
     18        6          -0.000021391    0.000000905   -0.000038850
     19        1           0.000002397    0.000001672    0.000004033
     20        1           0.000000469    0.000014840    0.000002668
     21        1          -0.000005361    0.000004128   -0.000007749
 -------------------------------------------------------------------
 Cartesian Forces:  Max     0.000607850 RMS     0.000099313
 -----------------------------------------------------------------------------------------------
                       Internal Coordinate Forces (Hartree/Bohr or radian)
  Cent   Atom   N1       Length/X         N2         Alpha/Y        N3         Beta/Z          J
 -----------------------------------------------------------------------------------------------
      1  C 
      2  C        1   0.000004(     1)
      3  S        1  -0.000012(     2)      2  -0.000424(    21)
      4  C        1  -0.000002(     3)      2  -0.000033(    22)      3  -0.000009(    40)     0
      5  O        3   0.000091(     4)      1  -0.000189(    23)      2   0.000056(    41)     0
      6  H        2   0.000004(     5)      1   0.000003(    24)      3  -0.000002(    42)     0
      7  C        2  -0.000012(     6)      1  -0.000023(    25)      6  -0.000003(    43)     0
      8  C        4   0.000012(     7)      1  -0.000008(    26)      2  -0.000008(    44)     0
      9  H        4  -0.000002(     8)      1  -0.000003(    27)      8   0.000000(    45)     0
     10  H        7   0.000000(     9)      2   0.000001(    28)      1  -0.000000(    46)     0
     11  C        7   0.000007(    10)      2  -0.000023(    29)     10  -0.000001(    47)     0
     12  H        8   0.000000(    11)      4   0.000001(    30)      1   0.000001(    48)     0
     13  H       11   0.000000(    12)      7  -0.000000(    31)      2   0.000000(    49)     0
     14  C        1  -0.000050(    13)      2   0.000402(    32)      3   0.000163(    50)     0
     15  C       14   0.000070(    14)      1   0.000032(    33)      2   0.000064(    51)     0
     16  H       14   0.000007(    15)      1  -0.000016(    34)     15  -0.000031(    52)     0
     17  H       14   0.000004(    16)      1  -0.000056(    35)     15   0.000019(    53)     0
     18  C       15   0.000040(    17)     14   0.000122(    36)      1   0.000006(    54)     0
     19  H       15  -0.000001(    18)     14  -0.000007(    37)     18  -0.000006(    55)     0
     20  H       18  -0.000000(    19)     15  -0.000002(    38)     14  -0.000019(    56)     0
     21  H       18  -0.000001(    20)     15   0.000019(    39)     20   0.000008(    57)     0
 -----------------------------------------------------------------------------------------------
 Internal  Forces:  Max     0.000424086 RMS     0.000089103

 GradGradGradGradGradGradGradGradGradGradGradGradGradGradGradGradGradGrad
 Berny optimization.
 Search for a saddle point.
 Step number   2 out of a maximum of   67
 All quantities printed in internal units (Hartrees-Bohrs-Radians)
 Swapping is turned off.
 Update second derivatives using D2CorN and points    1    2
 ITU=  0  0
     Eigenvalues ---   -0.15048   0.00783   0.01254   0.02834   0.03162
     Eigenvalues ---    0.03361   0.03666   0.03769   0.04207   0.05793
     Eigenvalues ---    0.06197   0.06950   0.09224   0.11014   0.11445
     Eigenvalues ---    0.11890   0.13844   0.15892   0.16190   0.16802
     Eigenvalues ---    0.18150   0.19490   0.21095   0.22510   0.22803
     Eigenvalues ---    0.23184   0.23336   0.23728   0.28740   0.30265
     Eigenvalues ---    0.33746   0.34147   0.34892   0.35288   0.35416
     Eigenvalues ---    0.35626   0.35681   0.35991   0.36071   0.36599
     Eigenvalues ---    0.36729   0.38095   0.39554   0.41939   0.42672
     Eigenvalues ---    0.44392   0.47106   0.48467   0.49823   0.53085
     Eigenvalues ---    0.55843   0.58234   1.42473   2.49524   2.68773
     Eigenvalues ---    3.58052  24.07076
 Eigenvectors required to have negative eigenvalues:
                          A15       D5        D15       D17       R5
   1                    0.45898  -0.36159   0.33662  -0.29355   0.27380
                          D14       R15       A17       D18       D21
   1                    0.25458   0.24309   0.24210   0.23370  -0.20305
 RFO step:  Lambda0=7.941967853D-08 Lambda=-3.72854592D-07.
 Linear search not attempted -- option 19 set.
 Variable       Old X    -DE/DX   Delta X   Delta X   Delta X     New X
                                 (Linear)    (Quad)   (Total)
    R2        2.63237   0.00000   0.00000   0.00002   0.00002   2.63239
    R3        3.36742  -0.00001   0.00000   0.00011   0.00011   3.36753
    R4        2.63898  -0.00000   0.00000  -0.00004  -0.00004   2.63895
    R5        2.89542   0.00009   0.00000   0.00005   0.00005   2.89547
    R6        2.04435   0.00000   0.00000   0.00000   0.00000   2.04436
    R7        2.62700  -0.00001   0.00000  -0.00003  -0.00003   2.62697
    R8        2.62243   0.00001   0.00000   0.00004   0.00004   2.62247
    R9        2.04886  -0.00000   0.00000  -0.00001  -0.00001   2.04886
   R10        2.04700   0.00000   0.00000   0.00000   0.00000   2.04700
   R11        2.62847   0.00001   0.00000   0.00003   0.00003   2.62850
   R12        2.04698   0.00000   0.00000  -0.00000  -0.00000   2.04698
   R13        2.04616   0.00000   0.00000   0.00000   0.00000   2.04616
   R14        7.27909  -0.00005   0.00000   0.00090   0.00090   7.27999
   R15        2.61774   0.00007   0.00000  -0.00005  -0.00005   2.61769
   R16        2.04140   0.00001   0.00000   0.00001   0.00001   2.04141
   R17        2.04188   0.00000   0.00000   0.00001   0.00001   2.04189
   R18        2.59707   0.00004   0.00000   0.00016   0.00016   2.59723
   R19        2.04904  -0.00000   0.00000   0.00001   0.00001   2.04905
   R20        2.04475  -0.00000   0.00000   0.00001   0.00001   2.04476
   R21        2.04466  -0.00000   0.00000   0.00000   0.00000   2.04467
    A3        2.11702  -0.00042   0.00000  -0.00018  -0.00018   2.11684
    A4        2.09676  -0.00003   0.00000   0.00003   0.00003   2.09680
    A5        1.85224  -0.00019   0.00000  -0.00021  -0.00021   1.85203
    A6        2.07916   0.00000   0.00000   0.00001   0.00001   2.07916
    A7        2.08771  -0.00002   0.00000  -0.00001  -0.00001   2.08770
    A8        2.09123  -0.00001   0.00000  -0.00002  -0.00002   2.09121
    A9        2.09473  -0.00000   0.00000   0.00001   0.00001   2.09473
   A10        2.08533   0.00000   0.00000   0.00002   0.00002   2.08534
   A11        2.10271  -0.00002   0.00000  -0.00001  -0.00001   2.10270
   A12        2.08766   0.00000   0.00000   0.00001   0.00001   2.08767
   A13        2.09751  -0.00000   0.00000  -0.00002  -0.00002   2.09749
   A14        1.45560   0.00040   0.00000   0.00020   0.00020   1.45580
   A15        1.49128   0.00003   0.00000  -0.00014  -0.00014   1.49114
   A16        2.37016  -0.00002   0.00000   0.00015   0.00015   2.37031
   A17        1.10608  -0.00006   0.00000  -0.00038  -0.00038   1.10570
   A18        2.08451   0.00012   0.00000   0.00015   0.00015   2.08466
   A19        2.07005  -0.00001   0.00000  -0.00008  -0.00008   2.06996
   A20        2.11847  -0.00000   0.00000  -0.00013  -0.00013   2.11834
   A21        2.10863   0.00002   0.00000   0.00008   0.00008   2.10870
    D4        3.11624  -0.00001   0.00000  -0.00006  -0.00006   3.11618
    D5       -0.06500   0.00006   0.00000   0.00050   0.00050  -0.06450
    D6       -0.00052  -0.00000   0.00000   0.00008   0.00008  -0.00044
    D7       -3.12310  -0.00000   0.00000   0.00000   0.00000  -3.12310
    D8        0.00245  -0.00001   0.00000  -0.00006  -0.00006   0.00239
    D9        3.14235   0.00000   0.00000   0.00009   0.00009   3.14244
   D10        3.13931  -0.00000   0.00000   0.00000   0.00000   3.13931
   D11       -3.13317  -0.00000   0.00000   0.00001   0.00001  -3.13316
   D12       -3.13946   0.00000   0.00000   0.00005   0.00005  -3.13941
   D13        3.13706   0.00000   0.00000  -0.00003  -0.00003   3.13703
   D14       -0.57295   0.00016   0.00000   0.00033   0.00033  -0.57261
   D15       -2.73971   0.00006   0.00000  -0.00010  -0.00010  -2.73981
   D16       -2.29570  -0.00003   0.00000  -0.00042  -0.00042  -2.29612
   D17        2.22300   0.00002   0.00000   0.00015   0.00015   2.22315
   D18        0.46896   0.00001   0.00000  -0.00034  -0.00034   0.46862
   D19       -2.80535  -0.00001   0.00000   0.00012   0.00012  -2.80523
   D20       -2.94306  -0.00002   0.00000  -0.00010  -0.00010  -2.94316
   D21       -2.88414   0.00001   0.00000   0.00084   0.00084  -2.88331
         Item               Value     Threshold  Converged?
 Maximum Force            0.000424     0.000450     YES
 RMS     Force            0.000089     0.000300     YES
 Maximum Displacement     0.000896     0.001800     YES
 RMS     Displacement     0.000215     0.001200     YES
 Predicted change in Energy=-1.467174D-07
 Optimization completed.
    -- Stationary point found.
                       ----------------------------
                       !   Optimized Parameters   !
                       ! (Angstroms and Degrees)  !
 ----------------------                            ----------------------
 !      Name          Value   Derivative information (Atomic Units)     !
 ------------------------------------------------------------------------
 !       R2          1.393    -DE/DX =    0.0                           !
 !       R3          1.782    -DE/DX =    0.0                           !
 !       R4          1.3965   -DE/DX =    0.0                           !
 !       R5          1.5322   -DE/DX =    0.0001                        !
 !       R6          1.0818   -DE/DX =    0.0                           !
 !       R7          1.3901   -DE/DX =    0.0                           !
 !       R8          1.3877   -DE/DX =    0.0                           !
 !       R9          1.0842   -DE/DX =    0.0                           !
 !       R10         1.0832   -DE/DX =    0.0                           !
 !       R11         1.3909   -DE/DX =    0.0                           !
 !       R12         1.0832   -DE/DX =    0.0                           !
 !       R13         1.0828   -DE/DX =    0.0                           !
 !       R14         3.8519   -DE/DX =   -0.0001                        !
 !       R15         1.3852   -DE/DX =    0.0001                        !
 !       R16         1.0803   -DE/DX =    0.0                           !
 !       R17         1.0805   -DE/DX =    0.0                           !
 !       R18         1.3743   -DE/DX =    0.0                           !
 !       R19         1.0843   -DE/DX =    0.0                           !
 !       R20         1.082    -DE/DX =    0.0                           !
 !       R21         1.082    -DE/DX =    0.0                           !
 !       A3        121.2964   -DE/DX =   -0.0004                        !
 !       A4        120.1357   -DE/DX =    0.0                           !
 !       A5        106.1255   -DE/DX =   -0.0002                        !
 !       A6        119.127    -DE/DX =    0.0                           !
 !       A7        119.6171   -DE/DX =    0.0                           !
 !       A8        119.8184   -DE/DX =    0.0                           !
 !       A9        120.019    -DE/DX =    0.0                           !
 !       A10       119.4805   -DE/DX =    0.0                           !
 !       A11       120.4764   -DE/DX =    0.0                           !
 !       A12       119.6141   -DE/DX =    0.0                           !
 !       A13       120.1783   -DE/DX =    0.0                           !
 !       A14        83.3996   -DE/DX =    0.0004                        !
 !       A15        85.4441   -DE/DX =    0.0                           !
 !       A16       135.8003   -DE/DX =    0.0                           !
 !       A17        63.374    -DE/DX =   -0.0001                        !
 !       A18       119.4334   -DE/DX =    0.0001                        !
 !       A19       118.605    -DE/DX =    0.0                           !
 !       A20       121.3795   -DE/DX =    0.0                           !
 !       A21       120.8153   -DE/DX =    0.0                           !
 !       D4        178.5472   -DE/DX =    0.0                           !
 !       D5         -3.7242   -DE/DX =    0.0001                        !
 !       D6         -0.0299   -DE/DX =    0.0                           !
 !       D7       -178.9407   -DE/DX =    0.0                           !
 !       D8          0.1403   -DE/DX =    0.0                           !
 !       D9        180.0432   -DE/DX =    0.0                           !
 !       D10       179.8692   -DE/DX =    0.0                           !
 !       D11      -179.5174   -DE/DX =    0.0                           !
 !       D12      -179.878    -DE/DX =    0.0                           !
 !       D13       179.7405   -DE/DX =    0.0                           !
 !       D14       -32.8275   -DE/DX =    0.0002                        !
 !       D15      -156.9739   -DE/DX =    0.0001                        !
 !       D16      -131.5339   -DE/DX =    0.0                           !
 !       D17       127.3684   -DE/DX =    0.0                           !
 !       D18        26.8692   -DE/DX =    0.0                           !
 !       D19      -160.7347   -DE/DX =    0.0                           !
 !       D20      -168.6247   -DE/DX =    0.0                           !
 !       D21      -165.2493   -DE/DX =    0.0                           !
 ------------------------------------------------------------------------
 GradGradGradGradGradGradGradGradGradGradGradGradGradGradGradGradGradGrad

 ---------------------------------------------------------------------------------------------------
                            Z-MATRIX (ANGSTROMS AND DEGREES)
   CD    Cent   Atom    N1       Length/X        N2       Alpha/Y        N3        Beta/Z          J
 ---------------------------------------------------------------------------------------------------
      1      1  C 
      2      2  C        1   1.392990(     1)
      3      3  S        1   1.781963(     2)      2  121.296(    21)
      4      4  C        1   1.396490(     3)      2  120.136(    22)      3  178.547(    40)      0
      5      5  O        3   1.532188(     4)      1  106.126(    23)      2   -3.724(    41)      0
      6      6  H        2   1.081826(     5)      1  119.127(    24)      3   -0.030(    42)      0
      7      7  C        2   1.390149(     6)      1  119.617(    25)      6 -178.941(    43)      0
      8      8  C        4   1.387730(     7)      1  119.818(    26)      2    0.140(    44)      0
      9      9  H        4   1.084212(     8)      1  120.019(    27)      8  180.043(    45)      0
     10     10  H        7   1.083225(     9)      2  119.480(    28)      1  179.869(    46)      0
     11     11  C        7   1.390926(    10)      2  120.476(    29)     10 -179.517(    47)      0
     12     12  H        8   1.083218(    11)      4  119.614(    30)      1 -179.878(    48)      0
     13     13  H       11   1.082779(    12)      7  120.178(    31)      2  179.741(    49)      0
     14     14  C        1   3.851929(    13)      2   83.400(    32)      3  -32.827(    50)      0
     15     15  C       14   1.385248(    14)      1   85.444(    33)      2 -156.974(    51)      0
     16     16  H       14   1.080262(    15)      1  135.800(    34)     15 -131.534(    52)      0
     17     17  H       14   1.080516(    16)      1   63.374(    35)     15  127.368(    53)      0
     18     18  C       15   1.374310(    17)     14  119.433(    36)      1   26.869(    54)      0
     19     19  H       15   1.084308(    18)     14  118.605(    37)     18 -160.735(    55)      0
     20     20  H       18   1.082035(    19)     15  121.380(    38)     14 -168.625(    56)      0
     21     21  H       18   1.081990(    20)     15  120.815(    39)     20 -165.249(    57)      0
 ---------------------------------------------------------------------------------------------------
                         Z-Matrix orientation:                         
 ---------------------------------------------------------------------
 Center     Atomic      Atomic             Coordinates (Angstroms)
 Number     Number       Type             X           Y           Z
 ---------------------------------------------------------------------
      1          6           0        0.000000    0.000000    0.000000
      2          6           0        0.000000    0.000000    1.392990
      3         16           0        1.522672    0.000000   -0.925667
      4          6           0       -1.207350   -0.030621   -0.701108
      5          8           0        2.649293    0.095606    0.108347
      6          1           0        0.945021   -0.000494    1.919566
      7          6           0       -1.208328   -0.021711    2.080003
      8          6           0       -2.408289   -0.058130   -0.006284
      9          1           0       -1.205067   -0.033570   -1.785313
     10          1           0       -1.205709   -0.023818    3.163223
     11          6           0       -2.413700   -0.050730    1.386526
     12          1           0       -3.342803   -0.083846   -0.553444
     13          1           0       -3.351971   -0.071794    1.926541
     14          6           0        3.215349    2.074333    0.442757
     15          6           0        2.953439    2.548142   -0.832320
     16          1           0        4.225882    1.876376    0.769256
     17          1           0        2.471319    2.162212    1.221352
     18          6           0        1.657427    2.578404   -1.288569
     19          1           0        3.766105    2.586008   -1.549162
     20          1           0        1.430895    2.766763   -2.329724
     21          1           0        0.828100    2.651655   -0.597517
 ---------------------------------------------------------------------
                    Distance matrix (angstroms):
                    1          2          3          4          5
     1  C    0.000000
     2  C    1.392990   0.000000
     3  S    1.781963   2.773933   0.000000
     4  C    1.396490   2.417411   2.739413   0.000000
     5  O    2.653230   2.945879   1.532188   3.942695   0.000000
     6  H    2.139579   1.081826   2.903279   3.391392   2.488833
     7  C    2.405606   1.390149   4.061144   2.781125   4.333870
     8  C    2.408999   2.785894   4.037463   1.387730   5.061216
     9  H    2.154218   3.399254   2.860189   1.084212   4.296362
    10  H    3.385304   2.141968   4.915654   3.864337   4.920119
    11  C    2.784058   2.414242   4.565505   2.411203   5.223893
    12  H    3.389345   3.869104   4.880413   2.141214   6.031201
    13  H    3.866836   3.394928   5.648220   3.391995   6.272879
    14  C    3.851929   3.942622   3.006758   5.029863   2.085092
    15  C    3.988557   4.490861   2.923839   4.896876   2.644294
    16  H    4.687283   4.665609   3.701472   5.942946   2.468517
    17  H    3.503467   3.288166   3.191361   4.694355   2.354000
    18  C    3.325002   4.072590   2.607301   3.919064   3.016530
    19  H    4.823991   5.433898   3.479824   5.683414   3.193228
    20  H    3.889737   4.853971   3.103993   4.175893   3.816250
    21  H    2.841487   3.417476   2.760686   3.368737   3.216889
                    6          7          8          9         10
     6  H    0.000000
     7  C    2.159422   0.000000
     8  C    3.867416   2.407037   0.000000
     9  H    4.283702   3.865336   2.147858   0.000000
    10  H    2.484526   1.083225   3.390155   4.948546   0.000000
    11  C    3.401127   1.390926   1.392840   3.394356   2.148632
    12  H    4.950571   3.390411   1.083218   2.467782   4.287701
    13  H    4.297589   2.149712   2.150937   4.288183   2.477524
    14  C    3.411782   5.161676   6.031114   5.380300   5.599011
    15  C    4.254663   5.692634   6.018565   4.986643   6.314891
    16  H    3.950937   5.903510   6.953848   6.298327   6.232495
    17  H    2.737587   4.364242   5.499781   5.232333   4.697885
    18  C    4.177363   5.130344   5.012546   3.906793   5.898097
    19  H    5.165325   6.687005   6.891668   5.624101   7.330532
    20  H    5.094138   5.846946   5.302616   3.884140   6.701603
    21  H    3.658315   4.296864   4.262242   3.571423   5.043580
                   11         12         13         14         15
    11  C    0.000000
    12  H    2.151234   0.000000
    13  H    1.082779   2.480030   0.000000
    14  C    6.090385   6.975637   7.066623   0.000000
    15  C    6.362672   6.829920   7.364345   1.385248   0.000000
    16  H    6.941096   7.929502   7.909395   1.080262   2.153003
    17  H    5.365427   6.480640   6.276844   1.080516   2.144516
    18  C    5.535571   5.712292   6.515715   2.383001   1.374310
    19  H    7.332165   7.658731   8.355323   2.129057   1.084308
    20  H    6.043980   5.836895   7.003499   3.369033   2.146662
    21  H    4.663537   4.988120   5.591157   2.667289   2.140775
                   16         17         18         19         20
    16  H    0.000000
    17  H    1.834281   0.000000
    18  C    3.365182   2.671206   0.000000
    19  H    2.467800   3.087366   2.124733   0.000000
    20  H    4.267132   3.749414   1.082035   2.468837   0.000000
    21  H    3.743535   2.499602   1.081990   3.088983   1.837703
                   21
    21  H    0.000000
 Symmetry turned off by external request.
 Stoichiometry    C9H10OS
 Framework group  C1[X(C9H10OS)]
 Deg. of freedom    57
 Full point group                 C1      NOp   1
 Rotational constants (GHZ):           2.0071654           0.5915805           0.5628705
 1\1\GINC-BHC0021\FTS\RB3LYP\def2TZVP\C9H10O1S1\DHANAWAY\10-Jun-2022\1\
 \# Opt=(TS, CalcFC, noeigentest, Z-matrix, MaxStep=10) Field=read NoSy
 mm B3LYP/Def2TZVP freq=noraman pop=none\\ts_zmat_initalOpt\\0,1\C\C,1,
 R2\S,1,R3,2,A3\C,1,R4,2,A4,3,D4,0\O,3,R5,1,A5,2,D5,0\H,2,R6,1,A6,3,D6,
 0\C,2,R7,1,A7,6,D7,0\C,4,R8,1,A8,2,D8,0\H,4,R9,1,A9,8,D9,0\H,7,R10,2,A
 10,1,D10,0\C,7,R11,2,A11,10,D11,0\H,8,R12,4,A12,1,D12,0\H,11,R13,7,A13
 ,2,D13,0\C,1,R14,2,A14,3,D14,0\C,14,R15,1,A15,2,D15,0\H,14,R16,1,A16,1
 5,D16,0\H,14,R17,1,A17,15,D17,0\C,15,R18,14,A18,1,D18,0\H,15,R19,14,A1
 9,18,D19,0\H,18,R20,15,A20,14,D20,0\H,18,R21,15,A21,20,D21,0\\R2=1.392
 99017\R3=1.78196252\R4=1.39648961\R5=1.53218788\R6=1.08182585\R7=1.390
 14939\R8=1.38772964\R9=1.08421183\R10=1.08322512\R11=1.39092588\R12=1.
 08321779\R13=1.0827792\R14=3.85192904\R15=1.38524757\R16=1.08026208\R1
 7=1.08051589\R18=1.37430999\R19=1.08430779\R20=1.08203513\R21=1.081989
 59\A3=121.29637439\A4=120.13573405\A5=106.12551603\A6=119.1269877\A7=1
 19.61706421\A8=119.81836699\A9=120.01895611\A10=119.48048415\A11=120.4
 7640606\A12=119.61411\A13=120.1783061\A14=83.39959765\A15=85.44406809\
 A16=135.80033052\A17=63.37395869\A18=119.43337205\A19=118.60495142\A20
 =121.37951321\A21=120.81531497\D4=178.54717864\D5=-3.72421092\D6=-0.02
 994524\D7=-178.94066784\D8=0.14027485\D9=180.04321114\D10=179.86917516
 \D11=-179.51743891\D12=-179.87801047\D13=179.74050018\D14=-32.82746144
 \D15=-156.97386057\D16=-131.53394018\D17=127.36838965\D18=26.8691636\D
 19=-160.73469543\D20=-168.6247094\D21=-165.24927682\\Version=ES64L-G16
 RevA.03\HF=-822.500809\RMSD=9.909e-09\RMSF=9.931e-05\Dipole=-0.1796723
 ,0.5779244,-0.1431218\PG=C01 [X(C9H10O1S1)]\\@


 DO NOT LET SELFISH MEN OR GREEDY INTERESTS SKIN YOUR COUNTRY OF ITS
 BEAUTY, ITS RICHES, OR ITS ROMANCE. -- THEODORE ROOSEVELT
 Job cpu time:       0 days  3 hours 47 minutes 55.4 seconds.
 Elapsed time:       0 days  0 hours 19 minutes  0.4 seconds.
 File lengths (MBytes):  RWF=    289 Int=      0 D2E=      0 Chk=     32 Scr=      1
 Normal termination of Gaussian 16 at Fri Jun 10 11:49:07 2022.
 Link1:  Proceeding to internal job step number  2.
 --------------------------------------------------------------------
 #N Geom=AllCheck Guess=TCheck SCRF=Check GenChk RB3LYP/def2TZVP Freq
 --------------------------------------------------------------------
 1/5=1,8=10,10=4,11=1,29=7,30=1,38=1,40=1/1,3;
 2/12=2,15=1,40=1/2;
 3/5=44,7=101,11=2,14=-4,25=1,30=1,70=2,71=2,74=-5,116=1,140=1/1,2,3;
 4/5=101/1;
 5/5=2,38=6,98=1/2;
 8/6=4,10=90,11=11/1;
 11/6=1,8=1,9=11,15=111,16=1,31=1/1,2,10;
 10/6=1,31=1/2;
 7/8=1,10=1,25=1,30=1/1,2,3,16;
 1/5=1,8=10,10=4,11=1,30=1/3;
 99//99;
 Structure from the checkpoint file:  "checkpoint.chk"
 -----------------
 ts_zmat_initalOpt
 -----------------
 Charge =  0 Multiplicity = 1
 Z-Matrix found in chk file.
 C
 C,1,R2
 S,1,R3,2,A3
 C,1,R4,2,A4,3,D4,0
 O,3,R5,1,A5,2,D5,0
 H,2,R6,1,A6,3,D6,0
 C,2,R7,1,A7,6,D7,0
 C,4,R8,1,A8,2,D8,0
 H,4,R9,1,A9,8,D9,0
 H,7,R10,2,A10,1,D10,0
 C,7,R11,2,A11,10,D11,0
 H,8,R12,4,A12,1,D12,0
 H,11,R13,7,A13,2,D13,0
 C,1,R14,2,A14,3,D14,0
 C,14,R15,1,A15,2,D15,0
 H,14,R16,1,A16,15,D16,0
 H,14,R17,1,A17,15,D17,0
 C,15,R18,14,A18,1,D18,0
 H,15,R19,14,A19,18,D19,0
 H,18,R20,15,A20,14,D20,0
 H,18,R21,15,A21,20,D21,0
      Variables:
 R2=1.39299017
 R3=1.78196252
 R4=1.39648961
 R5=1.53218788
 R6=1.08182585
 R7=1.39014939
 R8=1.38772964
 R9=1.08421183
 R10=1.08322512
 R11=1.39092588
 R12=1.08321779
 R13=1.0827792
 R14=3.85192904
 R15=1.38524757
 R16=1.08026208
 R17=1.08051589
 R18=1.37430999
 R19=1.08430779
 R20=1.08203513
 R21=1.08198959
 A3=121.29637439
 A4=120.13573405
 A5=106.12551603
 A6=119.1269877
 A7=119.61706421
 A8=119.81836699
 A9=120.01895611
 A10=119.48048415
 A11=120.47640606
 A12=119.61411
 A13=120.1783061
 A14=83.39959765
 A15=85.44406809
 A16=135.80033052
 A17=63.37395869
 A18=119.43337205
 A19=118.60495142
 A20=121.37951321
 A21=120.81531497
 D4=178.54717864
 D5=-3.72421092
 D6=-0.02994524
 D7=-178.94066784
 D8=0.14027485
 D9=180.04321114
 D10=179.86917516
 D11=-179.51743891
 D12=-179.87801047
 D13=179.74050018
 D14=-32.82746144
 D15=-156.97386057
 D16=-131.53394018
 D17=127.36838965
 D18=26.8691636
 D19=-160.73469543
 D20=-168.6247094
 D21=-165.24927682
 Recover connectivity data from disk.

 GradGradGradGradGradGradGradGradGradGradGradGradGradGradGradGradGradGrad
 Berny optimization.
 Initialization pass.
                       ----------------------------
                       !    Initial Parameters    !
                       ! (Angstroms and Degrees)  !
 ----------------------                            ----------------------
 !      Name          Value   Derivative information (Atomic Units)     !
 ------------------------------------------------------------------------
 !       R2          1.393    calculate D2E/DX2 analytically            !
 !       R3          1.782    calculate D2E/DX2 analytically            !
 !       R4          1.3965   calculate D2E/DX2 analytically            !
 !       R5          1.5322   calculate D2E/DX2 analytically            !
 !       R6          1.0818   calculate D2E/DX2 analytically            !
 !       R7          1.3901   calculate D2E/DX2 analytically            !
 !       R8          1.3877   calculate D2E/DX2 analytically            !
 !       R9          1.0842   calculate D2E/DX2 analytically            !
 !       R10         1.0832   calculate D2E/DX2 analytically            !
 !       R11         1.3909   calculate D2E/DX2 analytically            !
 !       R12         1.0832   calculate D2E/DX2 analytically            !
 !       R13         1.0828   calculate D2E/DX2 analytically            !
 !       R14         3.8519   calculate D2E/DX2 analytically            !
 !       R15         1.3852   calculate D2E/DX2 analytically            !
 !       R16         1.0803   calculate D2E/DX2 analytically            !
 !       R17         1.0805   calculate D2E/DX2 analytically            !
 !       R18         1.3743   calculate D2E/DX2 analytically            !
 !       R19         1.0843   calculate D2E/DX2 analytically            !
 !       R20         1.082    calculate D2E/DX2 analytically            !
 !       R21         1.082    calculate D2E/DX2 analytically            !
 !       A3        121.2964   calculate D2E/DX2 analytically            !
 !       A4        120.1357   calculate D2E/DX2 analytically            !
 !       A5        106.1255   calculate D2E/DX2 analytically            !
 !       A6        119.127    calculate D2E/DX2 analytically            !
 !       A7        119.6171   calculate D2E/DX2 analytically            !
 !       A8        119.8184   calculate D2E/DX2 analytically            !
 !       A9        120.019    calculate D2E/DX2 analytically            !
 !       A10       119.4805   calculate D2E/DX2 analytically            !
 !       A11       120.4764   calculate D2E/DX2 analytically            !
 !       A12       119.6141   calculate D2E/DX2 analytically            !
 !       A13       120.1783   calculate D2E/DX2 analytically            !
 !       A14        83.3996   calculate D2E/DX2 analytically            !
 !       A15        85.4441   calculate D2E/DX2 analytically            !
 !       A16       135.8003   calculate D2E/DX2 analytically            !
 !       A17        63.374    calculate D2E/DX2 analytically            !
 !       A18       119.4334   calculate D2E/DX2 analytically            !
 !       A19       118.605    calculate D2E/DX2 analytically            !
 !       A20       121.3795   calculate D2E/DX2 analytically            !
 !       A21       120.8153   calculate D2E/DX2 analytically            !
 !       D4        178.5472   calculate D2E/DX2 analytically            !
 !       D5         -3.7242   calculate D2E/DX2 analytically            !
 !       D6         -0.0299   calculate D2E/DX2 analytically            !
 !       D7       -178.9407   calculate D2E/DX2 analytically            !
 !       D8          0.1403   calculate D2E/DX2 analytically            !
 !       D9        180.0432   calculate D2E/DX2 analytically            !
 !       D10       179.8692   calculate D2E/DX2 analytically            !
 !       D11      -179.5174   calculate D2E/DX2 analytically            !
 !       D12      -179.878    calculate D2E/DX2 analytically            !
 !       D13       179.7405   calculate D2E/DX2 analytically            !
 !       D14       -32.8275   calculate D2E/DX2 analytically            !
 !       D15      -156.9739   calculate D2E/DX2 analytically            !
 !       D16      -131.5339   calculate D2E/DX2 analytically            !
 !       D17       127.3684   calculate D2E/DX2 analytically            !
 !       D18        26.8692   calculate D2E/DX2 analytically            !
 !       D19      -160.7347   calculate D2E/DX2 analytically            !
 !       D20      -168.6247   calculate D2E/DX2 analytically            !
 !       D21      -165.2493   calculate D2E/DX2 analytically            !
 ------------------------------------------------------------------------
 Trust Radius=1.00D-01 FncErr=1.00D-07 GrdErr=1.00D-07 EigMax=2.50D+02 EigMin=1.00D-04
 Number of steps in this run=      2 maximum allowed number of steps=      2.
[...]
 0.03538012,0.00071338,-0.00036100,0.00758428,0.00004254,0.00003824,-0.
 00129409,0.00000780,0.00074428,0.02512347,0.00307182,0.00006338,0.0003
 4346,-0.00166024,0.00002685,-0.01217952,-0.00039379,0.00007565,-0.0005
 6202,0.00008440,0.00000362,0.00072129,0.00004875,-0.00005712,0.0002019
 4,0.00012043,-0.00000348,0.00086774,-0.00108677,0.00052061,-0.33365766
 ,-0.00328344,-0.00004425,0.00065496,0.00000106,-0.00000417,-0.00006703
 ,0.00071879,-0.00060430,0.35532228,-0.01444676,-0.00026796,-0.03158775
 ,-0.05993266,-0.00120895,0.02462756,-0.00251691,-0.00042081,0.00152106
 ,0.03006291,0.00066432,0.02930161,0.00076764,0.00039025,0.00109751,-0.
 00243092,-0.00016048,0.00326035,-0.27746321,-0.00536109,-0.11944014,-0
 .12779769,-0.00193057,0.03254377,-0.00448091,-0.00020895,0.00319468,0.
 00470006,-0.00010869,0.00246006,0.71569116,-0.00027432,-0.00602314,-0.
 00084191,-0.00144918,0.00630367,0.00053424,-0.00004645,-0.00077392,-0.
 00005575,0.00064467,0.00558210,0.00063961,0.00011441,0.00009384,0.0000
 7789,-0.00004531,0.00727969,0.00013902,-0.00573386,-0.05703441,-0.0029
 4757,-0.00180650,-0.05591519,-0.00082830,-0.00029708,0.00767294,0.0000
 5538,0.00016455,0.00175810,0.00008539,0.01400171,0.12175727,-0.0326013
 5,-0.00063864,-0.05040204,-0.02320030,-0.00101248,0.06276490,0.0019679
 3,0.00014511,-0.00216976,0.07779553,0.00205466,-0.02850732,0.00048014,
 0.00040539,0.00093377,0.00371722,0.00032955,-0.00097827,-0.05429450,-0
 .00122362,-0.17920811,-0.03253365,-0.00279276,-0.32389534,0.00212607,0
 .00021570,0.00092521,-0.02854803,-0.00082698,-0.01185282,-0.03619562,0
 .00139566,0.67067669,-0.00345149,-0.00030127,0.00387928,0.00017507,0.0
 0002481,0.00086253,0.00041850,-0.00015787,-0.00101999,-0.01983421,-0.0
 0052732,-0.01570190,-0.00079790,0.00003214,-0.00003888,-0.00004182,0.0
 0002126,-0.00005979,0.00175461,-0.00012376,0.00036608,-0.26292109,-0.0
 0626507,-0.11932254,0.00108771,0.00013915,0.00017145,0.00001560,-0.000
 01362,0.00021225,0.00355465,0.00009546,0.00183686,0.27926016,-0.000199
 34,0.00779910,0.00009306,0.00000606,-0.00078051,0.00002020,0.00000657,
 0.00039924,-0.00003194,-0.00054255,0.00159123,-0.00025680,0.00011194,-
 0.00026006,0.00000083,0.00000984,-0.00113812,-0.00001788,-0.00001366,0
 .00742816,-0.00004084,-0.00630941,-0.03404822,-0.00342244,0.00012372,-
 0.00385968,0.00003332,-0.00002286,0.00021446,-0.00000249,-0.00012476,0
 .00122057,-0.00014261,0.00691743,0.02479608,0.00345884,0.00003797,-0.0
 0062828,0.00085946,0.00004038,-0.00072562,0.00002256,0.00002798,0.0005
 0614,0.01483321,0.00035755,0.01125555,0.00045903,0.00000797,0.00005057
 ,-0.00004937,0.00000430,0.00007017,0.00134144,-0.00002766,-0.00574367,
 -0.11949612,-0.00340504,-0.12962802,-0.00054626,0.00000443,0.00095759,
 -0.00141042,-0.00003192,-0.00066120,-0.02921364,-0.00081640,-0.0105935
 2,0.12927507,0.00374912,0.13406478,0.00020729,0.00003144,-0.00094055,-
 0.00316446,-0.00022448,-0.00414226,-0.00001039,-0.00002948,-0.00013701
 ,0.00178106,-0.00015963,-0.00029076,-0.00007583,0.00000395,0.00021695,
 -0.00080664,-0.00003787,0.00082863,-0.01920204,-0.00048296,0.01646124,
 0.00325033,0.00004783,-0.00187239,0.00001114,0.00000098,-0.00019250,0.
 00102629,0.00010383,-0.00032122,-0.26561150,-0.00530076,0.11865397,0.0
 0077519,0.00010968,0.00050099,0.28178497,0.00004405,-0.00125335,-0.000
 04591,-0.00019615,0.00759972,-0.00017641,-0.00001731,-0.00044629,-0.00
 007438,-0.00030389,0.00742384,-0.00004135,0.00003733,-0.00023502,0.000
 10410,0.00000074,0.00026451,0.00006334,-0.00051197,0.00078162,0.000467
 27,0.00029953,0.00053212,-0.00025079,0.00001037,0.00021733,-0.00000080
 ,0.00009597,-0.00354582,-0.00002707,-0.00537286,-0.03175944,0.00264743
 ,0.00008747,-0.00338020,0.00004755,0.00586739,0.02380875,-0.00093351,-
 0.00001521,-0.00088373,-0.00317031,-0.00006643,-0.00077095,-0.00018963
 ,0.00004504,0.00006475,-0.00118400,-0.00011298,-0.00561950,0.00011490,
 -0.00002216,0.00012429,-0.00067216,-0.00000969,0.00037280,-0.01474930,
 -0.00036378,0.01179676,0.02934269,0.00069084,-0.01070685,0.00138080,0.
 00004125,-0.00064747,0.00061267,0.00001904,0.00087057,0.11868150,0.002
 54027,-0.12795197,-0.00048004,0.00000790,0.00111460,-0.12877090,-0.002
 74010,0.13223246,0.00161863,-0.00285042,-0.00010614,-0.00019333,0.0005
 7670,-0.00043427,-0.01488232,-0.01167874,-0.01444097,-0.00058161,0.000
 31997,0.00020287,-0.00454718,0.02445791,0.00899680,-0.00017434,-0.0005
 7702,0.00029580,-0.00053562,0.00021605,0.00012932,0.00042938,0.0003255
 6,-0.00016892,0.00005309,-0.00013008,0.00003773,-0.00005636,-0.0000198
 2,0.00005891,-0.00000418,-0.00006911,0.00053197,-0.00002074,-0.0000390
 1,-0.00001055,0.00001743,-0.00003690,0.00002852,0.65199113,0.00528275,
 -0.00050329,0.00203668,-0.00140482,0.00030586,0.00006330,-0.03841115,-
 0.02477237,-0.03088191,0.00081231,0.00052908,-0.00067686,0.04199865,0.
 03385347,0.03177527,-0.00070258,-0.00014587,0.00071277,0.00012735,0.00
 029699,-0.00010583,0.00048153,-0.00040510,0.00105990,-0.00002112,0.000
 18415,0.00005003,-0.00003093,0.00002588,0.00006542,-0.00073080,-0.0001
 0475,0.00010050,0.00004868,-0.00000321,-0.00007247,0.00001889,0.000049
 12,0.00001410,-0.11892071,0.11515220,-0.00416493,0.00345479,0.00152144
 ,0.00075172,-0.00087471,-0.00065866,0.00651613,0.00700624,0.00153490,0
 .00108689,-0.00040015,0.00013879,-0.00866879,-0.00840465,-0.02263809,0
 .00000767,0.00067934,-0.00022678,-0.00015532,-0.00049148,-0.00016296,-
 0.00049653,0.00005736,0.00037578,-0.00008621,-0.00009094,-0.00003237,0
 .00007896,0.00003552,-0.00008818,0.00030324,0.00010507,-0.00044049,0.0
 0002901,0.00001622,0.00000586,-0.00001147,-0.00001037,-0.00002558,0.00
 501869,-0.09784078,0.67752969,0.00472774,-0.00164450,-0.00076039,-0.00
 074642,0.00033902,0.00086869,-0.01835218,-0.03237118,-0.00827300,-0.00
 052335,0.00055468,-0.00032811,0.01575066,0.02730559,0.00916487,-0.0002
 3898,-0.00004644,0.00022899,0.00033973,0.00028898,-0.00019440,0.000513
 23,-0.00017730,0.00001623,-0.00001842,0.00005925,-0.00002056,-0.000027
 83,0.00000387,0.00006845,-0.00056254,-0.00004875,0.00032434,-0.0000193
 2,-0.00001747,-0.00004282,-0.00001896,0.00001517,0.00001514,-0.1173440
 1,-0.00400798,-0.01578482,0.70506338,-0.00021347,-0.00088639,0.0003578
 7,-0.00012434,-0.00004517,0.00004766,-0.00097537,-0.01211075,0.0085713
 2,-0.00030921,-0.00020967,0.00031494,-0.01587632,-0.03210713,-0.003290
 88,0.00006215,-0.00013678,-0.00015448,-0.00013436,0.00020291,0.0000439
 6,0.00011803,-0.00009022,-0.00027505,0.00007437,0.00011694,-0.00000117
 ,-0.00002626,-0.00001246,0.00003127,0.00004386,0.00002444,0.00019497,-
 0.00004605,-0.00002233,-0.00000023,-0.00002635,-0.00000945,0.00001441,
 0.03013360,-0.06819237,0.09335599,-0.02247758,0.18628174,0.00725040,-0
 .00229632,-0.00189416,-0.00146537,0.00097068,0.00129890,-0.02846162,-0
 .02969492,-0.01206393,-0.00163498,0.00072676,-0.00022990,0.02454891,0.
 03958029,0.01773363,-0.00014980,-0.00051785,0.00029803,0.00027134,0.00
 053807,-0.00015620,0.00083065,-0.00013548,-0.00011365,0.00010408,0.000
 02515,-0.00000890,-0.00010067,-0.00003023,0.00017100,-0.00100707,-0.00
 013501,0.00081639,-0.00009242,-0.00002765,-0.00005850,-0.00002900,-0.0
 0001160,0.00004652,-0.04843992,0.06475974,-0.33374739,-0.02296641,-0.1
 2234119,0.65082883,0.00024750,-0.00012399,0.00003917,0.00005585,-0.000
 01856,0.00003745,0.00010527,0.00013290,0.00019897,-0.00001166,0.000007
 55,-0.00004008,-0.00030773,-0.00031120,0.00000751,-0.00007096,0.000055
 30,-0.00005106,-0.00000962,-0.00001158,-0.00002269,0.00002468,0.000016
 30,-0.00003190,-0.00000459,-0.00000128,-0.00000341,-0.00000355,0.00000
 493,0.00000097,0.00002590,0.00000597,0.00002140,0.00000370,-0.00000091
 ,-0.00000321,-0.00000412,-0.00000146,0.00000018,-0.31410612,0.05537437
 ,-0.08034877,0.00034583,0.00024444,0.00194228,0.32510845,0.00072470,-0
 .00073866,-0.00056950,0.00019021,0.00028113,0.00005917,-0.00148783,-0.
 00224305,-0.00052469,-0.00045391,0.00011701,0.00006370,-0.00796555,0.0
 0039401,-0.00325152,-0.00000733,-0.00011937,-0.00001814,-0.00022587,0.
 00004818,0.00002932,0.00016318,0.00012984,-0.00027241,0.00001067,-0.00
 007554,-0.00000207,-0.00001476,0.00000460,0.00001148,0.00008140,-0.000
 01769,0.00025714,-0.00001408,-0.00001081,-0.00000115,0.00000017,-0.000
 02294,0.00000872,0.05367970,-0.04637916,0.01983786,0.01341145,0.004175
 62,0.00181848,-0.05927980,0.04141676,0.00030698,-0.00014645,-0.0001601
 7,0.00002186,0.00017985,-0.00000268,-0.00038102,-0.00029069,-0.0005510
 0,-0.00016982,-0.00000335,-0.00001543,-0.00153163,-0.00012596,-0.00056
 971,0.00006102,-0.00013231,0.00005585,-0.00011168,0.00003753,0.0000498
 3,0.00009671,0.00002913,-0.00008809,0.00001319,-0.00001750,0.00001443,
 -0.00000257,-0.00000540,0.00000384,0.00002088,-0.00001147,0.00010923,0
 .00000017,0.00000480,-0.00000087,0.00000639,-0.00000966,0.00000455,-0.
 07546424,0.02178237,-0.08051900,-0.02760379,0.00377909,-0.00354173,0.0
 8614142,-0.02327945,0.07969671,-0.00005086,0.00029403,0.00000456,-0.00
 009113,-0.00008399,0.00012456,0.00112686,0.00016876,0.00038011,-0.0000
 1308,-0.00003849,0.00000520,0.00047611,-0.00480183,-0.00411795,0.00000
 069,-0.00020008,0.00000946,-0.00002887,-0.00003595,0.00005063,0.000018
 55,-0.00001213,-0.00000051,0.00000683,-0.00000632,0.00000442,0.0000064
 8,0.00001786,-0.00001042,-0.00002267,0.00000716,0.00001240,0.00000125,
 -0.00000443,0.00000185,0.00000967,-0.00000153,-0.00000108,-0.19700281,
 0.02369204,0.14274881,0.00741550,-0.00135464,-0.00207048,-0.01331826,0
 .00174922,0.02004925,0.20019100,-0.00050068,0.00091581,-0.00008808,-0.
 00064524,-0.00016600,-0.00025364,0.00282455,0.00102158,0.00186585,-0.0
 0002622,-0.00017982,0.00014067,-0.00065956,-0.01370426,-0.00922801,-0.
 00017509,-0.00036444,0.00021309,0.00028852,-0.00008943,0.00011775,0.00
 002427,-0.00002338,0.00009194,0.00003111,-0.00000315,0.00001997,-0.000
 01383,0.00001504,-0.00000460,-0.00013047,-0.00002256,-0.00007664,-0.00
 000051,0.00001200,0.00001007,0.00003485,0.00001650,0.00000457,0.023093
 15,-0.02861913,-0.01800679,-0.00515386,0.00287743,0.01633381,0.0034353
 9,0.00333370,-0.00316346,-0.01995190,0.03398236,-0.00015074,0.00024150
 ,0.00002610,0.00003064,0.00000329,-0.00010923,0.00043454,-0.00059352,-
 0.00016137,-0.00009884,-0.00001928,-0.00004082,-0.00074916,-0.00243038
 ,-0.00082113,0.00010405,0.00009701,0.00016245,-0.00003617,0.00002160,0
 .00002230,0.00004532,-0.00002089,-0.00003753,0.00000238,-0.00000797,0.
 00000160,0.00001688,-0.00000956,-0.00000842,-0.00000181,0.00000413,0.0
 0004474,0.00000434,0.00000734,-0.00000240,0.00000547,-0.00000126,0.000
 00008,0.14139119,-0.00973771,-0.20218685,0.02303935,-0.00243661,-0.015
 78576,-0.00701247,0.00204581,0.00918343,-0.15453546,0.01123505,0.21119
 400,-0.00479828,-0.00186669,0.00229873,0.00103167,-0.00051397,-0.00111
 068,0.00837173,0.01841934,0.01180867,0.00027943,-0.00077789,0.00033420
 ,-0.02033684,-0.02362378,-0.01767055,0.00012949,-0.00000659,-0.0001194
 2,-0.00082210,0.00011765,0.00016585,-0.00006803,0.00002667,-0.00019315
 ,-0.00001264,0.00012282,0.00004383,0.00005129,0.00001322,-0.00008691,0
 .00057095,0.00008196,0.00011383,0.00006463,0.00000485,0.00001254,0.000
 03657,-0.00001809,-0.00001459,-0.00841962,0.03738614,-0.04155961,-0.36
 545602,0.00899063,-0.05519719,0.00099686,0.00005820,0.00016228,-0.0000
 6405,-0.00439075,0.00063287,0.69631292,-0.00692033,0.00091272,0.002467
 67,0.00143508,-0.00018940,-0.00198465,0.02101374,0.01907823,0.00885523
 ,0.00256605,-0.00031698,-0.00000846,-0.01373863,-0.02009310,-0.0083707
 6,0.00013697,0.00023406,-0.00024556,-0.00051621,-0.00027713,0.00035416
 ,-0.00110293,0.00020597,0.00062399,-0.00004434,-0.00010261,0.00004218,
 0.00006492,0.00000665,-0.00012555,0.00107839,0.00005550,-0.00099994,0.
 00008448,0.00004524,0.00005276,0.00001855,-0.00004676,-0.00002769,0.00
 996850,0.01800777,-0.00903587,0.03276356,-0.04926118,0.02987001,0.0015
 1514,0.00370269,0.00260718,-0.00156396,-0.00474506,-0.00077802,-0.0722
 4049,0.09897057,0.00000939,0.00310885,0.00036436,0.00044775,0.00007222
 ,-0.00032132,0.00567213,-0.00803226,-0.00507814,0.00040756,-0.00011052
 ,-0.00006156,-0.01189890,-0.00032021,-0.00734574,-0.00012500,0.0002728
 1,0.00001095,-0.00011911,-0.00030593,0.00021791,0.00008463,-0.00040955
 ,-0.00036201,-0.00003263,0.00025546,0.00006108,0.00002713,0.00001565,-
 0.00007737,0.00059303,0.00004059,-0.00011937,0.00006979,0.00002554,0.0
 0001540,0.00002377,0.00006790,-0.00001172,-0.03756573,0.01731562,-0.02
 261163,-0.08766299,0.00732062,-0.13156179,-0.00065018,0.00460714,-0.00
 452204,-0.00182348,-0.00212236,0.00147010,0.02552509,-0.06376593,0.658
 46380,-0.00013100,0.00004682,-0.00008145,0.00002408,-0.00002101,-0.000
 11648,-0.00043069,0.00008104,-0.00017560,0.00003901,-0.00004513,0.0000
 5390,0.00053217,0.00014194,0.00049375,0.00000448,-0.00000175,0.0000174
 8,0.00000406,-0.00001852,-0.00002305,0.00004137,-0.00001215,0.00000179
 ,-0.00000229,0.00001999,0.00001356,0.00000089,0.00000042,0.00000377,-0
 .00000842,0.00000428,0.00000819,-0.00000346,0.00000464,-0.00000097,-0.
 00000181,0.00000524,0.00000370,0.00792570,0.00023268,-0.00595468,-0.21
 032195,-0.00682946,0.13486711,0.00068321,-0.00083050,0.00007690,0.0009
 2149,0.00139684,-0.00189769,-0.02140722,0.00058815,0.02115257,0.224417
 16,-0.00039852,0.00020066,0.00005081,0.00006594,-0.00011219,-0.0000215
 2,-0.00005072,0.00079919,-0.00002234,0.00000610,-0.00004088,-0.0000178
 9,0.00045790,0.00024524,0.00014329,-0.00001251,0.00002782,0.00003750,0
 .00003349,-0.00003849,-0.00003425,-0.00000352,-0.00001460,0.00002931,-
 0.00002056,-0.00000247,-0.00000184,0.00001420,0.00000236,-0.00001570,-
 0.00001410,0.00001611,-0.00002149,0.00001518,0.00000001,0.00000048,0.0
 0001097,0.00000825,-0.00000618,-0.00696391,0.00290993,0.00734382,-0.00
 137277,-0.04008163,0.00730058,-0.00074397,-0.00349432,-0.00113808,0.00
 160671,0.00514902,0.00220412,0.00083726,0.00284524,-0.00191237,0.00572
 969,0.02873063,-0.00009416,0.00003759,0.00004780,-0.00006473,0.0000276
 3,-0.00007556,0.00049167,0.00003562,0.00001412,0.00002689,-0.00002881,
 0.00001268,-0.00055663,-0.00021313,0.00043298,-0.00000591,-0.00006678,
 0.00003773,0.00001611,-0.00000017,0.00003135,0.00001535,-0.00000922,0.
 00000602,-0.00000099,0.00000717,0.00000823,-0.00000488,-0.00000356,-0.
 00000103,0.00001149,0.00000122,-0.00001285,0.00000682,0.00000175,0.000
 00353,0.00000911,0.00000258,-0.00000041,0.02375443,-0.00024961,-0.0196
 5301,0.13621871,0.01136326,-0.17615429,-0.00049757,-0.00120981,0.00102
 451,-0.00123532,0.00372898,-0.00330832,-0.01014968,0.00033402,0.010155
 94,-0.14565751,-0.01401284,0.18646599,-0.00023353,-0.00021630,0.000144
 85,-0.00009186,-0.00015701,-0.00004523,0.00003052,0.00119913,0.0007473
 3,0.00018877,-0.00002775,0.00007753,-0.00031659,-0.00061429,-0.0003324
 8,-0.00002667,0.00002478,-0.00000724,0.00016174,-0.00000349,-0.0000655
 1,-0.00009361,0.00005776,0.00008565,-0.00002805,-0.00009836,-0.0000448
 4,-0.00000017,0.00000383,-0.00000313,-0.00005225,0.00001121,-0.0001082
 7,-0.00001217,-0.00000527,0.00000440,-0.00000191,-0.00000572,-0.000007
 78,-0.00562764,0.00069293,-0.00087160,-0.00026420,0.00689297,-0.029569
 55,-0.00002876,0.00060808,-0.00141053,0.00006025,-0.00012555,-0.000249
 90,-0.06809116,0.00902487,-0.05104734,0.00130533,-0.00042257,0.0003218
 8,0.06597318,-0.00019614,-0.00078013,-0.00031321,-0.00015642,-0.000154
 00,0.00012786,-0.00060595,0.00144190,0.00345831,-0.00000388,0.00002808
 ,0.00022268,0.00292716,-0.00056057,0.00148531,0.00002246,-0.00003224,-
 0.00003086,0.00018265,0.00004762,-0.00015218,-0.00010424,0.00013578,0.
 00013391,-0.00006832,-0.00016607,-0.00005874,-0.00000101,-0.00000178,0
 .00001585,-0.00025274,-0.00000991,-0.00007403,-0.00003137,-0.00000078,
 0.00000568,-0.00000664,-0.00001512,-0.00001035,-0.00123344,0.00522832,
 0.00136779,0.00071246,0.00510535,-0.00239769,-0.00018063,-0.00043161,-
 0.00017179,-0.00023102,-0.00017610,0.00033063,0.01268344,-0.04196961,0
 .05323706,-0.00026517,-0.00456218,-0.00067031,-0.01241770,0.03380490,0
 .00021251,-0.00009648,-0.00009448,-0.00008904,0.00006491,0.00017408,0.
 00005328,0.00052187,0.00047835,-0.00014041,0.00004245,-0.00015907,0.00
 069659,-0.00060484,0.00085711,0.00001703,-0.00004089,0.00001706,0.0000
 3417,0.00002711,0.00003894,0.00001976,0.00000928,0.00003039,0.00002334
 ,0.00000816,0.00005951,-0.00000326,-0.00000973,0.00000606,-0.00003224,
 -0.00000138,-0.00001121,0.00000833,0.00000703,0.00000002,0.00000329,-0
 .00000569,0.00000377,-0.00267340,0.00001308,0.00057844,0.00197731,0.00
 189895,-0.00553207,0.00009151,0.00026860,-0.00028389,0.00009195,-0.000
 14816,0.00038929,-0.05570217,0.04919964,-0.32208007,-0.00029946,-0.000
 60372,0.00081084,0.06137520,-0.05393015,0.33760131,0.00040680,-0.00074
 788,-0.00021137,-0.00002900,0.00000395,-0.00003665,0.00002277,-0.00063
 137,-0.00007209,0.00021454,0.00008954,-0.00005040,0.00007018,0.0006376
 0,0.00008594,-0.00001614,0.00005638,-0.00003305,0.00007984,-0.00000752
 ,0.00000269,-0.00020140,0.00010801,0.00014835,0.00000512,-0.00005923,-
 0.00003070,-0.00000157,0.00000549,-0.00000372,-0.00004264,-0.00006005,
 -0.00010814,-0.00000889,-0.00001503,0.00000397,-0.00000226,0.00000263,
 -0.00000681,0.00146051,-0.00191823,0.00156160,-0.02026186,0.00183337,0
 .02136970,0.00026810,-0.00039734,-0.00028177,0.00035705,0.00064496,-0.
 00097479,-0.21836958,0.01586849,0.13691250,-0.00359211,0.00122573,-0.0
 0260510,0.00714877,-0.00077349,-0.00566424,0.23249179,0.00188069,-0.00
 013845,-0.00086806,-0.00018777,0.00048604,0.00066780,0.00045805,-0.012
 98185,-0.00491260,-0.00060631,0.00046319,-0.00023982,0.00196430,0.0028
 0128,0.00348660,0.00005300,-0.00007029,0.00000410,-0.00002085,-0.00001
 490,0.00010513,-0.00002837,-0.00002462,-0.00011553,0.00000618,-0.00007
 693,-0.00002909,-0.00001063,-0.00000063,-0.00001076,0.00003331,-0.0001
 0321,0.00006308,0.00001488,-0.00000218,0.00000863,0.00001963,0.0000126
 1,-0.00001157,-0.00025198,-0.00741754,0.00189573,-0.00813619,0.0043810
 9,-0.00433564,-0.00011890,-0.00007039,0.00007562,0.00075048,0.00076987
 ,-0.00015528,0.02469608,-0.02706280,-0.00936033,-0.00022803,0.00741230
 ,0.00092443,-0.00442156,0.00306815,0.00337997,-0.01586600,0.02856925,-
 0.00001557,0.00068245,0.00025659,-0.00018727,-0.00013616,0.00028371,0.
 00003134,0.00044658,0.00006721,-0.00006488,0.00013571,-0.00006614,-0.0
 0000753,-0.00003155,-0.00003390,-0.00002402,0.00005115,-0.00002435,0.0
 0029406,-0.00004048,-0.00009540,-0.00015792,0.00003003,0.00013909,-0.0
 0001401,-0.00009627,-0.00008754,0.00000654,0.00000969,-0.00000789,-0.0
 0013848,0.00001934,-0.00012788,-0.00000643,-0.00002445,-0.00000214,-0.
 00000176,-0.00000478,-0.00001295,-0.00114209,-0.00018361,0.00130606,-0
 .00828479,0.00120530,0.00965497,0.00018047,0.00012130,0.00011222,0.000
 31150,-0.00067000,-0.00003228,0.14070604,-0.00906441,-0.17660678,-0.00
 248584,0.00069831,0.00015376,0.02100656,-0.00257579,-0.01288438,-0.150
 00592,0.00942762,0.17800802\\-0.00015079,-0.00060785,0.00000485,0.0001
 6436,0.00017774,-0.00000591,-0.00000269,0.00037619,0.00004454,-0.00000
 438,-0.00000414,0.00000009,-0.00002338,0.00001289,-0.00011029,-0.00000
 253,-0.00000078,-0.00000334,-0.00001176,-0.00000082,-0.00000459,0.0000
 0862,0.00000316,-0.00000846,-0.00000142,0.00000015,-0.00000205,0.00000
 035,-0.00000023,-0.00000040,0.00000102,-0.00000021,0.00001117,0.000000
 58,0.00000062,-0.00000019,0.00000029,-0.00000005,-0.00000027,-0.000060
 70,0.00004869,0.00004247,0.00004246,-0.00001307,0.00000995,0.00000171,
 0.00000408,-0.00002348,0.00001437,0.00002528,0.00000598,0.00002127,-0.
 00000097,0.00003873,-0.00000234,-0.00000168,-0.00000403,-0.00000043,-0
 .00001486,-0.00000253,0.00000540,-0.00000411,0.00000774\\\@


 HE WHO LOVES TO READ, AND KNOWS HOW TO REFLECT,
 HAS LAID BY A PERPETUAL FEAST FOR HIS OLD AGE.
 -- UNCLE ESEK, "SCRIBNER'S MONTHLY", SEPT. 1880
 Job cpu time:       0 days  3 hours 20 minutes 43.4 seconds.
 Elapsed time:       0 days  0 hours 16 minutes 44.1 seconds.
 File lengths (MBytes):  RWF=    290 Int=      0 D2E=      0 Chk=     32 Scr=      1
 Normal termination of Gaussian 16 at Fri Jun 10 12:05:51 2022.
