 Entering Gaussian System, Link 0=g16
 Input=int_initalOpt_zmat_sp.gjf
 Output=int_initalOpt_zmat_sp.out
 Initial command:
 /software/gaussian/g16-a03/l1.exe "/local_scratch/11171781/Gau-14002.inp" -scrdir="/local_scratch/11171781/"
 Entering Link 1 = /software/gaussian/g16-a03/l1.exe PID=     14003.
  
 Copyright (c) 1988,1990,1992,1993,1995,1998,2003,2009,2016,
            Gaussian, Inc.  All Rights Reserved.
  
 This is part of the Gaussian(R) 16 program.  It is based on
 the Gaussian(R) 09 system (copyright 2009, Gaussian, Inc.),
 the Gaussian(R) 03 system (copyright 2003, Gaussian, Inc.),
 the Gaussian(R) 98 system (copyright 1998, Gaussian, Inc.),
 the Gaussian(R) 94 system (copyright 1995, Gaussian, Inc.),
 the Gaussian 92(TM) system (copyright 1992, Gaussian, Inc.),
 the Gaussian 90(TM) system (copyright 1990, Gaussian, Inc.),
 the Gaussian 88(TM) system (copyright 1988, Gaussian, Inc.),
 the Gaussian 86(TM) system (copyright 1986, Carnegie Mellon
 University), and the Gaussian 82(TM) system (copyright 1983,
 Carnegie Mellon University). Gaussian is a federally registered
 trademark of Gaussian, Inc.
  
 This software contains proprietary and confidential information,
 including trade secrets, belonging to Gaussian, Inc.
  
 This software is provided under written license and may be
 used, copied, transmitted, or stored only in accord with that
 written license.
  
 The following legend is applicable only to US Government
 contracts under FAR:
  
                    RESTRICTED RIGHTS LEGEND
  
 Use, reproduction and disclosure by the US Government is
 subject to restrictions as set forth in subparagraphs (a)
 and (c) of the Commercial Computer Software - Restricted
 Rights clause in FAR 52.227-19.
  
 Gaussian, Inc.
 340 Quinnipiac St., Bldg. 40, Wallingford CT 06492
  
  
 ---------------------------------------------------------------
 Warning -- This program may not be used in any manner that
 competes with the business of Gaussian, Inc. or will provide
 assistance to any competitor of Gaussian, Inc.  The licensee
 of this program is prohibited from giving any competitor of
 Gaussian, Inc. access to this program.  By using this program,
 the user acknowledges that Gaussian, Inc. is engaged in the
 business of creating and licensing software in the field of
 computational chemistry and represents and warrants to the
 licensee that it is not a competitor of Gaussian, Inc. and that
 it will not use this program in any manner prohibited above.
 ---------------------------------------------------------------
  

 Cite this work as:
 Gaussian 16, Revision A.03,
 M. J. Frisch, G. W. Trucks, H. B. Schlegel, G. E. Scuseria, 
 M. A. Robb, J. R. Cheeseman, G. Scalmani, V. Barone, 
 G. A. Petersson, H. Nakatsuji, X. Li, M. Caricato, A. V. Marenich, 
 J. Bloino, B. G. Janesko, R. Gomperts, B. Mennucci, H. P. Hratchian, 
 J. V. Ortiz, A. F. Izmaylov, J. L. Sonnenberg, D. Williams-Young, 
 F. Ding, F. Lipparini, F. Egidi, J. Goings, B. Peng, A. Petrone, 
 T. Henderson, D. Ranasinghe, V. G. Zakrzewski, J. Gao, N. Rega, 
 G. Zheng, W. Liang, M. Hada, M. Ehara, K. Toyota, R. Fukuda, 
 J. Hasegawa, M. Ishida, T. Nakajima, Y. Honda, O. Kitao, H. Nakai, 
 T. Vreven, K. Throssell, J. A. Montgomery, Jr., J. E. Peralta, 
 F. Ogliaro, M. J. Bearpark, J. J. Heyd, E. N. Brothers, K. N. Kudin, 
 V. N. Staroverov, T. A. Keith, R. Kobayashi, J. Normand, 
 K. Raghavachari, A. P. Rendell, J. C. Burant, S. S. Iyengar, 
 J. Tomasi, M. Cossi, J. M. Millam, M. Klene, C. Adamo, R. Cammi, 
 J. W. Ochterski, R. L. Martin, K. Morokuma, O. Farkas, 
 J. B. Foresman, and D. J. Fox, Gaussian, Inc., Wallingford CT, 2016.
 
 ******************************************
 Gaussian 16:  ES64L-G16RevA.03 25-Dec-2016
                10-Jun-2022 
 ******************************************
 %nprocshared=12
 Will use up to   12 processors via shared memory.
 %chk=checkpoint.chk
 %mem=12GB
 --------------------------
 # sp B3LYP/Def2TZVP NoSymm
 --------------------------
 1/38=1,172=1/1;
 2/12=2,15=1,17=6,18=5,40=1/2;
 3/5=44,7=101,11=2,25=1,30=1,74=-5/1,2,3;
 4//1;
 5/5=2,38=5/2;
 6/7=2,8=2,9=2,10=2,28=1/1;
 99/5=1,9=1/99;
 ----------------------------
 int_initalOpt_zmat_AlignedSp
 ----------------------------
 Symbolic Z-matrix:
 Charge =  0 Multiplicity = 1
 C
 C                    1    R2
 S                    1    R3       2    A3
 C                    1    R4       2    A4       3    D4       0
 C                    3    R5       1    A5       2    D5       0
 O                    3    R6       1    A6       5    D6       0
 H                    2    R7       1    A7       3    D7       0
 C                    2    R8       1    A8       7    D8       0
 C                    4    R9       1    A9       2    D9       0
 H                    4    R10      1    A10      9    D10      0
 C                    5    R11      3    A11      1    D11      0
 H                    5    R12      3    A12      11   D12      0
 H                    5    R13      3    A13      11   D13      0
 H                    8    R14      2    A14      1    D14      0
 C                    8    R15      2    A15      14   D15      0
 H                    9    R16      4    A16      1    D16      0
 C                    11   R17      5    A17      3    D17      0
 H                    11   R18      5    A18      17   D18      0
 H                    15   R19      8    A19      2    D19      0
 H                    17   R20      11   A20      5    D20      0
 H                    17   R21      11   A21      20   D21      0
       Variables:
  R2                    1.38802                  
  R3                    1.81135                  
  R4                    1.39146                  
  R5                    1.86676                  
  R6                    1.48703                  
  R7                    1.0826                   
  R8                    1.39103                  
  R9                    1.38935                  
  R10                   1.08412                  
  R11                   1.48822                  
  R12                   1.09182                  
  R13                   1.09061                  
  R14                   1.08278                  
  R15                   1.39065                  
  R16                   1.08267                  
  R17                   1.3277                   
  R18                   1.08613                  
  R19                   1.08259                  
  R20                   1.08227                  
  R21                   1.08347                  
  A3                  118.73852                  
  A4                  121.05277                  
  A5                   96.14581                  
  A6                  107.36598                  
  A7                  119.02066                  
  A8                  119.20479                  
  A9                  119.37287                  
  A10                 120.46358                  
  A11                 110.4441                   
  A12                 105.88221                  
  A13                 105.21721                  
  A14                 119.71012                  
  A15                 120.23244                  
  A16                 119.83431                  
  A17                 124.13459                  
  A18                 116.32674                  
  A19                 120.00912                  
  A20                 121.41414                  
  A21                 121.60453                  
  D4                  176.64623                  
  D5                 -102.41807                  
  D6                  109.24512                  
  D7                    1.35255                  
  D8                 -179.29005                  
  D9                    1.49875                  
  D10                -179.29549                  
  D11                -176.70702                  
  D12                 121.94605                  
  D13                -121.77701                  
  D14                -179.96805                  
  D15                -179.71078                  
  D16                 179.87053                  
  D17                -103.84195                  
  D18                 178.40323                  
  D19                 179.73005                  
  D20                 179.00183                  
  D21                -179.75955                  
 
                          Input orientation:                          
 ---------------------------------------------------------------------
 Center     Atomic      Atomic             Coordinates (Angstroms)
 Number     Number       Type             X           Y           Z
 ---------------------------------------------------------------------
      1          6           0        0.000000    0.000000    0.000000
      2          6           0        0.000000    0.000000    1.388020
      3         16           0        1.588234    0.000000   -0.870921
      4          6           0       -1.190015   -0.069737   -0.717755
      5          6           0        1.571564    1.812604   -1.316976
      6          8           0        2.654956   -0.168710    0.151280
      7          1           0        0.946407    0.022345    1.913214
      8          6           0       -1.213415   -0.043699    2.066747
      9          6           0       -2.397924   -0.108800   -0.032393
     10          1           0       -1.177140   -0.104969   -1.801225
     11          6           0        2.758399    2.154566   -2.147205
     12          1           0        0.631214    1.981632   -1.845401
     13          1           0        1.560251    2.341949   -0.363509
     14          1           0       -1.222978   -0.043518    3.149488
     15          6           0       -2.409836   -0.093525    1.359644
     16          1           0       -3.328413   -0.160974   -0.583422
     17          6           0        3.826210    2.798366   -1.691048
     18          1           0        2.734573    1.823085   -3.181240
     19          1           0       -3.351957   -0.131849    1.891567
     20          1           0        4.672927    3.010637   -2.330828
     21          1           0        3.891804    3.131514   -0.662162
 ---------------------------------------------------------------------
                    Distance matrix (angstroms):
                    1          2          3          4          5
     1  C    0.000000
     2  C    1.388020   0.000000
     3  S    1.811350   2.761394   0.000000
     4  C    1.391464   2.419770   2.783342   0.000000
     5  C    2.736745   3.615570   1.866756   3.395378   0.000000
     6  O    2.664609   2.933731   1.487029   3.943200   2.693533
     7  H    2.134614   1.082597   2.857245   3.390396   3.745661
     8  C    2.397025   1.391027   4.059684   2.784722   4.759364
     9  C    2.400610   2.789167   4.074852   1.389349   4.593342
    10  H    2.154319   3.401170   2.919551   1.084119   3.386290
    11  C    4.106265   4.974810   2.764117   4.751928   1.488219
    12  H    2.780432   3.844516   2.406733   2.965902   1.091816
    13  H    2.837472   3.314658   2.396450   3.675008   1.090611
    14  H    3.378881   2.144840   4.905964   3.867472   5.586049
    15  C    2.768517   2.411817   4.579162   2.409173   5.162283
    16  H    3.382991   3.871799   4.927675   2.144555   5.333188
    17  C    5.032929   5.652556   3.675867   5.859678   2.488992
    18  H    4.574038   5.628469   3.158371   5.005390   2.197313
    19  H    3.851107   3.392132   5.661644   3.389161   6.190049
    20  H    6.027681   6.688049   4.550890   6.816509   3.475864
    21  H    5.038947   5.399608   3.893122   6.006329   2.748057
                    6          7          8          9         10
     6  O    0.000000
     7  H    2.461718   0.000000
     8  C    4.318442   2.166280   0.000000
     9  C    5.056573   3.871323   2.411159   0.000000
    10  H    4.301314   4.280505   3.868627   2.149208   0.000000
    11  C    3.269762   4.931195   6.193954   6.015224   4.551227
    12  H    3.564581   4.250334   4.775931   4.102753   2.761521
    13  H    2.786897   3.307693   4.392116   4.667222   3.943062
    14  H    4.903396   2.497787   1.082783   3.392510   4.951306
    15  C    5.207487   3.403562   1.390647   1.392172   3.392752
    16  H    6.028313   4.953876   3.392693   1.082665   2.472682
    17  C    3.683686   5.384260   6.898998   7.067007   5.785758
    18  H    3.883204   5.691543   6.827361   6.323761   4.574204
    19  H    6.254036   4.301184   2.147515   2.147634   4.285705
    20  H    4.510134   6.389736   7.957176   8.062917   6.649118
    21  H    3.617037   4.997485   6.602438   7.103305   6.120988
                   11         12         13         14         15
    11  C    0.000000
    12  H    2.155437   0.000000
    13  H    2.156905   1.785760   0.000000
    14  H    6.981252   5.699839   5.077200   0.000000
    15  C    6.637963   4.881247   4.966123   2.148179   0.000000
    16  H    6.697494   4.675682   5.496546   4.287338   2.150311
    17  C    1.327696   3.301344   2.665567   7.549926   7.520507
    18  H    1.086129   2.496743   3.096427   7.695748   7.124463
    19  H    7.673059   5.856397   5.944311   2.474413   1.082591
    20  H    2.105230   4.198801   3.742491   8.609495   8.568602
    21  H    2.108172   3.654276   2.479667   7.125342   7.362014
                   16         17         18         19         20
    16  H    0.000000
    17  C    7.821327   0.000000
    18  H    6.888030   2.088903   0.000000
    19  H    2.475272   8.540923   8.160944   0.000000
    20  H    8.782596   1.082269   2.427075   9.597010   0.000000
    21  H    7.935882   1.083465   3.065441   8.345248   1.846404
                   21
    21  H    0.000000
 Symmetry turned off by external request.
 Stoichiometry    C9H10OS
 Framework group  C1[X(C9H10OS)]
 Deg. of freedom    57
 Full point group                 C1      NOp   1
 Rotational constants (GHZ):           2.3336997           0.5236720           0.4879734
 Standard basis: def2TZVP (5D, 7F)
   407 basis functions,   659 primitive gaussians,   462 cartesian basis functions
    44 alpha electrons       44 beta electrons
       nuclear repulsion energy       664.5411601114 Hartrees.
 NAtoms=   21 NActive=   21 NUniq=   21 SFac= 1.00D+00 NAtFMM=   60 NAOKFM=F Big=F
 Integral buffers will be    131072 words long.
 Raffenetti 2 integral format.
 Two-electron integral symmetry is turned off.
 One-electron integrals computed using PRISM.
   1 Symmetry operations used in ECPInt.
 ECPInt:  NShTT=   13366 NPrTT=   41614 LenC2=   12471 LenP2D=   29244.
 LDataN:  DoStor=T MaxTD1= 6 Len=  172
 NBasis=   407 RedAO= T EigKep=  8.65D-06  NBF=   407
 NBsUse=   407 1.00D-06 EigRej= -1.00D+00 NBFU=   407
 ExpMin= 9.52D-02 ExpMax= 6.07D+04 ExpMxC= 2.07D+03 IAcc=3 IRadAn=         5 AccDes= 0.00D+00
 Harris functional with IExCor=  402 and IRadAn=       5 diagonalized for initial guess.
 HarFok:  IExCor=  402 AccDes= 0.00D+00 IRadAn=         5 IDoV= 1 UseB2=F ITyADJ=14
 ICtDFT=  3500011 ScaDFX=  1.000000  1.000000  1.000000  1.000000
 FoFCou: FMM=F IPFlag=           0 FMFlag=      100000 FMFlg1=           0
         NFxFlg=           0 DoJE=T BraDBF=F KetDBF=T FulRan=T
         wScrn=  0.000000 ICntrl=       500 IOpCl=  0 I1Cent=   200000004 NGrid=           0
         NMat0=    1 NMatS0=      1 NMatT0=    0 NMatD0=    1 NMtDS0=    0 NMtDT0=    0
 Symmetry not used in FoFCou.
 Requested convergence on RMS density matrix=1.00D-08 within 128 cycles.
 Requested convergence on MAX density matrix=1.00D-06.
 Requested convergence on             energy=1.00D-06.
 No special actions if energy rises.
 Integral accuracy reduced to 1.0D-05 until final iterations.
 Initial convergence to 1.0D-05 achieved.  Increase integral accuracy.
 SCF Done:  E(RB3LYP) =  -822.532461625     A.U. after   19 cycles
            NFock= 19  Conv=0.58D-08     -V/T= 2.0035

 **********************************************************************

            Population analysis using the SCF density.

 **********************************************************************

 Alpha  occ. eigenvalues --  -88.95480 -19.09026 -10.20812 -10.20798 -10.19748
 Alpha  occ. eigenvalues --  -10.19298 -10.19115 -10.19062 -10.18982 -10.18896
 Alpha  occ. eigenvalues --  -10.17660  -8.01870  -5.98086  -5.98052  -5.97519
 Alpha  occ. eigenvalues --   -1.01956  -0.87836  -0.81831  -0.78098  -0.76632
 Alpha  occ. eigenvalues --   -0.72752  -0.65816  -0.62607  -0.59531  -0.57046
 Alpha  occ. eigenvalues --   -0.53459  -0.49183  -0.47732  -0.47307  -0.45538
 Alpha  occ. eigenvalues --   -0.45298  -0.44145  -0.42551  -0.40825  -0.39363
 Alpha  occ. eigenvalues --   -0.37521  -0.37265  -0.36365  -0.35926  -0.29535
 Alpha  occ. eigenvalues --   -0.28027  -0.27448  -0.27277  -0.23423
 Alpha virt. eigenvalues --   -0.04323  -0.02998  -0.01336   0.02373   0.03052
 Alpha virt. eigenvalues --    0.03964   0.05443   0.06638   0.07132   0.08058
 Alpha virt. eigenvalues --    0.08873   0.10254   0.10883   0.11217   0.11937
 Alpha virt. eigenvalues --    0.13187   0.13963   0.14952   0.17237   0.17844
 Alpha virt. eigenvalues --    0.18959   0.19524   0.19801   0.21003   0.22156
 Alpha virt. eigenvalues --    0.22591   0.23113   0.23748   0.23917   0.24274
 Alpha virt. eigenvalues --    0.25803   0.26787   0.26853   0.28358   0.29747
 Alpha virt. eigenvalues --    0.30832   0.31635   0.32806   0.33316   0.34011
 Alpha virt. eigenvalues --    0.34910   0.35456   0.36347   0.36673   0.37370
 Alpha virt. eigenvalues --    0.37823   0.39670   0.40132   0.40510   0.40660
 Alpha virt. eigenvalues --    0.41926   0.42267   0.43311   0.44016   0.44472
 Alpha virt. eigenvalues --    0.44999   0.45694   0.46748   0.48069   0.48488
 Alpha virt. eigenvalues --    0.48608   0.48907   0.50566   0.52749   0.53553
 Alpha virt. eigenvalues --    0.54182   0.56220   0.57326   0.59648   0.61414
 Alpha virt. eigenvalues --    0.61707   0.62953   0.64108   0.64835   0.66003
 Alpha virt. eigenvalues --    0.66441   0.67010   0.68054   0.69178   0.70339
 Alpha virt. eigenvalues --    0.72261   0.72869   0.74200   0.75526   0.76361
 Alpha virt. eigenvalues --    0.77593   0.79929   0.81368   0.81874   0.82803
 Alpha virt. eigenvalues --    0.83380   0.87357   0.87535   0.88070   0.88813
 Alpha virt. eigenvalues --    0.90233   0.91412   0.95875   0.97519   0.99083
 Alpha virt. eigenvalues --    0.99649   1.01689   1.02635   1.03272   1.05929
 Alpha virt. eigenvalues --    1.07650   1.08199   1.08488   1.12066   1.15011
 Alpha virt. eigenvalues --    1.16376   1.18758   1.19169   1.19732   1.20337
 Alpha virt. eigenvalues --    1.21206   1.22335   1.24201   1.24658   1.25761
 Alpha virt. eigenvalues --    1.26798   1.28498   1.30824   1.32171   1.35967
 Alpha virt. eigenvalues --    1.37735   1.39697   1.39984   1.41204   1.43582
 Alpha virt. eigenvalues --    1.44380   1.47144   1.47999   1.48726   1.50052
 Alpha virt. eigenvalues --    1.51335   1.52156   1.52919   1.54518   1.55297
 Alpha virt. eigenvalues --    1.56531   1.57674   1.58313   1.59496   1.59908
 Alpha virt. eigenvalues --    1.61647   1.63824   1.64092   1.64886   1.65901
 Alpha virt. eigenvalues --    1.67135   1.67403   1.68734   1.69572   1.70345
 Alpha virt. eigenvalues --    1.71934   1.75548   1.76239   1.77132   1.77899
 Alpha virt. eigenvalues --    1.79098   1.80778   1.81914   1.82945   1.83809
 Alpha virt. eigenvalues --    1.86872   1.87855   1.90801   1.91872   1.93897
 Alpha virt. eigenvalues --    1.94177   1.97625   2.02735   2.04392   2.05365
 Alpha virt. eigenvalues --    2.07184   2.07879   2.08291   2.10560   2.12301
 Alpha virt. eigenvalues --    2.14289   2.17043   2.17166   2.17926   2.21812
 Alpha virt. eigenvalues --    2.22558   2.23392   2.24871   2.26456   2.31140
 Alpha virt. eigenvalues --    2.31774   2.34258   2.35159   2.36368   2.37620
 Alpha virt. eigenvalues --    2.40526   2.43266   2.44861   2.47561   2.49398
 Alpha virt. eigenvalues --    2.50452   2.52471   2.53184   2.54430   2.56921
 Alpha virt. eigenvalues --    2.58872   2.59089   2.60445   2.62422   2.63347
 Alpha virt. eigenvalues --    2.64082   2.65172   2.65901   2.66531   2.66888
 Alpha virt. eigenvalues --    2.68381   2.68559   2.69859   2.70780   2.73963
 Alpha virt. eigenvalues --    2.74209   2.75207   2.76803   2.78086   2.79724
 Alpha virt. eigenvalues --    2.81594   2.82234   2.83548   2.84723   2.86698
 Alpha virt. eigenvalues --    2.87283   2.88504   2.89199   2.90433   2.90985
 Alpha virt. eigenvalues --    2.92292   2.97328   2.98194   2.99851   3.00863
 Alpha virt. eigenvalues --    3.02009   3.05023   3.07588   3.08286   3.09063
 Alpha virt. eigenvalues --    3.10029   3.10258   3.11945   3.12467   3.13597
 Alpha virt. eigenvalues --    3.14042   3.14498   3.15524   3.17865   3.19733
 Alpha virt. eigenvalues --    3.20681   3.21611   3.22859   3.23749   3.24037
 Alpha virt. eigenvalues --    3.25275   3.27749   3.28893   3.29231   3.33237
 Alpha virt. eigenvalues --    3.34611   3.35442   3.35843   3.36801   3.38196
 Alpha virt. eigenvalues --    3.39867   3.40989   3.42429   3.43191   3.45006
 Alpha virt. eigenvalues --    3.45457   3.47288   3.50362   3.51001   3.53329
 Alpha virt. eigenvalues --    3.54603   3.55002   3.56310   3.57410   3.64706
 Alpha virt. eigenvalues --    3.65777   3.68452   3.70366   3.73216   3.75188
 Alpha virt. eigenvalues --    3.76103   3.79276   3.81420   3.86350   3.89211
 Alpha virt. eigenvalues --    3.92864   3.95004   3.98554   4.01372   4.04140
 Alpha virt. eigenvalues --    4.05306   4.08291   4.10828   4.11077   4.14500
 Alpha virt. eigenvalues --    4.18840   4.19207   4.19339   4.21293   4.21742
 Alpha virt. eigenvalues --    4.23847   4.26403   4.27380   4.31372   4.33873
 Alpha virt. eigenvalues --    4.35623   4.43025   4.48367   4.55462   4.61448
 Alpha virt. eigenvalues --    4.62435   4.63450   4.64680   4.66683   4.68019
 Alpha virt. eigenvalues --    4.71000   4.83517   4.86392   4.89277   4.91434
 Alpha virt. eigenvalues --    5.06398   5.14197   5.15627   5.17906   5.19329
 Alpha virt. eigenvalues --    5.25117   5.27064   5.27358   5.34705   5.37384
 Alpha virt. eigenvalues --    5.44184   5.47579   5.54246   5.57995   6.33174
 Alpha virt. eigenvalues --    6.40167   6.70470   6.74412   6.90045   9.14162
 Alpha virt. eigenvalues --    9.41279   9.52948  20.68192  21.90983  22.07210
 Alpha virt. eigenvalues --   22.31683  22.54969  22.57273  22.66482  22.68474
 Alpha virt. eigenvalues --   22.73190  23.08279  43.58845
          Condensed to atoms (all electrons):
               1          2          3          4          5          6
     1  C    6.168504  -0.030965   0.294150  -0.337470  -0.030446  -0.091961
     2  C   -0.030965   5.288292  -0.059142   0.265954  -0.007330   0.020714
     3  S    0.294150  -0.059142  14.739175  -0.013407   0.247069   0.391118
     4  C   -0.337470   0.265954  -0.013407   5.636467  -0.023920   0.012554
     5  C   -0.030446  -0.007330   0.247069  -0.023920   5.143783  -0.047721
     6  O   -0.091961   0.020714   0.391118   0.012554  -0.047721   8.204244
     7  H   -0.103289   0.444852  -0.033000   0.045898   0.001092   0.042404
     8  C    0.157055   0.341030   0.013491  -0.186763   0.000437  -0.001004
     9  C    0.287189  -0.178348   0.002862   0.183983   0.004399  -0.001700
    10  H   -0.150584   0.032947   0.015873   0.487064  -0.007484   0.000232
    11  C    0.006115  -0.000977  -0.028573   0.000100   0.291154  -0.005650
    12  H   -0.016691   0.004504  -0.017035   0.005506   0.338744   0.006754
    13  H   -0.009756   0.004170  -0.032541   0.010616   0.409696   0.002740
    14  H    0.009578  -0.050774  -0.000277  -0.001480   0.000007  -0.000036
    15  C   -0.234346   0.088379  -0.002672   0.142117  -0.000898   0.000823
    16  H    0.015937  -0.004599  -0.000246  -0.057747   0.000118   0.000003
    17  C    0.000051   0.000354  -0.002256   0.000296  -0.042726   0.011508
    18  H   -0.000373   0.000012   0.001480   0.000258  -0.048633  -0.000506
    19  H   -0.003303   0.008775   0.000032   0.010604  -0.000002   0.000001
    20  H    0.000022  -0.000003  -0.000254  -0.000003   0.007934   0.000001
    21  H   -0.000135   0.000038  -0.000565   0.000051  -0.008643   0.000270
               7          8          9         10         11         12
     1  C   -0.103289   0.157055   0.287189  -0.150584   0.006115  -0.016691
     2  C    0.444852   0.341030  -0.178348   0.032947  -0.000977   0.004504
     3  S   -0.033000   0.013491   0.002862   0.015873  -0.028573  -0.017035
     4  C    0.045898  -0.186763   0.183983   0.487064   0.000100   0.005506
     5  C    0.001092   0.000437   0.004399  -0.007484   0.291154   0.338744
     6  O    0.042404  -0.001004  -0.001700   0.000232  -0.005650   0.006754
     7  H    0.524420  -0.073149  -0.013288   0.001077  -0.000593   0.000411
     8  C   -0.073149   5.007174   0.065139  -0.008315   0.000031  -0.000114
     9  C   -0.013288   0.065139   5.082169  -0.076978  -0.000059  -0.001227
    10  H    0.001077  -0.008315  -0.076978   0.582100   0.000059   0.004010
    11  C   -0.000593   0.000031  -0.000059   0.000059   4.999287  -0.026188
    12  H    0.000411  -0.000114  -0.001227   0.004010  -0.026188   0.597899
    13  H    0.002550  -0.001382  -0.001381   0.000954  -0.042175  -0.018076
    14  H   -0.005102   0.427114   0.008805   0.000071  -0.000000   0.000006
    15  C    0.019740   0.385452   0.361656   0.018432  -0.000002   0.000250
    16  H   -0.000015   0.011276   0.430697  -0.008015  -0.000003  -0.000063
    17  C    0.000179  -0.000012  -0.000021   0.000101   0.588611   0.004426
    18  H    0.000008  -0.000005  -0.000013   0.000109   0.401909  -0.004386
    19  H   -0.000048  -0.047604  -0.048545  -0.000165  -0.000000   0.000000
    20  H   -0.000002   0.000000   0.000000  -0.000001  -0.040493  -0.000412
    21  H    0.000046  -0.000002  -0.000003   0.000005  -0.041644   0.000581
              13         14         15         16         17         18
     1  C   -0.009756   0.009578  -0.234346   0.015937   0.000051  -0.000373
     2  C    0.004170  -0.050774   0.088379  -0.004599   0.000354   0.000012
     3  S   -0.032541  -0.000277  -0.002672  -0.000246  -0.002256   0.001480
     4  C    0.010616  -0.001480   0.142117  -0.057747   0.000296   0.000258
     5  C    0.409696   0.000007  -0.000898   0.000118  -0.042726  -0.048633
     6  O    0.002740  -0.000036   0.000823   0.000003   0.011508  -0.000506
     7  H    0.002550  -0.005102   0.019740  -0.000015   0.000179   0.000008
     8  C   -0.001382   0.427114   0.385452   0.011276  -0.000012  -0.000005
     9  C   -0.001381   0.008805   0.361656   0.430697  -0.000021  -0.000013
    10  H    0.000954   0.000071   0.018432  -0.008015   0.000101   0.000109
    11  C   -0.042175  -0.000000  -0.000002  -0.000003   0.588611   0.401909
    12  H   -0.018076   0.000006   0.000250  -0.000063   0.004426  -0.004386
    13  H    0.528355  -0.000000   0.000582  -0.000008   0.004847   0.005209
    14  H   -0.000000   0.548937  -0.048355  -0.000221  -0.000000   0.000000
    15  C    0.000582  -0.048355   4.998233  -0.050719   0.000007   0.000002
    16  H   -0.000008  -0.000221  -0.050719   0.553964  -0.000000   0.000000
    17  C    0.004847  -0.000000   0.000007  -0.000000   4.880748  -0.030539
    18  H    0.005209   0.000000   0.000002   0.000000  -0.030539   0.564732
    19  H    0.000000  -0.006623   0.424931  -0.006476   0.000000  -0.000000
    20  H   -0.000105  -0.000000  -0.000000  -0.000000   0.411688  -0.009979
    21  H    0.005018   0.000000   0.000001  -0.000000   0.409855   0.006902
              19         20         21
     1  C   -0.003303   0.000022  -0.000135
     2  C    0.008775  -0.000003   0.000038
     3  S    0.000032  -0.000254  -0.000565
     4  C    0.010604  -0.000003   0.000051
     5  C   -0.000002   0.007934  -0.008643
     6  O    0.000001   0.000001   0.000270
     7  H   -0.000048  -0.000002   0.000046
     8  C   -0.047604   0.000000  -0.000002
     9  C   -0.048545   0.000000  -0.000003
    10  H   -0.000165  -0.000001   0.000005
    11  C   -0.000000  -0.040493  -0.041644
    12  H    0.000000  -0.000412   0.000581
    13  H    0.000000  -0.000105   0.005018
    14  H   -0.006623  -0.000000   0.000000
    15  C    0.424931  -0.000000   0.000001
    16  H   -0.006476  -0.000000  -0.000000
    17  C    0.000000   0.411688   0.409855
    18  H   -0.000000  -0.009979   0.006902
    19  H    0.552091   0.000000   0.000000
    20  H    0.000000   0.547491  -0.032756
    21  H    0.000000  -0.032756   0.547205
 Mulliken charges:
               1
     1  C    0.070720
     2  C   -0.167881
     3  S    0.484719
     4  C   -0.180678
     5  C   -0.226629
     6  O   -0.544789
     7  H    0.145808
     8  C   -0.089851
     9  C   -0.105335
    10  H    0.108508
    11  C   -0.100910
    12  H    0.121100
    13  H    0.130688
    14  H    0.118350
    15  C   -0.103614
    16  H    0.116119
    17  C   -0.237116
    18  H    0.113812
    19  H    0.116331
    20  H    0.116872
    21  H    0.113776
 Sum of Mulliken charges =  -0.00000
 Mulliken charges with hydrogens summed into heavy atoms:
               1
     1  C    0.070720
     2  C   -0.022073
     3  S    0.484719
     4  C   -0.072169
     5  C    0.025159
     6  O   -0.544789
     8  C    0.028499
     9  C    0.010783
    11  C    0.012902
    15  C    0.012717
    17  C   -0.006468
 Electronic spatial extent (au):  <R**2>=           2626.6215
 Charge=             -0.0000 electrons
 Dipole moment (field-independent basis, Debye):
    X=             -3.1091    Y=              1.6177    Z=             -1.0371  Tot=              3.6550
 Quadrupole moment (field-independent basis, Debye-Ang):
   XX=            -75.4530   YY=            -73.9019   ZZ=            -64.9064
   XY=              5.3507   XZ=             -3.7639   YZ=             -1.1169
 Traceless Quadrupole moment (field-independent basis, Debye-Ang):
   XX=             -4.0326   YY=             -2.4814   ZZ=              6.5140
   XY=              5.3507   XZ=             -3.7639   YZ=             -1.1169
 Octapole moment (field-independent basis, Debye-Ang**2):
  XXX=           -164.5360  YYY=           -127.7687  ZZZ=             58.1928  XYY=            -31.7550
  XXY=            -23.3872  XXZ=              8.5156  XZZ=            -42.2358  YZZ=            -38.5150
  YYZ=             19.4045  XYZ=             -3.4399
 Hexadecapole moment (field-independent basis, Debye-Ang**3):
 XXXX=          -2002.7453 YYYY=           -762.6261 ZZZZ=           -797.5311 XXXY=           -297.0072
 XXXZ=            340.9316 YYYX=           -389.7251 YYYZ=            257.8690 ZZZX=            374.3408
 ZZZY=            217.8927 XXYY=           -431.6403 XXZZ=           -437.6008 YYZZ=           -280.1985
 XXYZ=             51.6213 YYXZ=            142.0462 ZZXY=           -116.3401
 N-N= 6.645411601114D+02 E-N=-3.262322843367D+03  KE= 8.196792961269D+02
 1\1\GINC-BHC0026\SP\RB3LYP\def2TZVP\C9H10O1S1\DHANAWAY\10-Jun-2022\0\\
 # sp B3LYP/Def2TZVP NoSymm\\int_initalOpt_zmat_AlignedSp\\0,1\C\C,1,1.
 38801951\S,1,1.81135,2,118.73852014\C,1,1.3914642,2,121.05276917,3,176
 .646226,0\C,3,1.86675567,1,96.14580669,2,-102.41806948,0\O,3,1.4870287
 1,1,107.3659775,5,109.24511598,0\H,2,1.08259674,1,119.02066106,3,1.352
 5496,0\C,2,1.39102727,1,119.20478709,7,-179.290048,0\C,4,1.38934922,1,
 119.37287167,2,1.49874769,0\H,4,1.08411881,1,120.46357519,9,-179.29548
 509,0\C,5,1.4882187,3,110.44410073,1,-176.70702288,0\H,5,1.09181579,3,
 105.88221461,11,121.94605475,0\H,5,1.09061088,3,105.21721414,11,-121.7
 7700859,0\H,8,1.08278274,2,119.71011713,1,-179.96805007,0\C,8,1.390647
 35,2,120.23243776,14,-179.71077812,0\H,9,1.08266529,4,119.83430694,1,1
 79.87052811,0\C,11,1.32769595,5,124.13458723,3,-103.84194996,0\H,11,1.
 0861292,5,116.32673628,17,178.40323323,0\H,15,1.08259092,8,120.0091172
 5,2,179.73004968,0\H,17,1.08226932,11,121.4141384,5,179.00182839,0\H,1
 7,1.08346548,11,121.60452658,20,-179.75955499,0\\Version=ES64L-G16RevA
 .03\HF=-822.5324616\RMSD=5.756e-09\Dipole=-1.2231982,0.6364609,-0.4080
 347\Quadrupole=-2.9981327,-1.8448963,4.8430291,3.9780995,-2.7983715,-0
 .8303836\PG=C01 [X(C9H10O1S1)]\\@


 EXPERIMENTALISTS THINK SILICON IS REALLY FUN TO USE
     ITS PLACE IN NOVEL COMPOUNDS IS CERTAIN TO AMUSE
 THEY SIT ALL DAY IN LABORATORIES MAKING ALL THIS SLUDGE
     "LOADED WITH THE SILICON THEY SAY", TO ME IT LOOKS LIKE FUDGE.
 FOR HAPPY THOUGH THEY BE WITH CRUD, I'D LIKE TO KNOW A LITTLE
      ABOUT THE PI BONDS ON THE EDGE AND SIGMAS IN THE MIDDLE.

 SO LETS DERIVE A WAVEFUNCTION.....6-31G*
     USE AN OPTIMAL GEOMETRY AND SEE WHERE ELECTRONS ARE.
 BUT WHAT OF CORRELATION?  ASKS THE WIRY LITTLE SKEPTIC.
     WE'LL THROW IN PERTURBATION AS AN ELECTRON ANTISEPTIC.
 AND WHEN THE PROGRAM GIVES US ANSWERS IN THEM WE CAN TRUST
     SINCE NOBODY CAN MAKE THE STUFF, WE HAVE NO CHOICE, WE MUST.

 SO THEORY GUYS HAVE GOT IT MADE, IN ROOMS FREE OF POLLUTION.
     INSTEAD OF PROBLEMS WITH THE REFLUX, THEY HAVE ONLY SOLUTIONS.
 AND WHEN THE FEDS ANNOUNCE THE LIST OF CARCINOGENIC TERRORS,
     THE THEORISTS SIT SAFELY AT THEIR TERMINALS FIXING ERRORS.
 IN OTHER WORDS, EXPERIMENTALISTS WILL LIKELY DIE OF CANCER
     FROM WORKING HARD YET FRUITLESSLY...TILL THEORY GIVES THE ANSWER.
          -- THOMAS A. HOLME, 1983
 Job cpu time:       0 days  0 hours 24 minutes 12.7 seconds.
 Elapsed time:       0 days  0 hours  2 minutes  1.3 seconds.
 File lengths (MBytes):  RWF=     93 Int=      0 D2E=      0 Chk=     32 Scr=      1
 Normal termination of Gaussian 16 at Fri Jun 10 11:16:06 2022.
