 Entering Gaussian System, Link 0=g16
 Input=ts.gjf
 Output=ts.out
 Initial command:
 /software/gaussian/g16-a03/l1.exe "/local_scratch/11171618/Gau-18927.inp" -scrdir="/local_scratch/11171618/"
 Entering Link 1 = /software/gaussian/g16-a03/l1.exe PID=     18928.
  
 Copyright (c) 1988,1990,1992,1993,1995,1998,2003,2009,2016,
            Gaussian, Inc.  All Rights Reserved.
  
 This is part of the Gaussian(R) 16 program.  It is based on
 the Gaussian(R) 09 system (copyright 2009, Gaussian, Inc.),
 the Gaussian(R) 03 system (copyright 2003, Gaussian, Inc.),
 the Gaussian(R) 98 system (copyright 1998, Gaussian, Inc.),
 the Gaussian(R) 94 system (copyright 1995, Gaussian, Inc.),
 the Gaussian 92(TM) system (copyright 1992, Gaussian, Inc.),
 the Gaussian 90(TM) system (copyright 1990, Gaussian, Inc.),
 the Gaussian 88(TM) system (copyright 1988, Gaussian, Inc.),
 the Gaussian 86(TM) system (copyright 1986, Carnegie Mellon
 University), and the Gaussian 82(TM) system (copyright 1983,
 Carnegie Mellon University). Gaussian is a federally registered
 trademark of Gaussian, Inc.
  
 This software contains proprietary and confidential information,
 including trade secrets, belonging to Gaussian, Inc.
  
 This software is provided under written license and may be
 used, copied, transmitted, or stored only in accord with that
 written license.
  
 The following legend is applicable only to US Government
 contracts under FAR:
  
                    RESTRICTED RIGHTS LEGEND
  
 Use, reproduction and disclosure by the US Government is
 subject to restrictions as set forth in subparagraphs (a)
 and (c) of the Commercial Computer Software - Restricted
 Rights clause in FAR 52.227-19.
  
 Gaussian, Inc.
 340 Quinnipiac St., Bldg. 40, Wallingford CT 06492
  
  
 ---------------------------------------------------------------
 Warning -- This program may not be used in any manner that
 competes with the business of Gaussian, Inc. or will provide
 assistance to any competitor of Gaussian, Inc.  The licensee
 of this program is prohibited from giving any competitor of
 Gaussian, Inc. access to this program.  By using this program,
 the user acknowledges that Gaussian, Inc. is engaged in the
 business of creating and licensing software in the field of
 computational chemistry and represents and warrants to the
 licensee that it is not a competitor of Gaussian, Inc. and that
 it will not use this program in any manner prohibited above.
 ---------------------------------------------------------------
  

 Cite this work as:
 Gaussian 16, Revision A.03,
 M. J. Frisch, G. W. Trucks, H. B. Schlegel, G. E. Scuseria, 
 M. A. Robb, J. R. Cheeseman, G. Scalmani, V. Barone, 
 G. A. Petersson, H. Nakatsuji, X. Li, M. Caricato, A. V. Marenich, 
 J. Bloino, B. G. Janesko, R. Gomperts, B. Mennucci, H. P. Hratchian, 
 J. V. Ortiz, A. F. Izmaylov, J. L. Sonnenberg, D. Williams-Young, 
 F. Ding, F. Lipparini, F. Egidi, J. Goings, B. Peng, A. Petrone, 
 T. Henderson, D. Ranasinghe, V. G. Zakrzewski, J. Gao, N. Rega, 
 G. Zheng, W. Liang, M. Hada, M. Ehara, K. Toyota, R. Fukuda, 
 J. Hasegawa, M. Ishida, T. Nakajima, Y. Honda, O. Kitao, H. Nakai, 
 T. Vreven, K. Throssell, J. A. Montgomery, Jr., J. E. Peralta, 
 F. Ogliaro, M. J. Bearpark, J. J. Heyd, E. N. Brothers, K. N. Kudin, 
 V. N. Staroverov, T. A. Keith, R. Kobayashi, J. Normand, 
 K. Raghavachari, A. P. Rendell, J. C. Burant, S. S. Iyengar, 
 J. Tomasi, M. Cossi, J. M. Millam, M. Klene, C. Adamo, R. Cammi, 
 J. W. Ochterski, R. L. Martin, K. Morokuma, O. Farkas, 
 J. B. Foresman, and D. J. Fox, Gaussian, Inc., Wallingford CT, 2016.
 
 ******************************************
 Gaussian 16:  ES64L-G16RevA.03 25-Dec-2016
                10-Jun-2022 
 ******************************************
 %nprocshared=12
 Will use up to   12 processors via shared memory.
 %chk=checkpoint.chk
 %mem=12GB
 --------------------------------------------------------------------
 # Opt=(TS, CalcFC, noeigentest) B3LYP/Def2TZVP freq=noraman pop=none
 --------------------------------------------------------------------
 1/5=1,10=4,11=1,18=20,26=3,38=1/1,3;
 2/9=110,12=2,17=6,18=5,40=1/2;
 3/5=44,7=101,11=2,25=1,30=1,71=2,74=-5,140=1/1,2,3;
 4//1;
 5/5=2,38=5/2;
 8/6=4,10=90,11=11/1;
 11/6=1,8=1,9=11,15=111,16=1/1,2,10;
 10/6=1,13=1/2;
 7/10=1,18=20,25=1/1,2,3,16;
 1/5=1,10=4,11=1,18=20,26=3/3(2);
 2/9=110/2;
 99//99;
 2/9=110/2;
 3/5=44,7=101,11=2,25=1,30=1,71=1,74=-5/1,2,3;
 4/5=5,16=3,69=1/1;
 5/5=2,38=5/2;
 7//1,2,3,16;
 1/5=1,11=1,18=20,26=3/3(-5);
 2/9=110/2;
 99/9=1/99;
 ------------
 ts_initalOpt
 ------------
 Symbolic Z-matrix:
 Charge =  0 Multiplicity = 1
 6                     2.6894    1.08625  -0.69034 
 6                     2.99748  -0.24652  -0.91845 
 1                     3.42956   1.77289  -0.30576 
 1                     1.82715   1.53393  -1.16324 
 6                     1.98754  -1.13304  -1.20307 
 1                     3.94762  -0.62773  -0.56024 
 16                    0.86944  -0.50324   1.07455 
 1                     2.15768  -2.20164  -1.20076 
 1                     1.06703  -0.79772  -1.66176 
 8                     1.63158   0.83004   1.06262 
 6                    -0.74809  -0.15833   0.41181 
 6                    -1.14933   1.14216   0.11705 
 1                    -0.46227   1.95952   0.29058 
 6                    -2.42923   1.3698   -0.37588 
 1                    -2.74139   2.38136  -0.6044 
 6                    -3.30994   0.31058  -0.56662 
 1                    -4.30659   0.49364  -0.94706 
 6                    -2.90628  -0.987    -0.26246 
 1                    -3.58813  -1.81568  -0.40703 
 6                    -1.62823  -1.22556   0.22318 
 1                    -1.31428  -2.23716   0.45464 
 
 Add virtual bond connecting atoms O10        and C1         Dist= 3.90D+00.

 GradGradGradGradGradGradGradGradGradGradGradGradGradGradGradGradGradGrad
 Berny optimization.
 Initialization pass.
                           ----------------------------
                           !    Initial Parameters    !
                           ! (Angstroms and Degrees)  !
 --------------------------                            --------------------------
 ! Name  Definition              Value          Derivative Info.                !
 --------------------------------------------------------------------------------
 ! R1    R(1,2)                  1.3868         calculate D2E/DX2 analytically  !
 ! R2    R(1,3)                  1.0804         calculate D2E/DX2 analytically  !
 ! R3    R(1,4)                  1.0805         calculate D2E/DX2 analytically  !
 ! R4    R(1,10)                 2.0634         calculate D2E/DX2 analytically  !
 ! R5    R(2,5)                  1.3736         calculate D2E/DX2 analytically  !
 ! R6    R(2,6)                  1.0846         calculate D2E/DX2 analytically  !
 ! R7    R(5,8)                  1.0821         calculate D2E/DX2 analytically  !
 ! R8    R(5,9)                  1.0818         calculate D2E/DX2 analytically  !
 ! R9    R(7,10)                 1.5358         calculate D2E/DX2 analytically  !
 ! R10   R(7,11)                 1.7817         calculate D2E/DX2 analytically  !
 ! R11   R(11,12)                1.3925         calculate D2E/DX2 analytically  !
 ! R12   R(11,20)                1.3961         calculate D2E/DX2 analytically  !
 ! R13   R(12,13)                1.0818         calculate D2E/DX2 analytically  !
 ! R14   R(12,14)                1.3903         calculate D2E/DX2 analytically  !
 ! R15   R(14,15)                1.083          calculate D2E/DX2 analytically  !
 ! R16   R(14,16)                1.3907         calculate D2E/DX2 analytically  !
 ! R17   R(16,17)                1.0824         calculate D2E/DX2 analytically  !
 ! R18   R(16,18)                1.3925         calculate D2E/DX2 analytically  !
 ! R19   R(18,19)                1.0828         calculate D2E/DX2 analytically  !
 ! R20   R(18,20)                1.3879         calculate D2E/DX2 analytically  !
 ! R21   R(20,21)                1.0842         calculate D2E/DX2 analytically  !
 ! A1    A(2,1,3)              121.1416         calculate D2E/DX2 analytically  !
 ! A2    A(2,1,4)              120.2293         calculate D2E/DX2 analytically  !
 ! A3    A(2,1,10)              97.718          calculate D2E/DX2 analytically  !
 ! A4    A(3,1,4)              116.0509         calculate D2E/DX2 analytically  !
 ! A5    A(3,1,10)              97.3381         calculate D2E/DX2 analytically  !
 ! A6    A(4,1,10)              90.8111         calculate D2E/DX2 analytically  !
 ! A7    A(1,2,5)              119.4056         calculate D2E/DX2 analytically  !
 ! A8    A(1,2,6)              118.5588         calculate D2E/DX2 analytically  !
 ! A9    A(5,2,6)              119.0557         calculate D2E/DX2 analytically  !
 ! A10   A(2,5,8)              121.4198         calculate D2E/DX2 analytically  !
 ! A11   A(2,5,9)              120.8932         calculate D2E/DX2 analytically  !
 ! A12   A(8,5,9)              116.1568         calculate D2E/DX2 analytically  !
 ! A13   A(10,7,11)            106.2347         calculate D2E/DX2 analytically  !
 ! A14   A(1,10,7)             111.642          calculate D2E/DX2 analytically  !
 ! A15   A(7,11,12)            121.4062         calculate D2E/DX2 analytically  !
 ! A16   A(7,11,20)            118.3329         calculate D2E/DX2 analytically  !
 ! A17   A(12,11,20)           120.241          calculate D2E/DX2 analytically  !
 ! A18   A(11,12,13)           119.2528         calculate D2E/DX2 analytically  !
 ! A19   A(11,12,14)           119.5526         calculate D2E/DX2 analytically  !
 ! A20   A(13,12,14)           121.1881         calculate D2E/DX2 analytically  !
 ! A21   A(12,14,15)           119.5439         calculate D2E/DX2 analytically  !
 ! A22   A(12,14,16)           120.459          calculate D2E/DX2 analytically  !
 ! A23   A(15,14,16)           119.9953         calculate D2E/DX2 analytically  !
 ! A24   A(14,16,17)           120.1671         calculate D2E/DX2 analytically  !
 ! A25   A(14,16,18)           119.7479         calculate D2E/DX2 analytically  !
 ! A26   A(17,16,18)           120.0847         calculate D2E/DX2 analytically  !
 ! A27   A(16,18,19)           120.0931         calculate D2E/DX2 analytically  !
 ! A28   A(16,18,20)           120.2344         calculate D2E/DX2 analytically  !
 ! A29   A(19,18,20)           119.6722         calculate D2E/DX2 analytically  !
 ! A30   A(11,20,18)           119.7628         calculate D2E/DX2 analytically  !
 ! A31   A(11,20,21)           120.1219         calculate D2E/DX2 analytically  !
 ! A32   A(18,20,21)           120.1152         calculate D2E/DX2 analytically  !
 ! D1    D(3,1,2,5)            169.7448         calculate D2E/DX2 analytically  !
 ! D2    D(3,1,2,6)              9.4452         calculate D2E/DX2 analytically  !
 ! D3    D(4,1,2,5)            -29.1787         calculate D2E/DX2 analytically  !
 ! D4    D(4,1,2,6)            170.5217         calculate D2E/DX2 analytically  !
 ! D5    D(10,1,2,5)            66.3016         calculate D2E/DX2 analytically  !
 ! D6    D(10,1,2,6)           -93.998          calculate D2E/DX2 analytically  !
 ! D7    D(2,1,10,7)           -33.0178         calculate D2E/DX2 analytically  !
 ! D8    D(3,1,10,7)          -155.95           calculate D2E/DX2 analytically  !
 ! D9    D(4,1,10,7)            87.6482         calculate D2E/DX2 analytically  !
 ! D10   D(1,2,5,8)           -168.196          calculate D2E/DX2 analytically  !
 ! D11   D(1,2,5,9)             26.4549         calculate D2E/DX2 analytically  !
 ! D12   D(6,2,5,8)             -7.9945         calculate D2E/DX2 analytically  !
 ! D13   D(6,2,5,9)           -173.3436         calculate D2E/DX2 analytically  !
 ! D14   D(11,7,10,1)          -91.4301         calculate D2E/DX2 analytically  !
 ! D15   D(10,7,11,12)          -5.9129         calculate D2E/DX2 analytically  !
 ! D16   D(10,7,11,20)         175.7024         calculate D2E/DX2 analytically  !
 ! D17   D(7,11,12,13)           0.2564         calculate D2E/DX2 analytically  !
 ! D18   D(7,11,12,14)        -178.8301         calculate D2E/DX2 analytically  !
 ! D19   D(20,11,12,13)        178.6106         calculate D2E/DX2 analytically  !
 ! D20   D(20,11,12,14)         -0.476          calculate D2E/DX2 analytically  !
 ! D21   D(7,11,20,18)         178.5298         calculate D2E/DX2 analytically  !
 ! D22   D(7,11,20,21)          -1.5094         calculate D2E/DX2 analytically  !
 ! D23   D(12,11,20,18)          0.1257         calculate D2E/DX2 analytically  !
 ! D24   D(12,11,20,21)       -179.9135         calculate D2E/DX2 analytically  !
 ! D25   D(11,12,14,15)        179.9552         calculate D2E/DX2 analytically  !
 ! D26   D(11,12,14,16)          0.435          calculate D2E/DX2 analytically  !
 ! D27   D(13,12,14,15)          0.8869         calculate D2E/DX2 analytically  !
 ! D28   D(13,12,14,16)       -178.6334         calculate D2E/DX2 analytically  !
 ! D29   D(12,14,16,17)        179.7647         calculate D2E/DX2 analytically  !
 ! D30   D(12,14,16,18)         -0.0434         calculate D2E/DX2 analytically  !
 ! D31   D(15,14,16,17)          0.2466         calculate D2E/DX2 analytically  !
 ! D32   D(15,14,16,18)       -179.5614         calculate D2E/DX2 analytically  !
 ! D33   D(14,16,18,19)        179.8832         calculate D2E/DX2 analytically  !
 ! D34   D(14,16,18,20)         -0.3112         calculate D2E/DX2 analytically  !
 ! D35   D(17,16,18,19)          0.0749         calculate D2E/DX2 analytically  !
 ! D36   D(17,16,18,20)        179.8806         calculate D2E/DX2 analytically  !
 ! D37   D(16,18,20,11)          0.2696         calculate D2E/DX2 analytically  !
 ! D38   D(16,18,20,21)       -179.6912         calculate D2E/DX2 analytically  !
 ! D39   D(19,18,20,11)       -179.9239         calculate D2E/DX2 analytically  !
 ! D40   D(19,18,20,21)          0.1153         calculate D2E/DX2 analytically  !
 --------------------------------------------------------------------------------
 Trust Radius=3.00D-01 FncErr=1.00D-07 GrdErr=1.00D-06 EigMax=2.50D+02 EigMin=1.00D-04
 Number of steps in this run=    103 maximum allowed number of steps=    126.
 Search for a saddle point of order  1.
 GradGradGradGradGradGradGradGradGradGradGradGradGradGradGradGradGradGrad

                          Input orientation:                          
 ---------------------------------------------------------------------
 Center     Atomic      Atomic             Coordinates (Angstroms)
 Number     Number       Type             X           Y           Z
 ---------------------------------------------------------------------
      1          6           0        2.689401    1.086251   -0.690343
      2          6           0        2.997476   -0.246516   -0.918450
      3          1           0        3.429557    1.772892   -0.305763
      4          1           0        1.827154    1.533929   -1.163239
      5          6           0        1.987544   -1.133040   -1.203070
      6          1           0        3.947622   -0.627732   -0.560242
      7         16           0        0.869444   -0.503237    1.074548
      8          1           0        2.157685   -2.201635   -1.200762
      9          1           0        1.067026   -0.797719   -1.661759
     10          8           0        1.631575    0.830044    1.062620
     11          6           0       -0.748087   -0.158333    0.411813
     12          6           0       -1.149335    1.142160    0.117048
     13          1           0       -0.462268    1.959518    0.290577
     14          6           0       -2.429227    1.369803   -0.375884
     15          1           0       -2.741391    2.381362   -0.604395
     16          6           0       -3.309943    0.310577   -0.566618
     17          1           0       -4.306592    0.493637   -0.947055
     18          6           0       -2.906278   -0.987002   -0.262461
     19          1           0       -3.588127   -1.815681   -0.407033
     20          6           0       -1.628232   -1.225563    0.223184
     21          1           0       -1.314283   -2.237162    0.454635
 ---------------------------------------------------------------------
                    Distance matrix (angstroms):
                    1          2          3          4          5
     1  C    0.000000
     2  C    1.386799   0.000000
     3  H    1.080374   2.154086   0.000000
     4  H    1.080517   2.144658   1.833048   0.000000
     5  C    2.383431   1.373643   3.365858   2.672084   0.000000
     6  H    2.130208   1.084627   2.469038   3.087518   2.123787
     7  S    2.992249   2.926853   3.693264   3.174105   2.614258
     8  H    3.369487   2.146495   4.267967   3.750346   1.082058
     9  H    2.669287   2.140787   3.745440   2.502579   1.081753
    10  O    2.063375   2.636154   2.448300   2.342681   3.018901
    11  C    3.818385   3.975754   4.658031   3.460694   3.322887
    12  C    3.923124   4.494076   4.641427   3.263756   4.093807
    13  H    3.414355   4.277635   3.941669   2.745207   4.218587
    14  C    5.136111   5.688231   5.873053   4.331702   5.143571
    15  H    5.583744   6.319728   6.208061   4.679963   5.922184
    16  C    6.050546   6.341741   6.901251   5.314350   5.527429
    17  H    7.025739   7.341529   7.867385   6.225093   6.505980
    18  C    5.982732   5.986063   6.910984   5.438003   4.985536
    19  H    6.921621   6.789256   7.882639   6.412254   5.673428
    20  C    4.982065   4.864055   5.903537   4.634291   3.888007
    21  H    5.327808   4.943612   6.258015   5.167908   3.856051
                    6          7          8          9         10
     6  H    0.000000
     7  S    3.487580   0.000000
     8  H    2.468058   3.117877   0.000000
     9  H    3.088700   2.759191   1.836583   0.000000
    10  O    3.181645   1.535781   3.819786   3.223441   0.000000
    11  C    4.818185   1.781736   3.901153   2.828984   2.657674
    12  C    5.437850   2.774816   4.884053   3.440863   2.953808
    13  H    5.183135   2.907444   5.138428   3.708465   2.501188
    14  C    6.684934   4.061190   5.871572   4.309920   4.341745
    15  H    7.334814   4.917102   6.735018   5.072338   4.930351
    16  C    7.317972   4.563222   6.050480   4.646021   5.229040
    17  H    8.339013   5.645528   7.008262   5.572627   6.278040
    18  C    6.869767   4.034563   5.291452   4.216753   5.064544
    19  H    7.630348   4.877246   5.813202   4.927579   6.033658
    20  C    5.662270   2.735866   4.160950   3.316697   3.944175
    21  H    5.595345   2.856475   3.846578   3.495962   4.295984
                   11         12         13         14         15
    11  C    0.000000
    12  C    1.392540   0.000000
    13  H    2.140487   1.081780   0.000000
    14  C    2.404558   1.390297   2.158903   0.000000
    15  H    3.384670   2.142602   2.484618   1.083012   0.000000
    16  C    2.782141   2.413950   3.400447   1.390683   2.147750
    17  H    3.864524   3.394285   4.296437   2.149047   2.476040
    18  C    2.408137   2.786433   3.867947   2.407275   3.389688
    19  H    3.388678   3.869262   4.950735   3.389886   4.286150
    20  C    1.396143   2.417999   3.392456   2.781439   3.864443
    21  H    2.154981   3.400146   4.285437   3.865625   4.948631
                   16         17         18         19         20
    16  C    0.000000
    17  H    1.082383   0.000000
    18  C    1.392540   2.149847   0.000000
    19  H    2.150309   2.478057   1.082833   0.000000
    20  C    2.410740   3.390976   1.387863   2.141635   0.000000
    21  H    3.393610   4.286713   2.147458   2.467891   1.084189
                   21
    21  H    0.000000
 Stoichiometry    C9H10OS
 Framework group  C1[X(C9H10OS)]
 Deg. of freedom    57
 Full point group                 C1      NOp   1
 Largest Abelian subgroup         C1      NOp   1
 Largest concise Abelian subgroup C1      NOp   1
                         Standard orientation:                         
 ---------------------------------------------------------------------
 Center     Atomic      Atomic             Coordinates (Angstroms)
 Number     Number       Type             X           Y           Z
 ---------------------------------------------------------------------
      1          6           0        2.689401    1.086251   -0.690343
      2          6           0        2.997476   -0.246516   -0.918450
      3          1           0        3.429557    1.772892   -0.305763
      4          1           0        1.827154    1.533929   -1.163239
      5          6           0        1.987544   -1.133040   -1.203070
      6          1           0        3.947622   -0.627732   -0.560242
      7         16           0        0.869444   -0.503237    1.074548
      8          1           0        2.157685   -2.201635   -1.200762
      9          1           0        1.067026   -0.797719   -1.661759
     10          8           0        1.631575    0.830044    1.062620
     11          6           0       -0.748087   -0.158333    0.411813
     12          6           0       -1.149335    1.142160    0.117048
     13          1           0       -0.462268    1.959518    0.290577
     14          6           0       -2.429227    1.369803   -0.375884
     15          1           0       -2.741391    2.381362   -0.604395
     16          6           0       -3.309943    0.310577   -0.566618
     17          1           0       -4.306592    0.493637   -0.947055
     18          6           0       -2.906278   -0.987002   -0.262461
     19          1           0       -3.588127   -1.815681   -0.407033
     20          6           0       -1.628232   -1.225563    0.223184
     21          1           0       -1.314283   -2.237162    0.454635
 ---------------------------------------------------------------------
 Rotational constants (GHZ):           1.9953412           0.5948234           0.5658211
 Standard basis: def2TZVP (5D, 7F)
 There are   462 symmetry adapted cartesian basis functions of A   symmetry.
 There are   407 symmetry adapted basis functions of A   symmetry.
   407 basis functions,   659 primitive gaussians,   462 cartesian basis functions
    44 alpha electrons       44 beta electrons
       nuclear repulsion energy       670.3376123566 Hartrees.
 NAtoms=   21 NActive=   21 NUniq=   21 SFac= 1.00D+00 NAtFMM=   60 NAOKFM=F Big=F
 Integral buffers will be    131072 words long.
 Raffenetti 2 integral format.
 Two-electron integral symmetry is turned on.
 One-electron integrals computed using PRISM.
   1 Symmetry operations used in ECPInt.
 ECPInt:  NShTT=   13366 NPrTT=   41614 LenC2=   12679 LenP2D=   29851.
 LDataN:  DoStor=T MaxTD1= 6 Len=  172
 NBasis=   407 RedAO= T EigKep=  8.37D-06  NBF=   407
 NBsUse=   407 1.00D-06 EigRej= -1.00D+00 NBFU=   407
 ExpMin= 9.52D-02 ExpMax= 6.07D+04 ExpMxC= 2.07D+03 IAcc=3 IRadAn=         5 AccDes= 0.00D+00
 Harris functional with IExCor=  402 and IRadAn=       5 diagonalized for initial guess.
 HarFok:  IExCor=  402 AccDes= 0.00D+00 IRadAn=         5 IDoV= 1 UseB2=F ITyADJ=14
 ICtDFT=  3500011 ScaDFX=  1.000000  1.000000  1.000000  1.000000
 FoFCou: FMM=F IPFlag=           0 FMFlag=      100000 FMFlg1=           0
         NFxFlg=           0 DoJE=T BraDBF=F KetDBF=T FulRan=T
         wScrn=  0.000000 ICntrl=       500 IOpCl=  0 I1Cent=   200000004 NGrid=           0
         NMat0=    1 NMatS0=      1 NMatT0=    0 NMatD0=    1 NMtDS0=    0 NMtDT0=    0
 Petite list used in FoFCou.
 Requested convergence on RMS density matrix=1.00D-08 within 128 cycles.
 Requested convergence on MAX density matrix=1.00D-06.
 Requested convergence on             energy=1.00D-06.
 No special actions if energy rises.
 Integral accuracy reduced to 1.0D-05 until final iterations.
 Problem detected with inexpensive integrals.
 Switching to full accuracy and repeating last cycle.
 SCF Done:  E(RB3LYP) =  -822.501782282     A.U. after   18 cycles
            NFock= 18  Conv=0.80D-08     -V/T= 2.0035
 DoSCS=F DFT=T ScalE2(SS,OS)=  1.000000  1.000000
 Range of M.O.s used for correlation:     1   407
 NBasis=   407 NAE=    44 NBE=    44 NFC=     0 NFV=     0
 NROrb=    407 NOA=    44 NOB=    44 NVA=   363 NVB=   363

 **** Warning!!: The largest alpha MO coefficient is  0.55268642D+02

   1 Symmetry operations used in ECPInt.
 ECPInt:  NShTT=   13366 NPrTT=   41614 LenC2=   12679 LenP2D=   29851.
 LDataN:  DoStor=T MaxTD1= 7 Len=  274
 Symmetrizing basis deriv contribution to polar:
 IMax=3 JMax=2 DiffMx= 0.00D+00
 G2DrvN: will do    22 centers at a time, making    1 passes.
 Calling FoFCou, ICntrl=  3107 FMM=F I1Cent=   0 AccDes= 0.00D+00.
 End of G2Drv F.D. properties file   721 does not exist.
 End of G2Drv F.D. properties file   722 does not exist.
 End of G2Drv F.D. properties file   788 does not exist.
          IDoAtm=111111111111111111111
          Differentiating once with respect to nuclear coordinates.
 CalDSu exits because no D1Ps are significant.
          There are    66 degrees of freedom in the 1st order CPHF.  IDoFFX=6 NUNeed=     0.
     60 vectors produced by pass  0 Test12= 2.42D-14 1.52D-09 XBig12= 1.46D-01 1.33D-01.
 AX will form    60 AO Fock derivatives at one time.
     60 vectors produced by pass  1 Test12= 2.42D-14 1.52D-09 XBig12= 1.68D-02 4.02D-02.
     60 vectors produced by pass  2 Test12= 2.42D-14 1.52D-09 XBig12= 2.11D-04 2.21D-03.
     60 vectors produced by pass  3 Test12= 2.42D-14 1.52D-09 XBig12= 8.85D-07 1.16D-04.
     60 vectors produced by pass  4 Test12= 2.42D-14 1.52D-09 XBig12= 3.46D-09 5.71D-06.
     60 vectors produced by pass  5 Test12= 2.42D-14 1.52D-09 XBig12= 6.33D-12 3.07D-07.
     19 vectors produced by pass  6 Test12= 2.42D-14 1.52D-09 XBig12= 7.69D-15 1.17D-08.
 InvSVY:  IOpt=1 It=  1 EMax= 3.89D-16
 Solved reduced A of dimension   379 with    66 vectors.
 End of Minotr F.D. properties file   721 does not exist.
 End of Minotr F.D. properties file   722 does not exist.
 End of Minotr F.D. properties file   788 does not exist.
   1 Symmetry operations used in ECPInt.
 ECPInt:  NShTT=   13366 NPrTT=   41614 LenC2=   12679 LenP2D=   29851.
 LDataN:  DoStor=T MaxTD1= 8 Len=  415
 Calling FoFJK, ICntrl=    100147 FMM=F ISym2X=0 I1Cent= 0 IOpClX= 0 NMat=1 NMatS=1 NMatT=0.
 ***** Axes restored to original set *****
 -------------------------------------------------------------------
 Center     Atomic                   Forces (Hartrees/Bohr)
 Number     Number              X              Y              Z
 -------------------------------------------------------------------
      1        6           0.000000487   -0.000000089    0.000000332
      2        6          -0.000001271    0.000002756    0.000000078
      3        1          -0.000000024    0.000000337    0.000000557
      4        1          -0.000000049    0.000001906   -0.000001425
      5        6          -0.000000858   -0.000000270    0.000003118
      6        1           0.000001404    0.000001955   -0.000001520
      7       16           0.000017117    0.000022337   -0.000003157
      8        1           0.000000985    0.000000344    0.000000814
      9        1           0.000000227   -0.000000092   -0.000000479
     10        8          -0.000017855   -0.000019747   -0.000000519
     11        6           0.000000093    0.000000239    0.000001520
     12        6           0.000000176   -0.000000613   -0.000002258
     13        1          -0.000000637    0.000000299   -0.000000183
     14        6          -0.000000293   -0.000001060   -0.000000054
     15        1          -0.000001207   -0.000001041   -0.000000936
     16        6          -0.000000470   -0.000000868   -0.000000126
     17        1          -0.000000570   -0.000002063   -0.000000168
     18        6           0.000000747   -0.000001804    0.000000208
     19        1           0.000000584   -0.000001828    0.000000949
     20        6           0.000000566   -0.000000245    0.000002032
     21        1           0.000000849   -0.000000452    0.000001219
 -------------------------------------------------------------------
 Cartesian Forces:  Max     0.000022337 RMS     0.000005010
 FormGI is forming the generalized inverse of G from B-inverse, IUseBI=4.

 GradGradGradGradGradGradGradGradGradGradGradGradGradGradGradGradGradGrad
 Berny optimization.
 Internal  Forces:  Max     0.000026954 RMS     0.000002936
 Search for a saddle point.
 Step number   1 out of a maximum of  103
 All quantities printed in internal units (Hartrees-Bohrs-Radians)
 Swapping is turned off.
 Second derivative matrix not updated -- analytic derivatives used.
 ITU=  0
     Eigenvalues ---   -0.03390   0.00898   0.01138   0.01633   0.01689
     Eigenvalues ---    0.01721   0.01870   0.01936   0.02241   0.02348
     Eigenvalues ---    0.02549   0.02681   0.02771   0.02815   0.03020
     Eigenvalues ---    0.03767   0.04725   0.07359   0.07908   0.08079
     Eigenvalues ---    0.10634   0.10804   0.10865   0.11236   0.11680
     Eigenvalues ---    0.12317   0.12617   0.12952   0.14564   0.15489
     Eigenvalues ---    0.16659   0.18806   0.18996   0.19455   0.22242
     Eigenvalues ---    0.25465   0.27894   0.33804   0.35182   0.35400
     Eigenvalues ---    0.35624   0.35629   0.35688   0.35909   0.36059
     Eigenvalues ---    0.36198   0.36366   0.36470   0.37257   0.40227
     Eigenvalues ---    0.41207   0.43412   0.46088   0.46208   0.50654
     Eigenvalues ---    0.54568   0.57558
 Eigenvectors required to have negative eigenvalues:
                          R4        A3        D11       A14       D4
   1                   -0.75860   0.25892  -0.24507   0.21396  -0.19313
                          D1        D13       D5        A5        R1
   1                    0.16475  -0.16323   0.16157  -0.12935   0.12618
 RFO step:  Lambda0=9.276505501D-10 Lambda= 0.00000000D+00.
 Linear search not attempted -- option 19 set.
 Iteration  1 RMS(Cart)=  0.00027466 RMS(Int)=  0.00000002
 Iteration  2 RMS(Cart)=  0.00000003 RMS(Int)=  0.00000000
 Variable       Old X    -DE/DX   Delta X   Delta X   Delta X     New X
                                 (Linear)    (Quad)   (Total)
    R1        2.62067  -0.00000   0.00000   0.00002   0.00002   2.62069
    R2        2.04161   0.00000   0.00000   0.00000   0.00000   2.04161
    R3        2.04188   0.00000   0.00000   0.00000   0.00000   2.04188
    R4        3.89921  -0.00000   0.00000  -0.00021  -0.00021   3.89901
    R5        2.59581   0.00000   0.00000  -0.00002  -0.00002   2.59579
    R6        2.04965   0.00000   0.00000   0.00000   0.00000   2.04965
    R7        2.04479   0.00000   0.00000   0.00000   0.00000   2.04479
    R8        2.04422   0.00000   0.00000   0.00000   0.00000   2.04422
    R9        2.90221  -0.00003   0.00000  -0.00005  -0.00005   2.90216
   R10        3.36699  -0.00000   0.00000  -0.00001  -0.00001   3.36699
   R11        2.63152  -0.00000   0.00000  -0.00000  -0.00000   2.63152
   R12        2.63833   0.00000   0.00000   0.00000   0.00000   2.63833
   R13        2.04427   0.00000   0.00000   0.00000   0.00000   2.04427
   R14        2.62728   0.00000   0.00000   0.00000   0.00000   2.62728
   R15        2.04660   0.00000   0.00000   0.00000   0.00000   2.04660
   R16        2.62801   0.00000   0.00000  -0.00000  -0.00000   2.62801
   R17        2.04541   0.00000   0.00000   0.00000   0.00000   2.04541
   R18        2.63152   0.00000   0.00000   0.00000   0.00000   2.63152
   R19        2.04626   0.00000   0.00000   0.00000   0.00000   2.04626
   R20        2.62268   0.00000   0.00000  -0.00000  -0.00000   2.62268
   R21        2.04882   0.00000   0.00000   0.00000   0.00000   2.04882
    A1        2.11432  -0.00000   0.00000  -0.00004  -0.00004   2.11428
    A2        2.09840   0.00000   0.00000   0.00001   0.00001   2.09841
    A3        1.70550  -0.00000   0.00000   0.00007   0.00007   1.70557
    A4        2.02547   0.00000   0.00000  -0.00001  -0.00001   2.02546
    A5        1.69887   0.00000   0.00000  -0.00001  -0.00001   1.69886
    A6        1.58495   0.00000   0.00000   0.00003   0.00003   1.58498
    A7        2.08402  -0.00000   0.00000   0.00001   0.00001   2.08404
    A8        2.06924   0.00000   0.00000  -0.00001  -0.00001   2.06923
    A9        2.07791  -0.00000   0.00000  -0.00000  -0.00000   2.07791
   A10        2.11918  -0.00000   0.00000   0.00000   0.00000   2.11918
   A11        2.10999   0.00000   0.00000   0.00001   0.00001   2.10999
   A12        2.02732  -0.00000   0.00000  -0.00000  -0.00000   2.02732
   A13        1.85415  -0.00000   0.00000   0.00000   0.00000   1.85415
   A14        1.94852  -0.00000   0.00000   0.00007   0.00007   1.94859
   A15        2.11894  -0.00000   0.00000   0.00001   0.00001   2.11895
   A16        2.06530   0.00000   0.00000  -0.00001  -0.00001   2.06529
   A17        2.09860   0.00000   0.00000  -0.00000  -0.00000   2.09860
   A18        2.08135  -0.00000   0.00000   0.00000   0.00000   2.08136
   A19        2.08659   0.00000   0.00000   0.00000   0.00000   2.08659
   A20        2.11513   0.00000   0.00000  -0.00000  -0.00000   2.11513
   A21        2.08644   0.00000   0.00000   0.00000   0.00000   2.08644
   A22        2.10241   0.00000   0.00000   0.00000   0.00000   2.10241
   A23        2.09431  -0.00000   0.00000  -0.00000  -0.00000   2.09431
   A24        2.09731   0.00000   0.00000   0.00000   0.00000   2.09731
   A25        2.08999  -0.00000   0.00000  -0.00000  -0.00000   2.08999
   A26        2.09587   0.00000   0.00000   0.00000   0.00000   2.09587
   A27        2.09602   0.00000   0.00000  -0.00000  -0.00000   2.09602
   A28        2.09849  -0.00000   0.00000   0.00000   0.00000   2.09849
   A29        2.08867   0.00000   0.00000  -0.00000  -0.00000   2.08867
   A30        2.09026  -0.00000   0.00000   0.00000   0.00000   2.09026
   A31        2.09652   0.00000   0.00000   0.00000   0.00000   2.09652
   A32        2.09641  -0.00000   0.00000  -0.00000  -0.00000   2.09640
    D1        2.96260  -0.00000   0.00000  -0.00007  -0.00007   2.96254
    D2        0.16485  -0.00000   0.00000  -0.00007  -0.00007   0.16478
    D3       -0.50926  -0.00000   0.00000  -0.00017  -0.00017  -0.50944
    D4        2.97617  -0.00000   0.00000  -0.00017  -0.00017   2.97599
    D5        1.15718  -0.00000   0.00000  -0.00009  -0.00009   1.15709
    D6       -1.64057  -0.00000   0.00000  -0.00009  -0.00009  -1.64067
    D7       -0.57627   0.00000   0.00000   0.00020   0.00020  -0.57607
    D8       -2.72184   0.00000   0.00000   0.00022   0.00022  -2.72162
    D9        1.52975   0.00000   0.00000   0.00023   0.00023   1.52998
   D10       -2.93557   0.00000   0.00000   0.00001   0.00001  -2.93556
   D11        0.46173   0.00000   0.00000  -0.00002  -0.00002   0.46170
   D12       -0.13953  -0.00000   0.00000   0.00001   0.00001  -0.13952
   D13       -3.02542   0.00000   0.00000  -0.00002  -0.00002  -3.02544
   D14       -1.59576  -0.00000   0.00000  -0.00014  -0.00014  -1.59589
   D15       -0.10320   0.00000   0.00000   0.00028   0.00028  -0.10292
   D16        3.06659   0.00000   0.00000   0.00026   0.00026   3.06685
   D17        0.00448  -0.00000   0.00000  -0.00006  -0.00006   0.00442
   D18       -3.12117  -0.00000   0.00000  -0.00002  -0.00002  -3.12120
   D19        3.11734  -0.00000   0.00000  -0.00004  -0.00004   3.11731
   D20       -0.00831  -0.00000   0.00000  -0.00000  -0.00000  -0.00831
   D21        3.11593   0.00000   0.00000   0.00004   0.00004   3.11597
   D22       -0.02634   0.00000   0.00000   0.00004   0.00004  -0.02631
   D23        0.00219   0.00000   0.00000   0.00001   0.00001   0.00221
   D24       -3.14008   0.00000   0.00000   0.00002   0.00002  -3.14007
   D25        3.14081  -0.00000   0.00000  -0.00001  -0.00001   3.14081
   D26        0.00759  -0.00000   0.00000  -0.00001  -0.00001   0.00758
   D27        0.01548   0.00000   0.00000   0.00003   0.00003   0.01550
   D28       -3.11774   0.00000   0.00000   0.00002   0.00002  -3.11772
   D29        3.13749   0.00000   0.00000   0.00000   0.00000   3.13749
   D30       -0.00076   0.00000   0.00000   0.00001   0.00001  -0.00075
   D31        0.00430   0.00000   0.00000   0.00000   0.00000   0.00431
   D32       -3.13394   0.00000   0.00000   0.00001   0.00001  -3.13393
   D33        3.13955  -0.00000   0.00000  -0.00001  -0.00001   3.13954
   D34       -0.00543   0.00000   0.00000  -0.00000  -0.00000  -0.00543
   D35        0.00131  -0.00000   0.00000  -0.00001  -0.00001   0.00130
   D36        3.13951   0.00000   0.00000   0.00001   0.00001   3.13951
   D37        0.00471  -0.00000   0.00000  -0.00001  -0.00001   0.00469
   D38       -3.13620  -0.00000   0.00000  -0.00001  -0.00001  -3.13622
   D39       -3.14027  -0.00000   0.00000   0.00000   0.00000  -3.14026
   D40        0.00201   0.00000   0.00000  -0.00000  -0.00000   0.00201
         Item               Value     Threshold  Converged?
 Maximum Force            0.000027     0.000450     YES
 RMS     Force            0.000003     0.000300     YES
 Maximum Displacement     0.000880     0.001800     YES
 RMS     Displacement     0.000275     0.001200     YES
 Predicted change in Energy=-2.519129D-09
 Optimization completed.
    -- Stationary point found.
                           ----------------------------
                           !   Optimized Parameters   !
                           ! (Angstroms and Degrees)  !
 --------------------------                            --------------------------
 ! Name  Definition              Value          Derivative Info.                !
 --------------------------------------------------------------------------------
 ! R1    R(1,2)                  1.3868         -DE/DX =    0.0                 !
 ! R2    R(1,3)                  1.0804         -DE/DX =    0.0                 !
 ! R3    R(1,4)                  1.0805         -DE/DX =    0.0                 !
 ! R4    R(1,10)                 2.0634         -DE/DX =    0.0                 !
 ! R5    R(2,5)                  1.3736         -DE/DX =    0.0                 !
 ! R6    R(2,6)                  1.0846         -DE/DX =    0.0                 !
 ! R7    R(5,8)                  1.0821         -DE/DX =    0.0                 !
 ! R8    R(5,9)                  1.0818         -DE/DX =    0.0                 !
 ! R9    R(7,10)                 1.5358         -DE/DX =    0.0                 !
 ! R10   R(7,11)                 1.7817         -DE/DX =    0.0                 !
 ! R11   R(11,12)                1.3925         -DE/DX =    0.0                 !
 ! R12   R(11,20)                1.3961         -DE/DX =    0.0                 !
 ! R13   R(12,13)                1.0818         -DE/DX =    0.0                 !
 ! R14   R(12,14)                1.3903         -DE/DX =    0.0                 !
 ! R15   R(14,15)                1.083          -DE/DX =    0.0                 !
 ! R16   R(14,16)                1.3907         -DE/DX =    0.0                 !
 ! R17   R(16,17)                1.0824         -DE/DX =    0.0                 !
 ! R18   R(16,18)                1.3925         -DE/DX =    0.0                 !
 ! R19   R(18,19)                1.0828         -DE/DX =    0.0                 !
 ! R20   R(18,20)                1.3879         -DE/DX =    0.0                 !
 ! R21   R(20,21)                1.0842         -DE/DX =    0.0                 !
 ! A1    A(2,1,3)              121.1416         -DE/DX =    0.0                 !
 ! A2    A(2,1,4)              120.2293         -DE/DX =    0.0                 !
 ! A3    A(2,1,10)              97.718          -DE/DX =    0.0                 !
 ! A4    A(3,1,4)              116.0509         -DE/DX =    0.0                 !
 ! A5    A(3,1,10)              97.3381         -DE/DX =    0.0                 !
 ! A6    A(4,1,10)              90.8111         -DE/DX =    0.0                 !
 ! A7    A(1,2,5)              119.4056         -DE/DX =    0.0                 !
 ! A8    A(1,2,6)              118.5588         -DE/DX =    0.0                 !
 ! A9    A(5,2,6)              119.0557         -DE/DX =    0.0                 !
 ! A10   A(2,5,8)              121.4198         -DE/DX =    0.0                 !
 ! A11   A(2,5,9)              120.8932         -DE/DX =    0.0                 !
 ! A12   A(8,5,9)              116.1568         -DE/DX =    0.0                 !
 ! A13   A(10,7,11)            106.2347         -DE/DX =    0.0                 !
 ! A14   A(1,10,7)             111.642          -DE/DX =    0.0                 !
 ! A15   A(7,11,12)            121.4062         -DE/DX =    0.0                 !
 ! A16   A(7,11,20)            118.3329         -DE/DX =    0.0                 !
 ! A17   A(12,11,20)           120.241          -DE/DX =    0.0                 !
 ! A18   A(11,12,13)           119.2528         -DE/DX =    0.0                 !
 ! A19   A(11,12,14)           119.5526         -DE/DX =    0.0                 !
 ! A20   A(13,12,14)           121.1881         -DE/DX =    0.0                 !
 ! A21   A(12,14,15)           119.5439         -DE/DX =    0.0                 !
 ! A22   A(12,14,16)           120.459          -DE/DX =    0.0                 !
 ! A23   A(15,14,16)           119.9953         -DE/DX =    0.0                 !
 ! A24   A(14,16,17)           120.1671         -DE/DX =    0.0                 !
 ! A25   A(14,16,18)           119.7479         -DE/DX =    0.0                 !
 ! A26   A(17,16,18)           120.0847         -DE/DX =    0.0                 !
 ! A27   A(16,18,19)           120.0931         -DE/DX =    0.0                 !
 ! A28   A(16,18,20)           120.2344         -DE/DX =    0.0                 !
 ! A29   A(19,18,20)           119.6722         -DE/DX =    0.0                 !
 ! A30   A(11,20,18)           119.7628         -DE/DX =    0.0                 !
 ! A31   A(11,20,21)           120.1219         -DE/DX =    0.0                 !
 ! A32   A(18,20,21)           120.1152         -DE/DX =    0.0                 !
 ! D1    D(3,1,2,5)            169.7448         -DE/DX =    0.0                 !
 ! D2    D(3,1,2,6)              9.4452         -DE/DX =    0.0                 !
 ! D3    D(4,1,2,5)            -29.1787         -DE/DX =    0.0                 !
 ! D4    D(4,1,2,6)            170.5217         -DE/DX =    0.0                 !
 ! D5    D(10,1,2,5)            66.3016         -DE/DX =    0.0                 !
 ! D6    D(10,1,2,6)           -93.998          -DE/DX =    0.0                 !
 ! D7    D(2,1,10,7)           -33.0178         -DE/DX =    0.0                 !
 ! D8    D(3,1,10,7)          -155.95           -DE/DX =    0.0                 !
 ! D9    D(4,1,10,7)            87.6482         -DE/DX =    0.0                 !
 ! D10   D(1,2,5,8)           -168.196          -DE/DX =    0.0                 !
 ! D11   D(1,2,5,9)             26.4549         -DE/DX =    0.0                 !
 ! D12   D(6,2,5,8)             -7.9945         -DE/DX =    0.0                 !
 ! D13   D(6,2,5,9)           -173.3436         -DE/DX =    0.0                 !
 ! D14   D(11,7,10,1)          -91.4301         -DE/DX =    0.0                 !
 ! D15   D(10,7,11,12)          -5.9129         -DE/DX =    0.0                 !
 ! D16   D(10,7,11,20)         175.7024         -DE/DX =    0.0                 !
 ! D17   D(7,11,12,13)           0.2564         -DE/DX =    0.0                 !
 ! D18   D(7,11,12,14)        -178.8301         -DE/DX =    0.0                 !
 ! D19   D(20,11,12,13)        178.6106         -DE/DX =    0.0                 !
 ! D20   D(20,11,12,14)         -0.476          -DE/DX =    0.0                 !
 ! D21   D(7,11,20,18)         178.5298         -DE/DX =    0.0                 !
 ! D22   D(7,11,20,21)          -1.5094         -DE/DX =    0.0                 !
 ! D23   D(12,11,20,18)          0.1257         -DE/DX =    0.0                 !
 ! D24   D(12,11,20,21)       -179.9135         -DE/DX =    0.0                 !
 ! D25   D(11,12,14,15)        179.9552         -DE/DX =    0.0                 !
 ! D26   D(11,12,14,16)          0.435          -DE/DX =    0.0                 !
 ! D27   D(13,12,14,15)          0.8869         -DE/DX =    0.0                 !
 ! D28   D(13,12,14,16)       -178.6334         -DE/DX =    0.0                 !
 ! D29   D(12,14,16,17)        179.7647         -DE/DX =    0.0                 !
 ! D30   D(12,14,16,18)         -0.0434         -DE/DX =    0.0                 !
 ! D31   D(15,14,16,17)          0.2466         -DE/DX =    0.0                 !
 ! D32   D(15,14,16,18)       -179.5614         -DE/DX =    0.0                 !
 ! D33   D(14,16,18,19)        179.8832         -DE/DX =    0.0                 !
 ! D34   D(14,16,18,20)         -0.3112         -DE/DX =    0.0                 !
 ! D35   D(17,16,18,19)          0.0749         -DE/DX =    0.0                 !
 ! D36   D(17,16,18,20)        179.8806         -DE/DX =    0.0                 !
 ! D37   D(16,18,20,11)          0.2696         -DE/DX =    0.0                 !
 ! D38   D(16,18,20,21)       -179.6912         -DE/DX =    0.0                 !
 ! D39   D(19,18,20,11)       -179.9239         -DE/DX =    0.0                 !
 ! D40   D(19,18,20,21)          0.1153         -DE/DX =    0.0                 !
 --------------------------------------------------------------------------------
 GradGradGradGradGradGradGradGradGradGradGradGradGradGradGradGradGradGrad

                          Input orientation:                          
 ---------------------------------------------------------------------
 Center     Atomic      Atomic             Coordinates (Angstroms)
 Number     Number       Type             X           Y           Z
 ---------------------------------------------------------------------
      1          6           0        2.689401    1.086251   -0.690343
      2          6           0        2.997476   -0.246516   -0.918450
      3          1           0        3.429557    1.772892   -0.305763
      4          1           0        1.827154    1.533929   -1.163239
      5          6           0        1.987544   -1.133040   -1.203070
      6          1           0        3.947622   -0.627732   -0.560242
      7         16           0        0.869444   -0.503237    1.074548
      8          1           0        2.157685   -2.201635   -1.200762
      9          1           0        1.067026   -0.797719   -1.661759
     10          8           0        1.631575    0.830044    1.062620
     11          6           0       -0.748087   -0.158333    0.411813
     12          6           0       -1.149335    1.142160    0.117048
     13          1           0       -0.462268    1.959518    0.290577
     14          6           0       -2.429227    1.369803   -0.375884
     15          1           0       -2.741391    2.381362   -0.604395
     16          6           0       -3.309943    0.310577   -0.566618
     17          1           0       -4.306592    0.493637   -0.947055
     18          6           0       -2.906278   -0.987002   -0.262461
     19          1           0       -3.588127   -1.815681   -0.407033
     20          6           0       -1.628232   -1.225563    0.223184
     21          1           0       -1.314283   -2.237162    0.454635
 ---------------------------------------------------------------------
                    Distance matrix (angstroms):
                    1          2          3          4          5
     1  C    0.000000
     2  C    1.386799   0.000000
     3  H    1.080374   2.154086   0.000000
     4  H    1.080517   2.144658   1.833048   0.000000
     5  C    2.383431   1.373643   3.365858   2.672084   0.000000
     6  H    2.130208   1.084627   2.469038   3.087518   2.123787
     7  S    2.992249   2.926853   3.693264   3.174105   2.614258
     8  H    3.369487   2.146495   4.267967   3.750346   1.082058
     9  H    2.669287   2.140787   3.745440   2.502579   1.081753
    10  O    2.063375   2.636154   2.448300   2.342681   3.018901
    11  C    3.818385   3.975754   4.658031   3.460694   3.322887
    12  C    3.923124   4.494076   4.641427   3.263756   4.093807
    13  H    3.414355   4.277635   3.941669   2.745207   4.218587
    14  C    5.136111   5.688231   5.873053   4.331702   5.143571
    15  H    5.583744   6.319728   6.208061   4.679963   5.922184
    16  C    6.050546   6.341741   6.901251   5.314350   5.527429
    17  H    7.025739   7.341529   7.867385   6.225093   6.505980
    18  C    5.982732   5.986063   6.910984   5.438003   4.985536
    19  H    6.921621   6.789256   7.882639   6.412254   5.673428
    20  C    4.982065   4.864055   5.903537   4.634291   3.888007
    21  H    5.327808   4.943612   6.258015   5.167908   3.856051
                    6          7          8          9         10
     6  H    0.000000
     7  S    3.487580   0.000000
     8  H    2.468058   3.117877   0.000000
     9  H    3.088700   2.759191   1.836583   0.000000
    10  O    3.181645   1.535781   3.819786   3.223441   0.000000
    11  C    4.818185   1.781736   3.901153   2.828984   2.657674
    12  C    5.437850   2.774816   4.884053   3.440863   2.953808
    13  H    5.183135   2.907444   5.138428   3.708465   2.501188
    14  C    6.684934   4.061190   5.871572   4.309920   4.341745
    15  H    7.334814   4.917102   6.735018   5.072338   4.930351
    16  C    7.317972   4.563222   6.050480   4.646021   5.229040
    17  H    8.339013   5.645528   7.008262   5.572627   6.278040
    18  C    6.869767   4.034563   5.291452   4.216753   5.064544
    19  H    7.630348   4.877246   5.813202   4.927579   6.033658
    20  C    5.662270   2.735866   4.160950   3.316697   3.944175
    21  H    5.595345   2.856475   3.846578   3.495962   4.295984
                   11         12         13         14         15
    11  C    0.000000
    12  C    1.392540   0.000000
    13  H    2.140487   1.081780   0.000000
    14  C    2.404558   1.390297   2.158903   0.000000
    15  H    3.384670   2.142602   2.484618   1.083012   0.000000
    16  C    2.782141   2.413950   3.400447   1.390683   2.147750
    17  H    3.864524   3.394285   4.296437   2.149047   2.476040
    18  C    2.408137   2.786433   3.867947   2.407275   3.389688
    19  H    3.388678   3.869262   4.950735   3.389886   4.286150
    20  C    1.396143   2.417999   3.392456   2.781439   3.864443
    21  H    2.154981   3.400146   4.285437   3.865625   4.948631
                   16         17         18         19         20
    16  C    0.000000
    17  H    1.082383   0.000000
    18  C    1.392540   2.149847   0.000000
    19  H    2.150309   2.478057   1.082833   0.000000
    20  C    2.410740   3.390976   1.387863   2.141635   0.000000
    21  H    3.393610   4.286713   2.147458   2.467891   1.084189
                   21
    21  H    0.000000
 Stoichiometry    C9H10OS
 Framework group  C1[X(C9H10OS)]
 Deg. of freedom    57
 Full point group                 C1      NOp   1
 Largest Abelian subgroup         C1      NOp   1
 Largest concise Abelian subgroup C1      NOp   1
                         Standard orientation:                         
 ---------------------------------------------------------------------
 Center     Atomic      Atomic             Coordinates (Angstroms)
 Number     Number       Type             X           Y           Z
 ---------------------------------------------------------------------
      1          6           0        2.689401    1.086251   -0.690343
      2          6           0        2.997476   -0.246516   -0.918450
      3          1           0        3.429557    1.772892   -0.305763
      4          1           0        1.827154    1.533929   -1.163239
      5          6           0        1.987544   -1.133040   -1.203070
      6          1           0        3.947622   -0.627732   -0.560242
      7         16           0        0.869444   -0.503237    1.074548
      8          1           0        2.157685   -2.201635   -1.200762
      9          1           0        1.067026   -0.797719   -1.661759
     10          8           0        1.631575    0.830044    1.062620
     11          6           0       -0.748087   -0.158333    0.411813
     12          6           0       -1.149335    1.142160    0.117048
     13          1           0       -0.462268    1.959518    0.290577
     14          6           0       -2.429227    1.369803   -0.375884
     15          1           0       -2.741391    2.381362   -0.604395
     16          6           0       -3.309943    0.310577   -0.566618
     17          1           0       -4.306592    0.493637   -0.947055
     18          6           0       -2.906278   -0.987002   -0.262461
     19          1           0       -3.588127   -1.815681   -0.407033
     20          6           0       -1.628232   -1.225563    0.223184
     21          1           0       -1.314283   -2.237162    0.454635
 ---------------------------------------------------------------------
 Rotational constants (GHZ):           1.9953412           0.5948234           0.5658211
 1\1\GINC-BHC0031\FTS\RB3LYP\def2TZVP\C9H10O1S1\DHANAWAY\10-Jun-2022\0\
 \# Opt=(TS, CalcFC, noeigentest) B3LYP/Def2TZVP freq=noraman pop=none\
 \ts_initalOpt\\0,1\C,2.689401,1.086251,-0.690343\C,2.997476,-0.246516,
 -0.91845\H,3.429557,1.772892,-0.305763\H,1.827154,1.533929,-1.163239\C
 ,1.987544,-1.13304,-1.20307\H,3.947622,-0.627732,-0.560242\S,0.869444,
 -0.503237,1.074548\H,2.157685,-2.201635,-1.200762\H,1.067026,-0.797719
 ,-1.661759\O,1.631575,0.830044,1.06262\C,-0.748087,-0.158333,0.411813\
 C,-1.149335,1.14216,0.117048\H,-0.462268,1.959518,0.290577\C,-2.429227
 ,1.369803,-0.375884\H,-2.741391,2.381362,-0.604395\C,-3.309943,0.31057
 7,-0.566618\H,-4.306592,0.493637,-0.947055\C,-2.906278,-0.987002,-0.26
 2461\H,-3.588127,-1.815681,-0.407033\C,-1.628232,-1.225563,0.223184\H,
 -1.314283,-2.237162,0.454635\\Version=ES64L-G16RevA.03\HF=-822.5017823
 \RMSD=8.006e-09\RMSF=5.010e-06\Dipole=-0.3785316,-0.2938561,-0.6351478
 \Polar=0.,0.,0.,0.,0.,0.\PG=C01 [X(C9H10O1S1)]\\@


 FOR THE NATURE OF THE CHEMICAL BOND
 IS THE PROBLEM AT THE HEART OF ALL CHEMISTRY.

                     -- BRYCE CRAWFORD, JR., 1953
 Job cpu time:       0 days  3 hours 17 minutes 43.9 seconds.
 Elapsed time:       0 days  0 hours 16 minutes 29.1 seconds.
 File lengths (MBytes):  RWF=    306 Int=      0 D2E=      0 Chk=     32 Scr=      1
 Normal termination of Gaussian 16 at Fri Jun 10 10:46:51 2022.
 Link1:  Proceeding to internal job step number  2.
 --------------------------------------------------------------------
 #N Geom=AllCheck Guess=TCheck SCRF=Check GenChk RB3LYP/def2TZVP Freq
 --------------------------------------------------------------------
 1/5=1,10=4,11=1,29=7,30=1,38=1,40=1/1,3;
 2/12=2,40=1/2;
 3/5=44,7=101,11=2,14=-4,25=1,30=1,70=2,71=2,74=-5,116=1,140=1/1,2,3;
 4/5=101/1;
 5/5=2,38=6,98=1/2;
 8/6=4,10=90,11=11/1;
 11/6=1,8=1,9=11,15=111,16=1/1,2,10;
 10/6=1/2;
 7/8=1,10=1,25=1/1,2,3,16;
 1/5=1,10=4,11=1,30=1/3;
 99//99;
 Structure from the checkpoint file:  "checkpoint.chk"
 ------------
 ts_initalOpt
 ------------
 Charge =  0 Multiplicity = 1
 Redundant internal coordinates found in file.  (old form).
 C,0,2.689401,1.086251,-0.690343
 C,0,2.997476,-0.246516,-0.91845
 H,0,3.429557,1.772892,-0.305763
 H,0,1.827154,1.533929,-1.163239
 C,0,1.987544,-1.13304,-1.20307
 H,0,3.947622,-0.627732,-0.560242
 S,0,0.869444,-0.503237,1.074548
 H,0,2.157685,-2.201635,-1.200762
 H,0,1.067026,-0.797719,-1.661759
 O,0,1.631575,0.830044,1.06262
 C,0,-0.748087,-0.158333,0.411813
 C,0,-1.149335,1.14216,0.117048
 H,0,-0.462268,1.959518,0.290577
 C,0,-2.429227,1.369803,-0.375884
 H,0,-2.741391,2.381362,-0.604395
 C,0,-3.309943,0.310577,-0.566618
 H,0,-4.306592,0.493637,-0.947055
 C,0,-2.906278,-0.987002,-0.262461
 H,0,-3.588127,-1.815681,-0.407033
 C,0,-1.628232,-1.225563,0.223184
 H,0,-1.314283,-2.237162,0.454635
 Recover connectivity data from disk.

 GradGradGradGradGradGradGradGradGradGradGradGradGradGradGradGradGradGrad
 Berny optimization.
 Initialization pass.
                           ----------------------------
                           !    Initial Parameters    !
                           ! (Angstroms and Degrees)  !
 --------------------------                            --------------------------
 ! Name  Definition              Value          Derivative Info.                !
 --------------------------------------------------------------------------------
 ! R1    R(1,2)                  1.3868         calculate D2E/DX2 analytically  !
 ! R2    R(1,3)                  1.0804         calculate D2E/DX2 analytically  !
 ! R3    R(1,4)                  1.0805         calculate D2E/DX2 analytically  !
 ! R4    R(1,10)                 2.0634         calculate D2E/DX2 analytically  !
 ! R5    R(2,5)                  1.3736         calculate D2E/DX2 analytically  !
 ! R6    R(2,6)                  1.0846         calculate D2E/DX2 analytically  !
 ! R7    R(5,8)                  1.0821         calculate D2E/DX2 analytically  !
 ! R8    R(5,9)                  1.0818         calculate D2E/DX2 analytically  !
 ! R9    R(7,10)                 1.5358         calculate D2E/DX2 analytically  !
 ! R10   R(7,11)                 1.7817         calculate D2E/DX2 analytically  !
 ! R11   R(11,12)                1.3925         calculate D2E/DX2 analytically  !
 ! R12   R(11,20)                1.3961         calculate D2E/DX2 analytically  !
 ! R13   R(12,13)                1.0818         calculate D2E/DX2 analytically  !
 ! R14   R(12,14)                1.3903         calculate D2E/DX2 analytically  !
 ! R15   R(14,15)                1.083          calculate D2E/DX2 analytically  !
 ! R16   R(14,16)                1.3907         calculate D2E/DX2 analytically  !
 ! R17   R(16,17)                1.0824         calculate D2E/DX2 analytically  !
 ! R18   R(16,18)                1.3925         calculate D2E/DX2 analytically  !
 ! R19   R(18,19)                1.0828         calculate D2E/DX2 analytically  !
 ! R20   R(18,20)                1.3879         calculate D2E/DX2 analytically  !
 ! R21   R(20,21)                1.0842         calculate D2E/DX2 analytically  !
 ! A1    A(2,1,3)              121.1416         calculate D2E/DX2 analytically  !
 ! A2    A(2,1,4)              120.2293         calculate D2E/DX2 analytically  !
 ! A3    A(2,1,10)              97.718          calculate D2E/DX2 analytically  !
 ! A4    A(3,1,4)              116.0509         calculate D2E/DX2 analytically  !
 ! A5    A(3,1,10)              97.3381         calculate D2E/DX2 analytically  !
 ! A6    A(4,1,10)              90.8111         calculate D2E/DX2 analytically  !
 ! A7    A(1,2,5)              119.4056         calculate D2E/DX2 analytically  !
 ! A8    A(1,2,6)              118.5588         calculate D2E/DX2 analytically  !
 ! A9    A(5,2,6)              119.0557         calculate D2E/DX2 analytically  !
 ! A10   A(2,5,8)              121.4198         calculate D2E/DX2 analytically  !
 ! A11   A(2,5,9)              120.8932         calculate D2E/DX2 analytically  !
 ! A12   A(8,5,9)              116.1568         calculate D2E/DX2 analytically  !
 ! A13   A(10,7,11)            106.2347         calculate D2E/DX2 analytically  !
 ! A14   A(1,10,7)             111.642          calculate D2E/DX2 analytically  !
 ! A15   A(7,11,12)            121.4062         calculate D2E/DX2 analytically  !
 ! A16   A(7,11,20)            118.3329         calculate D2E/DX2 analytically  !
 ! A17   A(12,11,20)           120.241          calculate D2E/DX2 analytically  !
 ! A18   A(11,12,13)           119.2528         calculate D2E/DX2 analytically  !
 ! A19   A(11,12,14)           119.5526         calculate D2E/DX2 analytically  !
 ! A20   A(13,12,14)           121.1881         calculate D2E/DX2 analytically  !
 ! A21   A(12,14,15)           119.5439         calculate D2E/DX2 analytically  !
 ! A22   A(12,14,16)           120.459          calculate D2E/DX2 analytically  !
 ! A23   A(15,14,16)           119.9953         calculate D2E/DX2 analytically  !
 ! A24   A(14,16,17)           120.1671         calculate D2E/DX2 analytically  !
 ! A25   A(14,16,18)           119.7479         calculate D2E/DX2 analytically  !
 ! A26   A(17,16,18)           120.0847         calculate D2E/DX2 analytically  !
 ! A27   A(16,18,19)           120.0931         calculate D2E/DX2 analytically  !
 ! A28   A(16,18,20)           120.2344         calculate D2E/DX2 analytically  !
 ! A29   A(19,18,20)           119.6722         calculate D2E/DX2 analytically  !
 ! A30   A(11,20,18)           119.7628         calculate D2E/DX2 analytically  !
 ! A31   A(11,20,21)           120.1219         calculate D2E/DX2 analytically  !
 ! A32   A(18,20,21)           120.1152         calculate D2E/DX2 analytically  !
 ! D1    D(3,1,2,5)            169.7448         calculate D2E/DX2 analytically  !
 ! D2    D(3,1,2,6)              9.4452         calculate D2E/DX2 analytically  !
 ! D3    D(4,1,2,5)            -29.1787         calculate D2E/DX2 analytically  !
 ! D4    D(4,1,2,6)            170.5217         calculate D2E/DX2 analytically  !
 ! D5    D(10,1,2,5)            66.3016         calculate D2E/DX2 analytically  !
 ! D6    D(10,1,2,6)           -93.998          calculate D2E/DX2 analytically  !
 ! D7    D(2,1,10,7)           -33.0178         calculate D2E/DX2 analytically  !
 ! D8    D(3,1,10,7)          -155.95           calculate D2E/DX2 analytically  !
 ! D9    D(4,1,10,7)            87.6482         calculate D2E/DX2 analytically  !
 ! D10   D(1,2,5,8)           -168.196          calculate D2E/DX2 analytically  !
 ! D11   D(1,2,5,9)             26.4549         calculate D2E/DX2 analytically  !
 ! D12   D(6,2,5,8)             -7.9945         calculate D2E/DX2 analytically  !
 ! D13   D(6,2,5,9)           -173.3436         calculate D2E/DX2 analytically  !
 ! D14   D(11,7,10,1)          -91.4301         calculate D2E/DX2 analytically  !
 ! D15   D(10,7,11,12)          -5.9129         calculate D2E/DX2 analytically  !
 ! D16   D(10,7,11,20)         175.7024         calculate D2E/DX2 analytically  !
 ! D17   D(7,11,12,13)           0.2564         calculate D2E/DX2 analytically  !
 ! D18   D(7,11,12,14)        -178.8301         calculate D2E/DX2 analytically  !
 ! D19   D(20,11,12,13)        178.6106         calculate D2E/DX2 analytically  !
 ! D20   D(20,11,12,14)         -0.476          calculate D2E/DX2 analytically  !
 ! D21   D(7,11,20,18)         178.5298         calculate D2E/DX2 analytically  !
 ! D22   D(7,11,20,21)          -1.5094         calculate D2E/DX2 analytically  !
 ! D23   D(12,11,20,18)          0.1257         calculate D2E/DX2 analytically  !
 ! D24   D(12,11,20,21)       -179.9135         calculate D2E/DX2 analytically  !
 ! D25   D(11,12,14,15)        179.9552         calculate D2E/DX2 analytically  !
 ! D26   D(11,12,14,16)          0.435          calculate D2E/DX2 analytically  !
 ! D27   D(13,12,14,15)          0.8869         calculate D2E/DX2 analytically  !
 ! D28   D(13,12,14,16)       -178.6334         calculate D2E/DX2 analytically  !
 ! D29   D(12,14,16,17)        179.7647         calculate D2E/DX2 analytically  !
 ! D30   D(12,14,16,18)         -0.0434         calculate D2E/DX2 analytically  !
 ! D31   D(15,14,16,17)          0.2466         calculate D2E/DX2 analytically  !
 ! D32   D(15,14,16,18)       -179.5614         calculate D2E/DX2 analytically  !
 ! D33   D(14,16,18,19)        179.8832         calculate D2E/DX2 analytically  !
 ! D34   D(14,16,18,20)         -0.3112         calculate D2E/DX2 analytically  !
 ! D35   D(17,16,18,19)          0.0749         calculate D2E/DX2 analytically  !
 ! D36   D(17,16,18,20)        179.8806         calculate D2E/DX2 analytically  !
 ! D37   D(16,18,20,11)          0.2696         calculate D2E/DX2 analytically  !
 ! D38   D(16,18,20,21)       -179.6912         calculate D2E/DX2 analytically  !
 ! D39   D(19,18,20,11)       -179.9239         calculate D2E/DX2 analytically  !
 ! D40   D(19,18,20,21)          0.1153         calculate D2E/DX2 analytically  !
 --------------------------------------------------------------------------------
 Trust Radius=3.00D-01 FncErr=1.00D-07 GrdErr=1.00D-07 EigMax=2.50D+02 EigMin=1.00D-04
 Number of steps in this run=      2 maximum allowed number of steps=      2.
 Search for a saddle point of order  1.
 GradGradGradGradGradGradGradGradGradGradGradGradGradGradGradGradGradGrad

                          Input orientation:                          
 ---------------------------------------------------------------------
 Center     Atomic      Atomic             Coordinates (Angstroms)
 Number     Number       Type             X           Y           Z
 ---------------------------------------------------------------------
      1          6           0        2.689401    1.086251   -0.690343
      2          6           0        2.997476   -0.246516   -0.918450
      3          1           0        3.429557    1.772892   -0.305763
      4          1           0        1.827154    1.533929   -1.163239
      5          6           0        1.987544   -1.133040   -1.203070
      6          1           0        3.947622   -0.627732   -0.560242
      7         16           0        0.869444   -0.503237    1.074548
      8          1           0        2.157685   -2.201635   -1.200762
      9          1           0        1.067026   -0.797719   -1.661759
     10          8           0        1.631575    0.830044    1.062620
     11          6           0       -0.748087   -0.158333    0.411813
     12          6           0       -1.149335    1.142160    0.117048
     13          1           0       -0.462268    1.959518    0.290577
     14          6           0       -2.429227    1.369803   -0.375884
     15          1           0       -2.741391    2.381362   -0.604395
     16          6           0       -3.309943    0.310577   -0.566618
     17          1           0       -4.306592    0.493637   -0.947055
     18          6           0       -2.906278   -0.987002   -0.262461
     19          1           0       -3.588127   -1.815681   -0.407033
     20          6           0       -1.628232   -1.225563    0.223184
     21          1           0       -1.314283   -2.237162    0.454635
 ---------------------------------------------------------------------
                    Distance matrix (angstroms):
                    1          2          3          4          5
     1  C    0.000000
     2  C    1.386799   0.000000
     3  H    1.080374   2.154086   0.000000
     4  H    1.080517   2.144658   1.833048   0.000000
     5  C    2.383431   1.373643   3.365858   2.672084   0.000000
     6  H    2.130208   1.084627   2.469038   3.087518   2.123787
     7  S    2.992249   2.926853   3.693264   3.174105   2.614258
     8  H    3.369487   2.146495   4.267967   3.750346   1.082058
     9  H    2.669287   2.140787   3.745440   2.502579   1.081753
    10  O    2.063375   2.636154   2.448300   2.342681   3.018901
    11  C    3.818385   3.975754   4.658031   3.460694   3.322887
    12  C    3.923124   4.494076   4.641427   3.263756   4.093807
    13  H    3.414355   4.277635   3.941669   2.745207   4.218587
    14  C    5.136111   5.688231   5.873053   4.331702   5.143571
    15  H    5.583744   6.319728   6.208061   4.679963   5.922184
    16  C    6.050546   6.341741   6.901251   5.314350   5.527429
    17  H    7.025739   7.341529   7.867385   6.225093   6.505980
    18  C    5.982732   5.986063   6.910984   5.438003   4.985536
    19  H    6.921621   6.789256   7.882639   6.412254   5.673428
    20  C    4.982065   4.864055   5.903537   4.634291   3.888007
    21  H    5.327808   4.943612   6.258015   5.167908   3.856051
                    6          7          8          9         10
     6  H    0.000000
     7  S    3.487580   0.000000
     8  H    2.468058   3.117877   0.000000
     9  H    3.088700   2.759191   1.836583   0.000000
    10  O    3.181645   1.535781   3.819786   3.223441   0.000000
    11  C    4.818185   1.781736   3.901153   2.828984   2.657674
    12  C    5.437850   2.774816   4.884053   3.440863   2.953808
    13  H    5.183135   2.907444   5.138428   3.708465   2.501188
    14  C    6.684934   4.061190   5.871572   4.309920   4.341745
    15  H    7.334814   4.917102   6.735018   5.072338   4.930351
    16  C    7.317972   4.563222   6.050480   4.646021   5.229040
    17  H    8.339013   5.645528   7.008262   5.572627   6.278040
    18  C    6.869767   4.034563   5.291452   4.216753   5.064544
    19  H    7.630348   4.877246   5.813202   4.927579   6.033658
    20  C    5.662270   2.735866   4.160950   3.316697   3.944175
    21  H    5.595345   2.856475   3.846578   3.495962   4.295984
                   11         12         13         14         15
    11  C    0.000000
    12  C    1.392540   0.000000
    13  H    2.140487   1.081780   0.000000
    14  C    2.404558   1.390297   2.158903   0.000000
    15  H    3.384670   2.142602   2.484618   1.083012   0.000000
    16  C    2.782141   2.413950   3.400447   1.390683   2.147750
    17  H    3.864524   3.394285   4.296437   2.149047   2.476040
    18  C    2.408137   2.786433   3.867947   2.407275   3.389688
    19  H    3.388678   3.869262   4.950735   3.389886   4.286150
    20  C    1.396143   2.417999   3.392456   2.781439   3.864443
    21  H    2.154981   3.400146   4.285437   3.865625   4.948631
                   16         17         18         19         20
    16  C    0.000000
    17  H    1.082383   0.000000
    18  C    1.392540   2.149847   0.000000
    19  H    2.150309   2.478057   1.082833   0.000000
    20  C    2.410740   3.390976   1.387863   2.141635   0.000000
    21  H    3.393610   4.286713   2.147458   2.467891   1.084189
                   21
    21  H    0.000000
 Stoichiometry    C9H10OS
 Framework group  C1[X(C9H10OS)]
 Deg. of freedom    57
 Full point group                 C1      NOp   1
 Largest Abelian subgroup         C1      NOp   1
 Largest concise Abelian subgroup C1      NOp   1
                         Standard orientation:                         
 ---------------------------------------------------------------------
 Center     Atomic      Atomic             Coordinates (Angstroms)
 Number     Number       Type             X           Y           Z
 ---------------------------------------------------------------------
      1          6           0        2.689401    1.086251   -0.690343
      2          6           0        2.997476   -0.246516   -0.918450
      3          1           0        3.429557    1.772892   -0.305763
      4          1           0        1.827154    1.533929   -1.163239
      5          6           0        1.987544   -1.133040   -1.203070
      6          1           0        3.947622   -0.627732   -0.560242
      7         16           0        0.869444   -0.503237    1.074548
      8          1           0        2.157685   -2.201635   -1.200762
      9          1           0        1.067026   -0.797719   -1.661759
     10          8           0        1.631575    0.830044    1.062620
     11          6           0       -0.748087   -0.158333    0.411813
     12          6           0       -1.149335    1.142160    0.117048
     13          1           0       -0.462268    1.959518    0.290577
     14          6           0       -2.429227    1.369803   -0.375884
     15          1           0       -2.741391    2.381362   -0.604395
     16          6           0       -3.309943    0.310577   -0.566618
     17          1           0       -4.306592    0.493637   -0.947055
     18          6           0       -2.906278   -0.987002   -0.262461
     19          1           0       -3.588127   -1.815681   -0.407033
     20          6           0       -1.628232   -1.225563    0.223184
     21          1           0       -1.314283   -2.237162    0.454635
 ---------------------------------------------------------------------
 Rotational constants (GHZ):           1.9953412           0.5948234           0.5658211
 Standard basis: def2TZVP (5D, 7F)
 There are   462 symmetry adapted cartesian basis functions of A   symmetry.
 There are   407 symmetry adapted basis functions of A   symmetry.
   407 basis functions,   659 primitive gaussians,   462 cartesian basis functions
    44 alpha electrons       44 beta electrons
       nuclear repulsion energy       670.3376123566 Hartrees.
 NAtoms=   21 NActive=   21 NUniq=   21 SFac= 1.00D+00 NAtFMM=   60 NAOKFM=F Big=F
 Integral buffers will be    131072 words long.
 Raffenetti 2 integral format.
 Two-electron integral symmetry is turned on.
 One-electron integrals computed using PRISM.
   1 Symmetry operations used in ECPInt.
 ECPInt:  NShTT=   13366 NPrTT=   41614 LenC2=   12679 LenP2D=   29851.
 LDataN:  DoStor=T MaxTD1= 6 Len=  172
 NBasis=   407 RedAO= T EigKep=  8.37D-06  NBF=   407
 NBsUse=   407 1.00D-06 EigRej= -1.00D+00 NBFU=   407
 Initial guess from the checkpoint file:  "checkpoint.chk"
 B after Tr=    -0.000000    0.000000    0.000000
         Rot=    1.000000   -0.000000    0.000000   -0.000000 Ang=   0.00 deg.
 Requested convergence on RMS density matrix=1.00D-08 within 128 cycles.
 Requested convergence on MAX density matrix=1.00D-06.
 Requested convergence on             energy=1.00D-06.
 No special actions if energy rises.
 SCF Done:  E(RB3LYP) =  -822.501782282     A.U. after    3 cycles
            NFock=  3  Conv=0.96D-09     -V/T= 2.0035
 DoSCS=F DFT=T ScalE2(SS,OS)=  1.000000  1.000000
 Range of M.O.s used for correlation:     1   407
 NBasis=   407 NAE=    44 NBE=    44 NFC=     0 NFV=     0
 NROrb=    407 NOA=    44 NOB=    44 NVA=   363 NVB=   363

 **** Warning!!: The largest alpha MO coefficient is  0.55268705D+02

   1 Symmetry operations used in ECPInt.
 ECPInt:  NShTT=   13366 NPrTT=   41614 LenC2=   12679 LenP2D=   29851.
 LDataN:  DoStor=T MaxTD1= 7 Len=  274
 Symmetrizing basis deriv contribution to polar:
 IMax=3 JMax=2 DiffMx= 0.00D+00
 G2DrvN: will do    22 centers at a time, making    1 passes.
 Calling FoFCou, ICntrl=  3107 FMM=F I1Cent=   0 AccDes= 0.00D+00.
 End of G2Drv F.D. properties file   721 does not exist.
 End of G2Drv F.D. properties file   722 does not exist.
 End of G2Drv F.D. properties file   788 does not exist.
          IDoAtm=111111111111111111111
          Differentiating once with respect to electric field.
                with respect to dipole field.
          Differentiating once with respect to nuclear coordinates.
 CalDSu exits because no D1Ps are significant.
          There are    66 degrees of freedom in the 1st order CPHF.  IDoFFX=6 NUNeed=     3.
     63 vectors produced by pass  0 Test12= 2.42D-14 1.52D-09 XBig12= 3.05D+02 1.31D+01.
 AX will form    63 AO Fock derivatives at one time.
     63 vectors produced by pass  1 Test12= 2.42D-14 1.52D-09 XBig12= 5.22D+01 1.42D+00.
     63 vectors produced by pass  2 Test12= 2.42D-14 1.52D-09 XBig12= 9.02D-01 1.13D-01.
     63 vectors produced by pass  3 Test12= 2.42D-14 1.52D-09 XBig12= 4.04D-03 5.60D-03.
     63 vectors produced by pass  4 Test12= 2.42D-14 1.52D-09 XBig12= 1.69D-05 5.17D-04.
     63 vectors produced by pass  5 Test12= 2.42D-14 1.52D-09 XBig12= 3.16D-08 2.19D-05.
     17 vectors produced by pass  6 Test12= 2.42D-14 1.52D-09 XBig12= 4.46D-11 8.75D-07.
      3 vectors produced by pass  7 Test12= 2.42D-14 1.52D-09 XBig12= 6.28D-14 2.71D-08.
      3 vectors produced by pass  8 Test12= 2.42D-14 1.52D-09 XBig12= 2.09D-15 6.33D-09.
      1 vectors produced by pass  9 Test12= 2.42D-14 1.52D-09 XBig12= 4.41D-16 2.73D-09.
 InvSVY:  IOpt=1 It=  1 EMax= 5.33D-15
 Solved reduced A of dimension   402 with    66 vectors.
 Isotropic polarizability for W=    0.000000      143.32 Bohr**3.
 End of Minotr F.D. properties file   721 does not exist.
 End of Minotr F.D. properties file   722 does not exist.
 End of Minotr F.D. properties file   788 does not exist.
   1 Symmetry operations used in ECPInt.
 ECPInt:  NShTT=   13366 NPrTT=   41614 LenC2=   12679 LenP2D=   29851.
 LDataN:  DoStor=T MaxTD1= 8 Len=  415
 Calling FoFJK, ICntrl=    100127 FMM=F ISym2X=0 I1Cent= 0 IOpClX= 0 NMat=1 NMatS=1 NMatT=0.
 Full mass-weighted force constant matrix:
 Low frequencies --- -276.7097    0.0009    0.0029    0.0031    1.6733    4.3431
 Low frequencies ---    9.1472   50.9003   67.3188
 ******    1 imaginary frequencies (negative Signs) ****** 
 Diagonal vibrational polarizability:
       18.3700648       7.4390331      10.6547090
 Harmonic frequencies (cm**-1), IR intensities (KM/Mole), Raman scattering
 activities (A**4/AMU), depolarization ratios for plane and unpolarized
 incident light, reduced masses (AMU), force constants (mDyne/A),
 and normal coordinates:
                      1                      2                      3
                      A                      A                      A
 Frequencies --   -276.7097                50.8966                67.3135
 Red. masses --      7.1004                 3.9195                 5.0852
 Frc consts  --      0.3203                 0.0060                 0.0136
 IR Inten    --     34.0674                 0.1259                 0.2826
  Atom  AN      X      Y      Z        X      Y      Z        X      Y      Z
     1   6    -0.28  -0.08   0.37     0.05   0.07   0.12     0.22  -0.04   0.07
     2   6    -0.00  -0.05  -0.01     0.02   0.09  -0.00     0.22  -0.05   0.14
     3   1    -0.31  -0.05   0.39     0.05   0.02   0.20     0.18  -0.05   0.15
     4   1    -0.08  -0.05   0.02     0.07   0.14   0.14     0.29  -0.03  -0.07
     5   6     0.20  -0.06  -0.29    -0.00   0.14  -0.10     0.23  -0.03   0.02
     6   1     0.03   0.02  -0.03     0.00   0.03  -0.03     0.16  -0.07   0.29
     7  16    -0.05   0.02   0.11    -0.00  -0.07  -0.04    -0.03   0.02  -0.12
     8   1     0.26  -0.05  -0.41    -0.03   0.13  -0.20     0.20  -0.04   0.07
     9   1     0.05  -0.06   0.01     0.01   0.21  -0.07     0.30  -0.02  -0.11
    10   8     0.15   0.04  -0.30    -0.01  -0.07   0.07    -0.04   0.03  -0.08
    11   6     0.01   0.03   0.03    -0.01  -0.03  -0.01    -0.04   0.02  -0.11
    12   6    -0.01   0.02   0.00     0.08  -0.05  -0.19    -0.09   0.02  -0.05
    13   1    -0.03   0.04   0.00     0.14  -0.07  -0.32    -0.09   0.02  -0.09
    14   6    -0.01   0.00  -0.02     0.08  -0.03  -0.19    -0.15   0.01   0.10
    15   1    -0.01  -0.00  -0.03     0.14  -0.04  -0.33    -0.19   0.01   0.16
    16   6    -0.00  -0.00  -0.01    -0.01   0.01   0.01    -0.16   0.00   0.18
    17   1    -0.00  -0.01  -0.01    -0.01   0.02   0.02    -0.20  -0.00   0.30
    18   6     0.01   0.01   0.01    -0.09   0.02   0.19    -0.10  -0.00   0.09
    19   1     0.03  -0.00   0.00    -0.16   0.05   0.35    -0.10  -0.01   0.14
    20   6     0.01   0.02   0.01    -0.09   0.00   0.18    -0.04   0.01  -0.06
    21   1     0.02   0.02   0.00    -0.16   0.02   0.34    -0.01   0.01  -0.10
                      4                      5                      6
                      A                      A                      A
 Frequencies --     95.9048               187.7466               212.8290
 Red. masses --      2.9107                 4.8766                 5.3993
 Frc consts  --      0.0158                 0.1013                 0.1441
 IR Inten    --      0.1727                 2.8334                 5.0689
  Atom  AN      X      Y      Z        X      Y      Z        X      Y      Z
     1   6     0.20  -0.07   0.10     0.14   0.02  -0.14    -0.07  -0.00  -0.05
     2   6    -0.03  -0.11  -0.02     0.13   0.01  -0.05     0.03   0.03  -0.06
     3   1     0.32  -0.25   0.19     0.11   0.02  -0.09    -0.10   0.09  -0.16
     4   1     0.31   0.14   0.11     0.13  -0.00  -0.14    -0.23  -0.12   0.13
     5   6    -0.18   0.10  -0.10     0.16   0.00  -0.16     0.10  -0.08  -0.02
     6   1    -0.10  -0.31  -0.07     0.11   0.01  -0.01     0.10   0.13  -0.14
[...]
 ,0.00131346,-0.00043587,-0.00325188,0.12776780,0.29958448,-0.03778811,
 0.00378548,0.01694017,-0.00111695,-0.04422904,-0.02404497,-0.00035826,
 0.00017193,0.00168468,0.00960352,0.00243908,-0.01345365,0.02456581,0.0
 0457850,-0.00951625,-0.00012246,-0.00007155,0.00017026,-0.00998833,0.0
 0338065,-0.02492782,0.00064544,0.00058827,-0.00077262,-0.00148627,0.00
 012642,0.00243076,0.02379877,0.04222988,0.05219433,0.00222759,-0.00274
 507,-0.00235876,0.00130083,0.00627749,0.00018111,0.00029140,0.00025019
 ,-0.00051557,0.00000445,-0.00004892,0.00019951,-0.00717900,0.00024501,
 0.00372468,-0.00015467,-0.00006913,0.00028681,-0.10237678,0.01115954,-
 0.02940472,-0.00051444,0.00010962,0.00034923,0.00078342,-0.00005430,-0
 .00172891,-0.01588703,-0.00432570,-0.00457897,0.45613101,0.00226981,-0
 .00056499,-0.00322881,0.00081455,0.00139387,-0.00029300,0.00007020,0.0
 0004814,0.00019692,-0.00018884,-0.00002444,0.00035243,0.00064471,0.000
 05719,0.00053895,-0.00015533,-0.00002671,0.00006331,0.04871715,-0.0714
 6373,0.02882665,0.00001471,0.00006478,0.00020273,-0.00004698,0.0001674
 5,0.00011112,-0.03796612,-0.00060293,-0.01354805,0.04054306,0.64267306
 ,0.00446116,-0.00335948,0.00082414,0.00150104,0.00464254,-0.00087259,0
 .00042789,0.00017066,-0.00089653,-0.00046349,-0.00025102,0.00089317,-0
 .00025166,-0.00229510,0.00349832,-0.00012785,-0.00004373,0.00028551,-0
 .03847945,0.01672191,-0.04794647,0.00032773,0.00010719,-0.00065997,0.0
 0125344,-0.00043828,-0.00031671,-0.00262276,-0.00337381,-0.00025153,0.
 11151238,-0.04947673,0.17731222,-0.00038960,0.00071453,0.00094103,-0.0
 0038569,-0.00143032,0.00022278,0.00006844,0.00005891,-0.00024724,-0.00
 032745,0.00008974,0.00043540,0.00139512,0.00052236,-0.00137929,0.00006
 430,-0.00000338,-0.00001521,-0.02305420,0.02903328,-0.01317350,-0.0001
 1801,-0.00011812,0.00015247,-0.00004010,-0.00023531,0.00029454,0.00464
 124,0.00014695,0.00056132,-0.12131332,0.02080605,-0.02291722,0.6304217
 7,-0.00070847,-0.00033974,0.00050795,0.00024703,0.00044237,0.00001227,
 0.00006654,-0.00000038,-0.00004768,-0.00003964,0.00001849,0.00047115,-
 0.00087288,-0.00001830,0.00087427,-0.00006111,-0.00012029,-0.00001993,
 0.01598186,-0.00175034,0.00662513,-0.00010080,0.00009407,-0.00006367,0
 .00008626,0.00009069,-0.00055459,0.00031505,-0.00272396,-0.00031080,0.
 06017730,-0.28922345,0.04726189,0.06162889,0.67909227,-0.00095016,0.00
 091943,0.00013771,-0.00015484,-0.00156888,0.00018692,-0.00001138,-0.00
 011228,0.00024789,0.00000410,0.00005241,-0.00001297,0.00120902,0.00027
 239,-0.00065088,0.00010022,-0.00002856,-0.00009689,-0.01291147,0.01186
 209,-0.00251100,0.00018191,-0.00008023,-0.00001728,-0.00022563,0.00009
 233,0.00059828,0.00197051,0.00043539,0.00051868,-0.02728546,0.03312121
 ,-0.07829054,0.17841545,-0.03654002,0.20323435,-0.00073627,0.00020911,
 0.00062828,-0.00011499,-0.00042531,-0.00004698,-0.00003502,-0.00000678
 ,0.00002535,-0.00018277,0.00010376,0.00024355,0.00020161,-0.00000878,-
 0.00017313,0.00001002,-0.00003259,0.00001998,-0.00090528,0.00104666,0.
 00043123,-0.00000399,-0.00000999,-0.00001897,0.00002171,0.00001092,-0.
 00001398,-0.00052629,0.00020434,-0.00039195,0.01123376,0.00468584,0.00
 249670,-0.16661109,-0.13433022,-0.03470448,0.17362220,0.00050903,-0.00
 020403,-0.00029146,-0.00000709,0.00032961,0.00008167,-0.00009842,0.000
 04707,-0.00003609,0.00005942,0.00013443,-0.00021154,-0.00012508,-0.000
 06072,0.00017996,0.00001174,0.00004679,-0.00003163,-0.00248615,-0.0022
 2988,-0.00078798,-0.00002631,0.00001981,0.00000553,-0.00002623,-0.0000
 5251,-0.00001606,-0.00102033,0.00231170,-0.00052914,-0.01793377,-0.019
 65923,-0.00420505,-0.13427649,-0.21953684,-0.03164085,0.14599705,0.233
 12945,0.00047328,-0.00035220,0.00042590,-0.00010079,0.00029576,-0.0002
 7523,-0.00005028,0.00007701,-0.00014483,0.00028114,-0.00008345,-0.0001
 5649,0.00008343,-0.00022399,0.00020995,-0.00003041,0.00005617,0.000021
 06,0.00109608,0.00084152,-0.00212723,-0.00001677,0.00002067,-0.0000543
 1,-0.00000197,-0.00007357,-0.00006626,-0.00023395,-0.00081436,-0.00079
 003,0.00481138,0.00476016,0.00457721,-0.03553199,-0.03218627,-0.047277
 81,0.03955851,0.03335745,0.03804173,-0.00033615,-0.00041061,-0.0001818
 1,0.00023593,0.00047972,0.00010091,-0.00003744,-0.00007845,0.00021354,
 -0.00000490,-0.00007759,-0.00016455,-0.00080711,-0.00033520,0.00035261
 ,0.00000333,-0.00000130,-0.00001973,0.00487592,-0.00182001,-0.00013812
 ,0.00017245,0.00005999,-0.00012480,0.00000673,0.00027013,-0.00005167,-
 0.00050699,-0.00036334,0.00022042,-0.00482318,0.08069016,-0.01441020,-
 0.29176261,-0.00324117,-0.08504133,-0.01307283,0.00518360,-0.00590956,
 0.60100110,-0.00008002,-0.00018811,0.00012930,-0.00004261,-0.00011713,
 0.00001511,-0.00004101,-0.00000205,0.00004167,0.00010325,-0.00001517,-
 0.00018861,-0.00014954,0.00014411,-0.00023583,-0.00003939,0.00002945,0
 .00000377,0.00023632,-0.00668450,0.00158357,-0.00006071,0.00005163,0.0
 0007922,0.00006509,-0.00000091,-0.00009759,-0.00157288,0.00305604,-0.0
 0083808,0.03583712,0.01060730,0.01279005,0.05887500,-0.13129745,0.0289
 2479,-0.02241960,0.00874240,-0.00872771,-0.00106288,0.71964983,-0.0005
 9137,0.00031074,0.00003845,-0.00009088,-0.00041428,0.00027907,0.000001
 10,-0.00005584,0.00013155,0.00005189,-0.00004955,-0.00010501,-0.000378
 17,0.00009039,-0.00023437,0.00003550,-0.00000700,-0.00003865,-0.000130
 25,0.00014485,0.00490753,0.00006230,-0.00000397,0.00000084,-0.00000525
 ,0.00014814,-0.00003616,0.00034148,0.00015025,-0.00034207,-0.00845639,
 0.02843339,0.00159340,-0.09123894,0.00700651,-0.09425228,-0.00339933,0
 .00140803,0.00156619,0.16992473,-0.06890130,0.20122956,-0.00010971,0.0
 0007534,-0.00000523,-0.00001087,-0.00014809,0.00005803,-0.00000700,-0.
 00000464,0.00001329,0.00000551,0.00001993,0.00000688,0.00008487,0.0000
 6073,-0.00008206,0.00000685,-0.00000711,-0.00001562,-0.00016179,0.0013
 4899,-0.00023430,0.00000125,-0.00000595,0.00000749,-0.00000526,0.00001
 131,0.00000375,0.00016950,-0.00043702,0.00003926,-0.00406432,0.0005644
 6,-0.00426296,-0.00480624,0.02832701,-0.00586941,0.00059754,-0.0002674
 0,0.00170715,-0.07953161,0.07317980,-0.02406533,0.07963102,0.00006452,
 -0.00004039,-0.00002284,0.00001676,0.00012163,-0.00003186,0.00000108,0
 .00000311,-0.00000412,-0.00001005,-0.00000302,0.00000728,-0.00006468,-
 0.00006552,0.00007581,0.00000215,0.00000041,0.00001052,-0.00021979,-0.
 00014002,-0.00012072,0.00000060,0.00000193,-0.00001450,-0.00000601,-0.
 00000570,0.00001293,0.00003067,0.00003588,0.00006144,0.00052336,0.0018
 8586,0.00083715,0.00004002,-0.00133752,0.00044649,0.00043704,0.0007040
 5,-0.00037618,0.07284875,-0.29957194,0.05653081,-0.07876997,0.31777400
 ,-0.00003888,0.00001531,0.00004955,-0.00001528,-0.00005129,0.00000602,
 -0.00001137,0.00000167,0.00000755,-0.00002217,0.00001363,0.00000746,0.
 00002484,0.00001616,-0.00003867,-0.00000058,0.00000174,-0.00000536,-0.
 00005543,0.00050716,0.00007945,-0.00000632,0.00000528,0.00000026,-0.00
 000377,-0.00000816,-0.00000050,0.00007803,-0.00016706,0.00007901,-0.00
 424205,0.00096487,0.00576734,-0.00255137,0.01058608,0.00049949,0.00167
 318,-0.00055503,-0.00329873,-0.02430752,0.05636743,-0.05126717,0.02855
 951,-0.06198073,0.04274765,-0.00048014,0.00035523,0.00047407,-0.000171
 87,-0.00112907,0.00008991,0.00001421,-0.00001071,0.00000772,-0.0000507
 5,-0.00000440,0.00007954,0.00063159,0.00049750,-0.00102536,-0.00001478
 ,0.00001059,-0.00000619,-0.00296186,0.00068186,-0.00051071,-0.00006544
 ,-0.00000507,0.00017198,-0.00002764,-0.00007219,0.00002656,0.00036713,
 0.00087844,-0.00024466,-0.00052579,-0.01389785,0.00398826,-0.04203889,
 -0.01302477,-0.01658739,-0.00305663,0.00161194,-0.00391427,-0.20112717
 ,-0.12940589,-0.03536142,0.00987501,0.00935629,0.00173140,0.66741807,0
 .00048239,-0.00003002,0.00033378,0.00003205,0.00028998,-0.00026447,0.0
 0008772,0.00008370,-0.00026668,-0.00002608,0.00005734,0.00009508,0.000
 15841,0.00026994,0.00053565,0.00000372,0.00000024,0.00002267,0.0011149
 4,-0.00113668,0.00080730,-0.00012670,-0.00004415,0.00010642,-0.0000535
 8,-0.00019035,0.00000150,0.00035949,0.00115321,-0.00067204,-0.01461978
 ,-0.06630891,0.00150062,-0.05760213,0.04867807,-0.02515505,0.00211142,
 0.00114910,0.00120053,-0.06804594,-0.24514357,-0.00251334,-0.01971970,
 -0.01805047,-0.00443727,0.00768102,0.64714081,-0.00009584,0.00005216,0
 .00008698,-0.00007743,-0.00031068,0.00006578,-0.00000678,-0.00000600,0
 .00000847,-0.00001327,-0.00001707,-0.00000500,0.00014852,0.00009685,-0
 .00040044,-0.00001530,0.00000350,0.00000831,-0.00093755,0.00038270,-0.
 00106776,-0.00002001,-0.00000045,0.00004096,0.00008714,-0.00001837,-0.
 00007133,-0.00001520,0.00010843,0.00006363,0.00396401,0.00209709,-0.00
 551311,-0.01099994,-0.00956796,0.00405563,-0.00410019,0.00118545,0.005
 71670,-0.04228374,-0.02432512,-0.07190439,0.00493435,0.00569302,0.0034
 8528,0.19358468,-0.06030766,0.20424667,0.00001529,-0.00001485,-0.00003
 597,-0.00000794,-0.00001972,0.00003010,-0.00000750,-0.00000040,0.00000
 642,0.00001670,0.00000143,-0.00002964,0.00000283,0.00004491,0.00000501
 ,0.00000091,0.00000622,-0.00001402,0.00001454,-0.00010979,0.00023904,-
 0.00000310,-0.00000024,0.00000507,0.00000673,-0.00000232,-0.00002058,-
 0.00014482,0.00014031,0.00000669,0.00043418,-0.00034839,0.00058006,0.0
 0019087,-0.00405256,-0.00214805,-0.00061840,0.00039629,-0.00033456,-0.
 01440945,0.00583596,-0.00645940,0.00039202,-0.00006363,0.00146638,-0.2
 9141466,0.04217428,-0.09771382,0.30820533,0.00004357,-0.00001150,0.000
 00195,-0.00000322,0.00002750,-0.00001058,0.00000046,0.00000511,-0.0000
 1125,0.00000775,0.00000035,-0.00001384,0.00000175,-0.00000480,0.000012
 35,0.00000056,0.00000377,0.00000242,-0.00014338,-0.00005384,-0.0001321
 8,-0.00001117,0.00000363,0.00000674,-0.00000601,-0.00001334,0.00000806
 ,0.00001995,0.00019169,-0.00001689,-0.00034139,-0.00135213,-0.00009341
 ,-0.00333167,-0.00328403,0.00004955,-0.00102363,0.00026359,-0.00037826
 ,-0.02321298,0.00856308,-0.00911310,0.00073018,0.00092057,-0.00027955,
 0.04215487,-0.06741842,0.01923471,-0.04530296,0.06662763,0.00001410,0.
 00002645,0.00004507,-0.00001790,-0.00001032,-0.00000241,0.00000317,0.0
 0000596,-0.00001995,0.00000177,0.00000324,0.00000670,0.00005464,-0.000
 05401,-0.00002821,-0.00000754,-0.00000115,0.00000142,0.00015697,-0.000
 00448,-0.00040325,0.00001019,0.00000591,-0.00001420,-0.00000326,0.0000
 0689,0.00000317,0.00002657,-0.00010536,-0.00020141,0.00058385,-0.00006
 948,-0.00084704,-0.00232102,-0.00011330,0.00661387,-0.00018545,0.00008
 175,0.00014567,-0.00293678,0.00124289,0.00047832,0.00136832,-0.0005366
 7,-0.00310361,-0.09766094,0.01916885,-0.07126731,0.10747605,-0.0214170
 2,0.06574206,0.00053175,-0.00018677,0.00040346,0.00015511,0.00049586,-
 0.00020435,0.00009656,0.00009514,-0.00026482,0.00000154,0.00004702,0.0
 0001817,-0.00021896,0.00025359,0.00081927,0.00002499,0.00002486,0.0000
 2178,0.00478310,-0.00408996,0.00163158,-0.00009137,-0.00000856,0.00006
 725,-0.00015571,-0.00021755,0.00004631,-0.00041935,0.00138106,-0.00160
 089,-0.04530114,-0.05850416,-0.01279679,-0.03358571,0.02870794,-0.0124
 1517,-0.00024768,0.00088931,-0.00021979,0.05334526,0.00022866,0.016913
 84,-0.00135218,-0.00426258,-0.00253580,-0.13722397,0.01883656,-0.03063
 376,-0.00474174,0.02850543,-0.00586987,0.62992839,0.00040271,-0.000043
 08,-0.00123618,0.00005735,0.00043097,0.00021983,-0.00007636,-0.0000297
 7,0.00019540,0.00003859,-0.00003042,-0.00008635,-0.00011982,-0.0004179
 4,-0.00009161,0.00002156,0.00001127,-0.00001906,-0.00140802,-0.0021013
 0,-0.00010866,0.00004272,0.00003786,-0.00007791,0.00000736,0.00009510,
 0.00007692,-0.00359892,-0.00250144,0.00029089,-0.01364978,0.04757609,-
 0.00915997,0.03015827,-0.02684041,0.01339950,0.00073452,-0.00006642,0.
 00034729,-0.04395259,-0.05554455,-0.00861723,-0.00351563,-0.00172061,-
 0.00027249,0.08032038,-0.29835924,0.05836965,-0.00051807,-0.00026142,0
 .00013390,0.05980494,0.69362604,0.00004588,-0.00031368,-0.00024486,0.0
 0023547,0.00038773,-0.00017061,-0.00000860,0.00002219,0.00000933,0.000
 01300,0.00004448,-0.00001015,-0.00032963,0.00058111,0.00046989,0.00002
 396,0.00002085,-0.00000160,0.00180079,-0.00150599,0.00386540,-0.000139
 97,-0.00002434,0.00015381,-0.00013805,-0.00017130,-0.00003636,-0.00023
 323,0.00099282,0.00073615,-0.01801771,-0.02548951,0.00486402,-0.012731
 13,0.01248598,-0.01335214,0.00001258,0.00024484,-0.00055870,0.02148233
 ,0.00737175,0.01372300,-0.00270163,-0.00048313,0.00656437,-0.03773562,
 0.03673104,-0.07751184,-0.00219011,0.01047680,-0.00055019,0.17268358,-
 0.04742910,0.19726497,-0.00001227,0.00000971,-0.00006413,-0.00000609,-
 0.00006570,0.00005759,-0.00000338,0.00000410,0.00001340,-0.00000430,0.
 00000544,-0.00000126,0.00005350,0.00006729,-0.00006637,0.00000064,0.00
 000381,-0.00001319,0.00055061,-0.00084378,0.00030398,-0.00002511,0.000
 00798,0.00001882,-0.00000979,-0.00002052,-0.00000890,-0.00070391,-0.00
 029763,-0.00016703,-0.00373916,0.00169161,-0.00426914,-0.00042587,0.00
 090098,-0.00001339,-0.00013158,-0.00003800,0.00037230,0.00130716,0.002
 05958,-0.00239247,0.00029507,0.00050152,-0.00000716,0.00949806,0.00827
 323,0.00162415,0.00027626,-0.00032735,0.00142454,-0.16596395,-0.133667
 52,-0.03072660,0.17296854,-0.00003110,0.00000805,0.00004108,-0.0000160
 0,-0.00007368,0.00001544,-0.00000314,-0.00000205,0.00000292,0.00000516
 ,-0.00000216,-0.00000609,0.00002943,0.00003020,-0.00005363,-0.00000270
 ,0.00000346,-0.00000606,0.00009120,0.00019145,0.00007191,-0.00000096,0
 .00000237,0.00000318,0.00000650,-0.00000257,-0.00001241,0.00016824,0.0
 0009331,0.00000635,0.00137562,0.00143992,0.00127081,0.00094104,-0.0001
 0708,0.00024781,-0.00002450,0.00000892,-0.00014595,0.00275777,-0.00414
 254,0.00236748,-0.00101383,-0.00093027,-0.00023090,-0.02057457,-0.0174
 7656,-0.00500386,0.00047136,0.00101872,-0.00039034,-0.13375803,-0.2209
 9448,-0.02554506,0.14479958,0.23265407,0.00004205,0.00000018,-0.000028
 21,0.00001600,0.00001752,-0.00000252,0.00000444,-0.00000432,-0.0000028
 5,0.00000072,-0.00000052,0.00001421,0.00000155,-0.00000096,0.00002652,
 -0.00000373,-0.00000245,-0.00000592,0.00003009,-0.00026196,0.00052230,
 -0.00000271,-0.00000164,0.00001011,0.00000777,0.00002269,-0.00000502,-
 0.00031975,-0.00021066,-0.00034649,-0.00428445,0.00131726,0.00596131,0
 .00000572,0.00025341,-0.00068961,0.00037240,-0.00012717,-0.00098376,-0
 .00258820,0.00206650,0.00602781,0.00017533,0.00032331,0.00020350,0.005
 17203,0.00553187,0.00325636,0.00130758,-0.00067449,-0.00297145,-0.0307
 0416,-0.02553054,-0.04317329,0.03557040,0.02685200,0.03466646,-0.00005
 395,0.00029130,-0.00156642,0.00005271,-0.00062445,0.00063587,-0.000098
 63,-0.00009605,0.00038124,-0.00004591,-0.00007251,0.00011303,0.0003362
 7,-0.00020940,-0.00187632,-0.00000635,0.00000742,-0.00000059,-0.023216
 90,-0.01317382,-0.00658928,0.00011813,-0.00000856,0.00005830,0.0000967
 2,0.00014943,0.00029225,-0.00727916,-0.00339080,-0.00184078,-0.1771878
 2,-0.07178870,-0.03118079,0.04995924,-0.03685054,0.01899821,0.00015278
 ,0.00273752,-0.00214245,-0.05349817,-0.02103147,-0.01464702,-0.0009649
 1,-0.00053280,-0.00016489,-0.00454190,0.07919633,-0.01328756,0.0020852
 8,0.00088763,-0.00178547,-0.29572771,-0.00016849,-0.08556860,-0.014539
 78,0.00502191,-0.00645391,0.60443792,-0.00024325,0.00048429,0.00011788
 ,-0.00012630,-0.00077659,-0.00016691,-0.00004738,-0.00006551,0.0001010
 2,0.00008047,-0.00008735,-0.00013104,0.00064271,0.00005717,-0.00057434
 ,0.00006162,0.00004327,0.00002537,-0.00802942,0.01098481,-0.00489898,0
 .00027576,-0.00017483,-0.00012816,-0.00012725,-0.00000385,0.00046175,0
 .00537799,0.00163865,0.00247156,-0.10991321,-0.23791014,-0.01763249,-0
 .00182926,-0.04997406,0.00588187,0.00207738,-0.00424661,0.00199596,-0.
 01914346,-0.00863830,-0.00660301,-0.00053107,0.00047562,-0.00038364,0.
 03400075,0.01331994,0.01147062,0.00148569,-0.00502943,0.00204508,0.061
 84598,-0.13127871,0.03102309,-0.02345911,0.00750003,-0.00914256,-0.012
 80014,0.69911507,-0.00068296,0.00044105,-0.00011764,-0.00020663,-0.001
 21117,0.00006346,-0.00007441,-0.00000748,0.00022943,0.00006245,-0.0000
 1274,-0.00011184,0.00094779,0.00029716,-0.00081357,0.00004228,0.000042
 16,-0.00003114,-0.00889073,-0.00653786,0.00001434,0.00004947,-0.000007
 20,0.00007555,-0.00016672,-0.00006386,0.00055478,-0.00263021,-0.000016
 89,0.00064908,-0.02680345,-0.00462379,-0.07355427,0.01459033,-0.006556
 66,0.01574822,-0.00237027,0.00210156,0.00464824,-0.01425961,-0.0070791
 3,-0.01137845,-0.00007046,-0.00032693,-0.00066153,-0.00800154,0.027267
 69,0.00070275,-0.00202025,0.00183423,0.00631710,-0.09284504,0.00863497
 ,-0.09242915,-0.00321772,0.00116965,0.00080530,0.17063283,-0.07165534,
 0.19999226,0.00004223,-0.00010942,-0.00002208,0.00002846,0.00010688,-0
 .00012634,-0.00000684,0.00000364,0.00001481,0.00001060,-0.00000265,-0.
 00001836,-0.00003987,0.00006067,0.00009704,-0.00000211,0.00000226,0.00
 001964,0.00062694,-0.00090413,0.00074512,-0.00007818,0.00000478,0.0000
 8059,-0.00000472,-0.00002440,0.00000970,-0.00007191,0.00081983,0.00024
 343,0.01066001,-0.01861595,0.00523366,-0.00188217,-0.00315667,-0.00256
 125,0.00040320,-0.00109061,0.00010353,-0.00103027,-0.00051478,-0.00011
 463,-0.00004476,0.00010673,0.00042926,-0.00410255,-0.00031765,-0.00414
 246,-0.00029333,0.00135162,-0.00033194,-0.00383721,0.02908680,-0.00577
 670,0.00061534,-0.00024300,0.00165083,-0.08007787,0.07040149,-0.024085
 18,0.07908501,0.00007938,-0.00003616,0.00001752,-0.00002322,0.00000899
 ,-0.00003433,-0.00000623,0.00001607,-0.00001418,0.00001707,0.00000071,
 -0.00002594,0.00001634,0.00004030,-0.00002224,0.00000528,0.00001212,0.
 00001143,0.00078461,-0.00028840,-0.00012951,-0.00007898,0.00005268,0.0
 0003503,-0.00000664,-0.00008818,0.00003137,-0.00027230,-0.00002229,0.0
 0008514,0.00720274,-0.01877701,0.00502625,-0.00418837,-0.00186212,-0.0
 0057942,0.00066337,-0.00083067,0.00040943,-0.00054462,0.00050238,-0.00
 031198,0.00010265,-0.00005761,-0.00011321,0.00057564,0.00201604,0.0008
 6298,-0.00012353,-0.00019673,-0.00001880,-0.00008874,-0.00158756,0.000
 57943,0.00039478,0.00078089,-0.00042746,0.07245618,-0.29543347,0.05631
 057,-0.07696541,0.31575001,0.00003434,0.00012863,0.00020191,-0.0000888
 0,0.00000291,0.00006218,0.00002064,0.00000609,-0.00007400,0.00000573,0
 .00000750,-0.00000490,-0.00001156,-0.00031974,-0.00004626,-0.00002242,
 -0.00001772,-0.00000179,0.00035540,-0.00018646,-0.00116423,0.00013898,
 0.00000253,-0.00010757,0.00006373,0.00012275,-0.00008429,0.00029600,0.
 00000814,-0.00081992,0.00206348,-0.00425673,0.00357213,-0.00251218,-0.
 00012375,0.00531037,-0.00005702,-0.00021422,0.00038071,0.00012307,-0.0
 0022269,-0.00041719,0.00043361,-0.00010107,-0.00112137,-0.00427805,0.0
 0031350,0.00600364,-0.00015602,0.00051376,0.00005566,-0.00251480,0.010
 96074,0.00038796,0.00156218,-0.00065433,-0.00328475,-0.02400764,0.0557
 2224,-0.05070293,0.02855132,-0.06169208,0.04185464\\-0.00000050,0.0000
 0011,-0.00000026,0.00000132,-0.00000273,-0.00000009,0.00000001,-0.0000
 0035,-0.00000057,0.00000004,-0.00000190,0.00000140,0.00000090,0.000000
 26,-0.00000308,-0.00000140,-0.00000196,0.00000152,-0.00001691,-0.00002
 215,0.00000317,-0.00000098,-0.00000042,-0.00000082,-0.00000032,0.00000
 012,0.00000043,0.00001775,0.00001958,0.00000052,-0.00000005,-0.0000002
 1,-0.00000150,-0.00000017,0.00000072,0.00000225,0.00000063,-0.00000034
 ,0.00000018,0.00000028,0.00000112,0.00000004,0.00000122,0.00000101,0.0
 0000094,0.00000041,0.00000089,0.00000010,0.00000060,0.00000205,0.00000
 018,-0.00000086,0.00000178,-0.00000025,-0.00000058,0.00000182,-0.00000
 095,-0.00000058,0.00000019,-0.00000203,-0.00000083,0.00000040,-0.00000
 120\\\@


 UNDER MOST GREENE GRASSE LY MOST GREATE SNAKES.
 -- PROVERBS AND REASONS OF THE YEAR 1585
           AS REPRINTED IN PAISLEY MAGAZINE 1828.
 Job cpu time:       0 days  3 hours 26 minutes  0.1 seconds.
 Elapsed time:       0 days  0 hours 17 minutes 10.5 seconds.
 File lengths (MBytes):  RWF=    306 Int=      0 D2E=      0 Chk=     32 Scr=      1
 Normal termination of Gaussian 16 at Fri Jun 10 11:04:02 2022.
