 Entering Gaussian System, Link 0=g16
 Input=ts_initalOpt_zmat_sp.gjf
 Output=ts_initalOpt_zmat_sp.out
 Initial command:
 /software/gaussian/g16-a03/l1.exe "/local_scratch/11174447/Gau-6944.inp" -scrdir="/local_scratch/11174447/"
 Entering Link 1 = /software/gaussian/g16-a03/l1.exe PID=      6945.
  
 Copyright (c) 1988,1990,1992,1993,1995,1998,2003,2009,2016,
            Gaussian, Inc.  All Rights Reserved.
  
 This is part of the Gaussian(R) 16 program.  It is based on
 the Gaussian(R) 09 system (copyright 2009, Gaussian, Inc.),
 the Gaussian(R) 03 system (copyright 2003, Gaussian, Inc.),
 the Gaussian(R) 98 system (copyright 1998, Gaussian, Inc.),
 the Gaussian(R) 94 system (copyright 1995, Gaussian, Inc.),
 the Gaussian 92(TM) system (copyright 1992, Gaussian, Inc.),
 the Gaussian 90(TM) system (copyright 1990, Gaussian, Inc.),
 the Gaussian 88(TM) system (copyright 1988, Gaussian, Inc.),
 the Gaussian 86(TM) system (copyright 1986, Carnegie Mellon
 University), and the Gaussian 82(TM) system (copyright 1983,
 Carnegie Mellon University). Gaussian is a federally registered
 trademark of Gaussian, Inc.
  
 This software contains proprietary and confidential information,
 including trade secrets, belonging to Gaussian, Inc.
  
 This software is provided under written license and may be
 used, copied, transmitted, or stored only in accord with that
 written license.
  
 The following legend is applicable only to US Government
 contracts under FAR:
  
                    RESTRICTED RIGHTS LEGEND
  
 Use, reproduction and disclosure by the US Government is
 subject to restrictions as set forth in subparagraphs (a)
 and (c) of the Commercial Computer Software - Restricted
 Rights clause in FAR 52.227-19.
  
 Gaussian, Inc.
 340 Quinnipiac St., Bldg. 40, Wallingford CT 06492
  
  
 ---------------------------------------------------------------
 Warning -- This program may not be used in any manner that
 competes with the business of Gaussian, Inc. or will provide
 assistance to any competitor of Gaussian, Inc.  The licensee
 of this program is prohibited from giving any competitor of
 Gaussian, Inc. access to this program.  By using this program,
 the user acknowledges that Gaussian, Inc. is engaged in the
 business of creating and licensing software in the field of
 computational chemistry and represents and warrants to the
 licensee that it is not a competitor of Gaussian, Inc. and that
 it will not use this program in any manner prohibited above.
 ---------------------------------------------------------------
  

 Cite this work as:
 Gaussian 16, Revision A.03,
 M. J. Frisch, G. W. Trucks, H. B. Schlegel, G. E. Scuseria, 
 M. A. Robb, J. R. Cheeseman, G. Scalmani, V. Barone, 
 G. A. Petersson, H. Nakatsuji, X. Li, M. Caricato, A. V. Marenich, 
 J. Bloino, B. G. Janesko, R. Gomperts, B. Mennucci, H. P. Hratchian, 
 J. V. Ortiz, A. F. Izmaylov, J. L. Sonnenberg, D. Williams-Young, 
 F. Ding, F. Lipparini, F. Egidi, J. Goings, B. Peng, A. Petrone, 
 T. Henderson, D. Ranasinghe, V. G. Zakrzewski, J. Gao, N. Rega, 
 G. Zheng, W. Liang, M. Hada, M. Ehara, K. Toyota, R. Fukuda, 
 J. Hasegawa, M. Ishida, T. Nakajima, Y. Honda, O. Kitao, H. Nakai, 
 T. Vreven, K. Throssell, J. A. Montgomery, Jr., J. E. Peralta, 
 F. Ogliaro, M. J. Bearpark, J. J. Heyd, E. N. Brothers, K. N. Kudin, 
 V. N. Staroverov, T. A. Keith, R. Kobayashi, J. Normand, 
 K. Raghavachari, A. P. Rendell, J. C. Burant, S. S. Iyengar, 
 J. Tomasi, M. Cossi, J. M. Millam, M. Klene, C. Adamo, R. Cammi, 
 J. W. Ochterski, R. L. Martin, K. Morokuma, O. Farkas, 
 J. B. Foresman, and D. J. Fox, Gaussian, Inc., Wallingford CT, 2016.
 
 ******************************************
 Gaussian 16:  ES64L-G16RevA.03 25-Dec-2016
                10-Jun-2022 
 ******************************************
 %nprocshared=12
 Will use up to   12 processors via shared memory.
 %chk=checkpoint.chk
 %mem=12GB
 --------------------------
 # sp B3LYP/Def2TZVP NoSymm
 --------------------------
 1/38=1,172=1/1;
 2/12=2,15=1,17=6,18=5,40=1/2;
 3/5=44,7=101,11=2,25=1,30=1,74=-5/1,2,3;
 4//1;
 5/5=2,38=5/2;
 6/7=2,8=2,9=2,10=2,28=1/1;
 99/5=1,9=1/99;
 ---------------------------
 ts_initalOpt_zmat_AlignedSp
 ---------------------------
 Symbolic Z-matrix:
 Charge =  0 Multiplicity = 1
 H
 C                    1    R2
 C                    2    R3       1    A3
 O                    2    R4       1    A4       3    D4       0
 H                    2    R5       1    A5       3    D5       0
 C                    4    R6       2    A6       1    D6       0
 C                    3    R7       2    A7       1    D7       0
 C                    6    R8       4    A8       2    D8       0
 H                    6    R9       4    A9       8    D9       0
 H                    6    R10      4    A10      8    D10      0
 C                    7    R11      3    A11      2    D11      0
 C                    8    R12      6    A12      4    D12      0
 H                    8    R13      6    A13      12   D13      0
 H                    11   R14      7    A14      3    D14      0
 H                    11   R15      7    A15      14   D15      0
 H                    11   R16      7    A16      14   D16      0
 C                    12   R17      8    A17      6    D17      0
 H                    12   R18      8    A18      17   D18      0
 H                    17   R19      12   A19      8    D19      0
 H                    17   R20      12   A20      19   D20      0
 H                    17   R21      12   A21      19   D21      0
       Variables:
  R2                    1.09482                  
  R3                    1.46792                  
  R4                    1.43347                  
  R5                    1.09584                  
  R6                    1.43422                  
  R7                    1.24932                  
  R8                    1.49891                  
  R9                    1.09287                  
  R10                   1.09488                  
  R11                   1.4831                   
  R12                   1.3793                   
  R13                   1.08844                  
  R14                   1.09215                  
  R15                   1.09277                  
  R16                   1.09284                  
  R17                   1.40895                  
  R18                   1.08616                  
  R19                   1.08626                  
  R20                   1.33997                  
  R21                   1.08528                  
  A3                  109.90137                  
  A4                  107.28009                  
  A5                  108.03449                  
  A6                  112.65145                  
  A7                  153.08873                  
  A8                  109.43257                  
  A9                  104.84936                  
  A10                 110.89326                  
  A11                 146.20989                  
  A12                 129.62783                  
  A13                 111.38959                  
  A14                 111.74768                  
  A15                 110.9281                   
  A16                 110.62195                  
  A17                 124.14998                  
  A18                 115.66852                  
  A19                 119.46784                  
  A20                  94.35546                  
  A21                 117.6781                   
  D4                  120.36947                  
  D5                 -121.95031                  
  D6                 -134.0311                   
  D7                    3.66039                  
  D8                  -35.40934                  
  D9                 -119.08782                  
  D10                 124.29216                  
  D11                 -23.29377                  
  D12                 146.13262                  
  D13                 156.49386                  
  D14                   2.06209                  
  D15                -120.83328                  
  D16                 120.80071                  
  D17                 -41.09774                  
  D18                -156.05305                  
  D19                  40.91004                  
  D20                -101.20729                  
  D21                 143.75217                  
 
                          Input orientation:                          
 ---------------------------------------------------------------------
 Center     Atomic      Atomic             Coordinates (Angstroms)
 Number     Number       Type             X           Y           Z
 ---------------------------------------------------------------------
      1          1           0        0.000000    0.000000    0.000000
      2          6           0        0.000000    0.000000    1.094816
      3          6           0        1.380252    0.000000    1.594497
      4          8           0       -0.692015    1.180952    1.520619
      5          1           0       -0.551410   -0.884146    1.434076
      6          6           0        0.000526    1.881342    2.563128
      7          6           0        2.619836    0.036100    1.443114
      8          6           0        0.673415    0.892491    3.466524
      9          1           0       -0.778745    2.431316    3.096624
     10          1           0        0.706387    2.606099    2.144488
     11          6           0        3.756973   -0.210665    0.523541
     12          6           0        1.866106    0.996368    4.151473
     13          1           0       -0.042054    0.188539    3.887532
     14          1           0        3.417650   -0.548441   -0.458067
     15          1           0        4.431087   -0.968154    0.930880
     16          1           0        4.347532    0.698965    0.388956
     17          6           0        3.038264    1.566584    3.616647
     18          1           0        2.008531    0.283998    4.958935
     19          1           0        2.967561    2.468838    3.015904
     20          1           0        3.126709    0.689604    2.607393
     21          1           0        3.939660    1.524826    4.219626
 ---------------------------------------------------------------------
                    Distance matrix (angstroms):
                    1          2          3          4          5
     1  H    0.000000
     2  C    1.094816   0.000000
     3  C    2.108914   1.467916   0.000000
     4  O    2.045926   1.433471   2.386293   0.000000
     5  H    1.772665   1.095839   2.130438   2.071687   0.000000
     6  C    3.179476   2.386501   2.526130   1.434219   3.037649
     7  C    2.991225   2.643134   1.249316   3.505004   3.302081
     8  C    3.642364   2.622027   2.191037   2.394610   2.964368
     9  H    4.013330   3.244222   3.581752   2.013635   3.715916
    10  H    3.448124   2.896989   2.747423   2.091838   3.777373
    11  C    3.799121   3.805993   2.615364   4.766996   4.454752
    12  C    4.659381   3.717291   2.786921   3.674159   4.094504
    13  H    3.892328   2.799388   2.704904   2.647566   2.725718
    14  H    3.491553   3.793753   2.943603   4.878047   4.409800
    15  H    4.630161   4.538582   3.268838   5.586825   5.008547
    16  H    4.420506   4.459577   3.278206   5.187485   5.253394
    17  C    4.976481   4.247925   3.048324   4.296164   4.863687
    18  H    5.357788   4.364203   3.434361   4.463126   4.510265
    19  H    4.898700   4.311862   3.261152   4.157767   5.111539
    20  H    4.129208   3.541151   2.133453   4.000644   4.169163
    21  H    5.970868   5.254565   3.970764   5.371713   5.807938
                    6          7          8          9         10
     6  C    0.000000
     7  C    3.394132   0.000000
     8  C    1.498910   2.935328   0.000000
     9  H    1.092865   4.474540   2.147925   0.000000
    10  H    1.094884   3.279955   2.164560   1.772775   0.000000
    11  C    4.758917   1.483100   4.403002   5.845815   4.457320
    12  C    2.605073   2.970763   1.379296   3.188577   2.822086
    13  H    2.149753   3.617192   1.088436   2.489638   3.072940
    14  H    5.167997   2.143055   5.000952   6.254959   4.906665
    15  H    5.514864   2.133433   4.900162   6.587047   5.302972
    16  H    5.002149   2.129688   4.796667   6.050721   4.469562
    17  C    3.230608   2.691042   2.463625   3.948132   2.947116
    18  H    3.510482   3.577170   2.092866   3.980966   3.874125
    19  H    3.058341   2.917670   2.819757   3.747363   2.427162
    20  H    3.345925   1.428122   2.607282   4.304123   3.121729
    21  H    4.288107   3.415737   3.411065   4.934188   3.991166
                   11         12         13         14         15
    11  C    0.000000
    12  C    4.265465   0.000000
    13  H    5.090030   2.088858   0.000000
    14  H    1.092148   5.103095   5.603295   0.000000
    15  H    1.092769   4.561873   5.485318   1.769855   0.000000
    16  H    1.092840   4.516908   5.636402   1.771482   1.754978
    17  C    3.639019   1.408950   3.385373   4.606577   3.946922
    18  H    4.793168   1.086164   2.315582   5.658841   4.864349
    19  H    3.743632   2.161223   3.875214   4.623314   4.278101
    20  H    2.355877   2.016781   3.454110   3.318802   2.694487
    21  H    4.087340   2.140920   4.213075   5.143126   4.155995
                   16         17         18         19         20
    16  H    0.000000
    17  C    3.589559   0.000000
    18  H    5.150518   2.122997   0.000000
    19  H    3.455088   1.086256   3.077114   0.000000
    20  H    2.532185   1.339966   2.635258   1.832453   0.000000
    21  H    3.939853   1.085285   2.411533   1.812480   1.989417
                   21
    21  H    0.000000
 Symmetry turned off by external request.
 Stoichiometry    C8H12O
 Framework group  C1[X(C8H12O)]
 Deg. of freedom    57
 Full point group                 C1      NOp   1
 Rotational constants (GHZ):           1.9776427           1.5037763           0.9634887
 Standard basis: def2TZVP (5D, 7F)
   351 basis functions,   555 primitive gaussians,   396 cartesian basis functions
    34 alpha electrons       34 beta electrons
       nuclear repulsion energy       445.2971035986 Hartrees.
 NAtoms=   21 NActive=   21 NUniq=   21 SFac= 1.00D+00 NAtFMM=   60 NAOKFM=F Big=F
 Integral buffers will be    131072 words long.
 Raffenetti 2 integral format.
 Two-electron integral symmetry is turned off.
 One-electron integrals computed using PRISM.
   1 Symmetry operations used in ECPInt.
 ECPInt:  NShTT=   10878 NPrTT=   32112 LenC2=   10638 LenP2D=   24940.
 LDataN:  DoStor=T MaxTD1= 6 Len=  172
 NBasis=   351 RedAO= T EigKep=  2.24D-05  NBF=   351
 NBsUse=   351 1.00D-06 EigRej= -1.00D+00 NBFU=   351
 ExpMin= 9.52D-02 ExpMax= 2.70D+04 ExpMxC= 9.22D+02 IAcc=3 IRadAn=         5 AccDes= 0.00D+00
 Harris functional with IExCor=  402 and IRadAn=       5 diagonalized for initial guess.
 HarFok:  IExCor=  402 AccDes= 0.00D+00 IRadAn=         5 IDoV= 1 UseB2=F ITyADJ=14
 ICtDFT=  3500011 ScaDFX=  1.000000  1.000000  1.000000  1.000000
 FoFCou: FMM=F IPFlag=           0 FMFlag=      100000 FMFlg1=           0
         NFxFlg=           0 DoJE=T BraDBF=F KetDBF=T FulRan=T
         wScrn=  0.000000 ICntrl=       500 IOpCl=  0 I1Cent=   200000004 NGrid=           0
         NMat0=    1 NMatS0=      1 NMatT0=    0 NMatD0=    1 NMtDS0=    0 NMtDT0=    0
 Symmetry not used in FoFCou.
 Requested convergence on RMS density matrix=1.00D-08 within 128 cycles.
 Requested convergence on MAX density matrix=1.00D-06.
 Requested convergence on             energy=1.00D-06.
 No special actions if energy rises.
 Integral accuracy reduced to 1.0D-05 until final iterations.
 Initial convergence to 1.0D-05 achieved.  Increase integral accuracy.
 SCF Done:  E(RB3LYP) =  -387.287090719     A.U. after   14 cycles
            NFock= 14  Conv=0.78D-08     -V/T= 2.0053

 **********************************************************************

            Population analysis using the SCF density.

 **********************************************************************

 Alpha  occ. eigenvalues --  -19.12394 -10.23203 -10.21739 -10.18669 -10.18060
 Alpha  occ. eigenvalues --  -10.17854 -10.17434 -10.17270 -10.17202  -1.02972
 Alpha  occ. eigenvalues --   -0.81625  -0.78807  -0.74093  -0.72010  -0.67379
 Alpha  occ. eigenvalues --   -0.62652  -0.54638  -0.51817  -0.50439  -0.47054
 Alpha  occ. eigenvalues --   -0.46041  -0.45697  -0.43770  -0.42776  -0.42261
 Alpha  occ. eigenvalues --   -0.40561  -0.39097  -0.37860  -0.36140  -0.32550
 Alpha  occ. eigenvalues --   -0.27330  -0.26575  -0.25257  -0.22952
 Alpha virt. eigenvalues --   -0.01999   0.01430   0.02566   0.03597   0.05248
 Alpha virt. eigenvalues --    0.06212   0.07183   0.09067   0.09704   0.10138
 Alpha virt. eigenvalues --    0.11045   0.11751   0.12720   0.13050   0.14145
 Alpha virt. eigenvalues --    0.15284   0.16506   0.17477   0.18273   0.18967
 Alpha virt. eigenvalues --    0.20056   0.20306   0.21108   0.22049   0.23976
 Alpha virt. eigenvalues --    0.24576   0.26246   0.27837   0.29049   0.30057
 Alpha virt. eigenvalues --    0.30945   0.32285   0.33242   0.33652   0.34337
 Alpha virt. eigenvalues --    0.36497   0.37900   0.38200   0.39098   0.39871
 Alpha virt. eigenvalues --    0.40359   0.40967   0.41900   0.42151   0.43420
 Alpha virt. eigenvalues --    0.43646   0.44932   0.45090   0.45559   0.45965
 Alpha virt. eigenvalues --    0.46828   0.47265   0.48084   0.49318   0.49532
 Alpha virt. eigenvalues --    0.52382   0.52904   0.53258   0.54973   0.57159
 Alpha virt. eigenvalues --    0.58091   0.59242   0.60708   0.63305   0.64716
 Alpha virt. eigenvalues --    0.65606   0.67202   0.69740   0.73442   0.73757
 Alpha virt. eigenvalues --    0.76514   0.77621   0.79569   0.81502   0.82974
 Alpha virt. eigenvalues --    0.84092   0.85831   0.86334   0.89353   0.90241
 Alpha virt. eigenvalues --    0.91851   0.92585   0.95203   0.96662   0.97686
 Alpha virt. eigenvalues --    0.98954   0.99880   1.02124   1.02804   1.04602
 Alpha virt. eigenvalues --    1.06883   1.07591   1.09278   1.11832   1.13702
 Alpha virt. eigenvalues --    1.14370   1.17005   1.18303   1.19912   1.20517
 Alpha virt. eigenvalues --    1.22561   1.23619   1.26115   1.27617   1.28256
 Alpha virt. eigenvalues --    1.31572   1.32925   1.39529   1.41104   1.43205
 Alpha virt. eigenvalues --    1.46731   1.47057   1.49549   1.50325   1.51659
 Alpha virt. eigenvalues --    1.51982   1.52247   1.53059   1.54844   1.55653
 Alpha virt. eigenvalues --    1.57383   1.59108   1.59604   1.59942   1.61295
 Alpha virt. eigenvalues --    1.62830   1.64386   1.66707   1.67324   1.69103
 Alpha virt. eigenvalues --    1.71010   1.72205   1.74724   1.75772   1.78083
 Alpha virt. eigenvalues --    1.83460   1.85324   1.86105   1.87653   1.90247
 Alpha virt. eigenvalues --    1.91904   1.93028   1.96522   1.96875   1.99275
 Alpha virt. eigenvalues --    2.00547   2.02274   2.03868   2.07191   2.08750
 Alpha virt. eigenvalues --    2.10518   2.12796   2.13737   2.17035   2.18547
 Alpha virt. eigenvalues --    2.18964   2.21519   2.24913   2.25432   2.27451
 Alpha virt. eigenvalues --    2.29580   2.31871   2.33177   2.34811   2.35658
 Alpha virt. eigenvalues --    2.36458   2.39411   2.41173   2.42646   2.43541
 Alpha virt. eigenvalues --    2.47118   2.49081   2.50196   2.51218   2.52160
 Alpha virt. eigenvalues --    2.53382   2.53982   2.56714   2.57532   2.59507
 Alpha virt. eigenvalues --    2.60361   2.61109   2.63349   2.66061   2.66509
 Alpha virt. eigenvalues --    2.68673   2.70037   2.71078   2.74083   2.74917
 Alpha virt. eigenvalues --    2.76001   2.78172   2.79207   2.79903   2.80650
 Alpha virt. eigenvalues --    2.81662   2.85002   2.87881   2.88805   2.91186
 Alpha virt. eigenvalues --    2.93065   2.94416   2.95577   2.96400   2.99475
 Alpha virt. eigenvalues --    3.01071   3.02849   3.04302   3.05650   3.07318
 Alpha virt. eigenvalues --    3.08562   3.09909   3.10785   3.12968   3.14167
 Alpha virt. eigenvalues --    3.15223   3.17558   3.19080   3.20769   3.21240
 Alpha virt. eigenvalues --    3.22531   3.24150   3.25227   3.27108   3.27663
 Alpha virt. eigenvalues --    3.27766   3.28570   3.30826   3.34066   3.34799
 Alpha virt. eigenvalues --    3.36452   3.37177   3.38441   3.38683   3.41331
 Alpha virt. eigenvalues --    3.43502   3.45466   3.45769   3.46535   3.48775
 Alpha virt. eigenvalues --    3.52439   3.52760   3.56394   3.56980   3.58241
 Alpha virt. eigenvalues --    3.58734   3.61842   3.65185   3.68205   3.68932
 Alpha virt. eigenvalues --    3.71079   3.72521   3.73799   3.75823   3.77774
 Alpha virt. eigenvalues --    3.83166   3.85568   3.87576   3.88803   3.90231
 Alpha virt. eigenvalues --    3.91994   3.96547   3.99409   4.01208   4.03717
 Alpha virt. eigenvalues --    4.07472   4.14492   4.15879   4.16065   4.19065
 Alpha virt. eigenvalues --    4.22801   4.25566   4.28362   4.34734   4.36443
 Alpha virt. eigenvalues --    4.38780   4.42525   4.45913   4.48950   4.50477
 Alpha virt. eigenvalues --    4.55313   4.60982   4.63369   4.67141   4.72341
 Alpha virt. eigenvalues --    4.73605   4.77744   4.78719   4.84076   4.86867
 Alpha virt. eigenvalues --    4.95906   5.05988   5.09763   5.14538   5.33936
 Alpha virt. eigenvalues --    5.38868   5.40459   5.45080   5.78064   5.82890
 Alpha virt. eigenvalues --    5.84133   6.13643   6.16282   6.72337   6.79541
 Alpha virt. eigenvalues --    6.88324   7.17586   7.27000  22.31455  22.34623
 Alpha virt. eigenvalues --   22.40798  22.46374  22.55721  22.59443  22.80225
 Alpha virt. eigenvalues --   23.43605  44.14968
          Condensed to atoms (all electrons):
               1          2          3          4          5          6
     1  H    0.671283   0.392054   0.005714  -0.042863  -0.075630  -0.002703
     2  C    0.392054   4.634085   0.356050   0.357932   0.400716  -0.054928
     3  C    0.005714   0.356050   5.552925  -0.101050  -0.097862  -0.080678
     4  O   -0.042863   0.357932  -0.101050   7.992087  -0.060265   0.334524
     5  H   -0.075630   0.400716  -0.097862  -0.060265   0.696478   0.003301
     6  C   -0.002703  -0.054928  -0.080678   0.334524   0.003301   4.698290
     7  C   -0.056215  -0.076648   0.491967   0.007493   0.041071  -0.010622
     8  C    0.004652  -0.082415   0.121730  -0.098526   0.013321   0.307753
     9  H   -0.000975   0.001637   0.005960  -0.044027   0.002461   0.380802
    10  H    0.004844   0.001252   0.035701  -0.044976  -0.004078   0.400827
    11  C    0.001074  -0.008654  -0.064417  -0.000460  -0.000130  -0.001268
    12  C    0.000115  -0.006775  -0.069157   0.012119  -0.000528  -0.002499
    13  H    0.001161   0.011337   0.002461   0.010120  -0.007923  -0.054031
    14  H    0.001503   0.001428   0.009712  -0.000057  -0.000306  -0.000052
    15  H   -0.000183  -0.000294  -0.008295  -0.000010   0.000120   0.000004
    16  H    0.000009   0.000257  -0.008284   0.000047  -0.000058   0.000453
    17  C   -0.000623   0.002823  -0.066610  -0.000343  -0.000083   0.006146
    18  H   -0.000027  -0.001429  -0.005746  -0.000414   0.000196   0.007576
    19  H    0.000097  -0.001363  -0.006884  -0.000278  -0.000019  -0.002777
    20  H   -0.000506   0.013547   0.028289   0.000505  -0.000399   0.011034
    21  H    0.000011   0.000023   0.006151  -0.000009  -0.000010  -0.000981
               7          8          9         10         11         12
     1  H   -0.056215   0.004652  -0.000975   0.004844   0.001074   0.000115
     2  C   -0.076648  -0.082415   0.001637   0.001252  -0.008654  -0.006775
     3  C    0.491967   0.121730   0.005960   0.035701  -0.064417  -0.069157
     4  O    0.007493  -0.098526  -0.044027  -0.044976  -0.000460   0.012119
     5  H    0.041071   0.013321   0.002461  -0.004078  -0.000130  -0.000528
     6  C   -0.010622   0.307753   0.380802   0.400827  -0.001268  -0.002499
     7  C    5.575781   0.070055   0.004394  -0.034254   0.273727  -0.038220
     8  C    0.070055   5.221107  -0.015724  -0.077581   0.007484   0.462655
     9  H    0.004394  -0.015724   0.642330  -0.061869   0.000055   0.000806
    10  H   -0.034254  -0.077581  -0.061869   0.696860  -0.000054  -0.007497
    11  C    0.273727   0.007484   0.000055  -0.000054   4.903061   0.005586
    12  C   -0.038220   0.462655   0.000806  -0.007497   0.005586   5.016864
    13  H   -0.008480   0.395576  -0.012099   0.012713  -0.000097  -0.057683
    14  H   -0.066457  -0.000476  -0.000004   0.000062   0.411600  -0.000742
    15  H   -0.055811   0.000028  -0.000000   0.000012   0.429887   0.000064
    16  H   -0.048442  -0.000807  -0.000008  -0.000001   0.413272   0.001240
    17  C   -0.103464  -0.070534  -0.001205   0.011420  -0.003468   0.450340
    18  H    0.004464  -0.035044  -0.000047  -0.000861   0.000095   0.407937
    19  H    0.001707   0.006877   0.000392  -0.000114   0.001296  -0.039867
    20  H    0.155615  -0.066882  -0.000832  -0.000644  -0.046429  -0.047040
    21  H    0.001160   0.009427  -0.000015   0.000342  -0.000403  -0.042109
              13         14         15         16         17         18
     1  H    0.001161   0.001503  -0.000183   0.000009  -0.000623  -0.000027
     2  C    0.011337   0.001428  -0.000294   0.000257   0.002823  -0.001429
     3  C    0.002461   0.009712  -0.008295  -0.008284  -0.066610  -0.005746
     4  O    0.010120  -0.000057  -0.000010   0.000047  -0.000343  -0.000414
     5  H   -0.007923  -0.000306   0.000120  -0.000058  -0.000083   0.000196
     6  C   -0.054031  -0.000052   0.000004   0.000453   0.006146   0.007576
     7  C   -0.008480  -0.066457  -0.055811  -0.048442  -0.103464   0.004464
     8  C    0.395576  -0.000476   0.000028  -0.000807  -0.070534  -0.035044
     9  H   -0.012099  -0.000004  -0.000000  -0.000008  -0.001205  -0.000047
    10  H    0.012713   0.000062   0.000012  -0.000001   0.011420  -0.000861
    11  C   -0.000097   0.411600   0.429887   0.413272  -0.003468   0.000095
    12  C   -0.057683  -0.000742   0.000064   0.001240   0.450340   0.407937
    13  H    0.616277   0.000013   0.000013  -0.000014   0.011702  -0.014926
    14  H    0.000013   0.572843  -0.029526  -0.026860  -0.000842  -0.000002
    15  H    0.000013  -0.029526   0.569879  -0.034144   0.003402   0.000001
    16  H   -0.000014  -0.026860  -0.034144   0.577855   0.004416   0.000019
    17  C    0.011702  -0.000842   0.003402   0.004416   5.130273  -0.044223
    18  H   -0.014926  -0.000002   0.000001   0.000019  -0.044223   0.591144
    19  H   -0.000326  -0.000108  -0.000059   0.000330   0.419020   0.006133
    20  H    0.000735   0.006967  -0.004682  -0.002629   0.208515  -0.002638
    21  H   -0.000095   0.000020  -0.000070  -0.000321   0.399230  -0.009793
              19         20         21
     1  H    0.000097  -0.000506   0.000011
     2  C   -0.001363   0.013547   0.000023
     3  C   -0.006884   0.028289   0.006151
     4  O   -0.000278   0.000505  -0.000009
     5  H   -0.000019  -0.000399  -0.000010
     6  C   -0.002777   0.011034  -0.000981
     7  C    0.001707   0.155615   0.001160
     8  C    0.006877  -0.066882   0.009427
     9  H    0.000392  -0.000832  -0.000015
    10  H   -0.000114  -0.000644   0.000342
    11  C    0.001296  -0.046429  -0.000403
    12  C   -0.039867  -0.047040  -0.042109
    13  H   -0.000326   0.000735  -0.000095
    14  H   -0.000108   0.006967   0.000020
    15  H   -0.000059  -0.004682  -0.000070
    16  H    0.000330  -0.002629  -0.000321
    17  C    0.419020   0.208515   0.399230
    18  H    0.006133  -0.002638  -0.009793
    19  H    0.552564  -0.033750  -0.026622
    20  H   -0.033750   0.612469  -0.005152
    21  H   -0.026622  -0.005152   0.550549
 Mulliken charges:
               1
     1  H    0.097207
     2  C    0.059366
     3  C   -0.107679
     4  O   -0.321547
     5  H    0.089626
     6  C    0.059831
     7  C   -0.128821
     8  C   -0.172676
     9  H    0.097969
    10  H    0.067897
    11  C   -0.321759
    12  C   -0.045609
    13  H    0.093566
    14  H    0.121284
    15  H    0.129661
    16  H    0.123670
    17  C   -0.355893
    18  H    0.097585
    19  H    0.123751
    20  H    0.173908
    21  H    0.118664
 Sum of Mulliken charges =  -0.00000
 Mulliken charges with hydrogens summed into heavy atoms:
               1
     2  C    0.246198
     3  C   -0.107679
     4  O   -0.321547
     6  C    0.225697
     7  C   -0.128821
     8  C   -0.079110
    11  C    0.052856
    12  C    0.051976
    17  C    0.060431
 Electronic spatial extent (au):  <R**2>=           3091.2157
 Charge=             -0.0000 electrons
 Dipole moment (field-independent basis, Debye):
    X=              1.7283    Y=             -0.5565    Z=             -0.1174  Tot=              1.8194
 Quadrupole moment (field-independent basis, Debye-Ang):
   XX=            -51.6659   YY=            -56.3587   ZZ=            -55.3338
   XY=              2.1346   XZ=              1.0858   YZ=             -0.5838
 Traceless Quadrupole moment (field-independent basis, Debye-Ang):
   XX=              2.7869   YY=             -1.9059   ZZ=             -0.8810
   XY=              2.1346   XZ=              1.0858   YZ=             -0.5838
 Octapole moment (field-independent basis, Debye-Ang**2):
  XXX=           -223.4913  YYY=           -115.9657  ZZZ=           -373.3574  XYY=            -82.8422
  XXY=            -38.4103  XXZ=           -117.3287  XZZ=            -82.6685  YZZ=            -47.2032
  YYZ=           -125.7663  XYZ=              1.0913
 Hexadecapole moment (field-independent basis, Debye-Ang**3):
 XXXX=          -1508.8224 YYYY=           -453.3505 ZZZZ=          -2296.5058 XXXY=           -110.3822
 XXXZ=           -497.0331 YYYX=           -118.4151 YYYZ=           -371.2711 ZZZX=           -538.8500
 ZZZY=           -433.5696 XXYY=           -339.6595 XXZZ=           -618.2980 YYZZ=           -476.9389
 XXYZ=           -118.3414 YYXZ=           -191.2057 ZZXY=            -53.3177
 N-N= 4.452971035986D+02 E-N=-1.791227703708D+03  KE= 3.852537281600D+02
 1\1\GINC-BHC0105\SP\RB3LYP\def2TZVP\C8H12O1\DHANAWAY\10-Jun-2022\0\\# 
 sp B3LYP/Def2TZVP NoSymm\\ts_initalOpt_zmat_AlignedSp\\0,1\H\C,1,1.094
 81608\C,2,1.46791565,1,109.90136614\O,2,1.43347089,1,107.2800896,3,120
 .36947472,0\H,2,1.0958394,1,108.03448816,3,-121.95031012,0\C,4,1.43421
 904,2,112.65144954,1,-134.03109965,0\C,3,1.24931596,2,153.08872986,1,3
 .66039117,0\C,6,1.49890992,4,109.43257058,2,-35.40933709,0\H,6,1.09286
 514,4,104.84936181,8,-119.08781596,0\H,6,1.09488413,4,110.89326115,8,1
 24.29215938,0\C,7,1.48310042,3,146.20988899,2,-23.29376872,0\C,8,1.379
 29571,6,129.62783217,4,146.13262476,0\H,8,1.08843567,6,111.38958777,12
 ,156.49385751,0\H,11,1.09214811,7,111.74768094,3,2.06209135,0\H,11,1.0
 9276911,7,110.92810463,14,-120.83328229,0\H,11,1.09283966,7,110.621948
 36,14,120.80070976,0\C,12,1.40895003,8,124.14997777,6,-41.09773803,0\H
 ,12,1.08616371,8,115.66851569,17,-156.05305452,0\H,17,1.08625619,12,11
 9.46783623,8,40.91004327,0\H,17,1.33996608,12,94.35546446,19,-101.2072
 9341,0\H,17,1.0852847,12,117.67810113,19,143.75216593,0\\Version=ES64L
 -G16RevA.03\HF=-387.2870907\RMSD=7.752e-09\Dipole=0.679954,-0.2189456,
 -0.0461793\Quadrupole=2.0719718,-1.4169699,-0.6550019,1.5869978,0.8072
 731,-0.4340523\PG=C01 [X(C8H12O1)]\\@


 FROM AN ANONYMOUS WRITER, ON PERSPECTIVE:

 MAN, DESPITE HIS ARTISTIC PRETENSIONS, HIS SOPHISTICATION AND MANY 
 ACCOMPLISHMENTS, OWES THE FACT OF HIS EXISTENCE TO A SIX-INCH LAYER OF 
 TOPSOIL AND THE FACT THAT IT RAINS.
 Job cpu time:       0 days  0 hours 16 minutes 48.9 seconds.
 Elapsed time:       0 days  0 hours  1 minutes 24.6 seconds.
 File lengths (MBytes):  RWF=     71 Int=      0 D2E=      0 Chk=     32 Scr=      1
 Normal termination of Gaussian 16 at Fri Jun 10 22:28:29 2022.
