 Entering Gaussian System, Link 0=g16
 Input=ts_initalOpt_zmat_sp.gjf
 Output=ts_initalOpt_zmat_sp.out
 Initial command:
 /software/gaussian/g16-a03/l1.exe "/local_scratch/11171782/Gau-29311.inp" -scrdir="/local_scratch/11171782/"
 Entering Link 1 = /software/gaussian/g16-a03/l1.exe PID=     29312.
  
 Copyright (c) 1988,1990,1992,1993,1995,1998,2003,2009,2016,
            Gaussian, Inc.  All Rights Reserved.
  
 This is part of the Gaussian(R) 16 program.  It is based on
 the Gaussian(R) 09 system (copyright 2009, Gaussian, Inc.),
 the Gaussian(R) 03 system (copyright 2003, Gaussian, Inc.),
 the Gaussian(R) 98 system (copyright 1998, Gaussian, Inc.),
 the Gaussian(R) 94 system (copyright 1995, Gaussian, Inc.),
 the Gaussian 92(TM) system (copyright 1992, Gaussian, Inc.),
 the Gaussian 90(TM) system (copyright 1990, Gaussian, Inc.),
 the Gaussian 88(TM) system (copyright 1988, Gaussian, Inc.),
 the Gaussian 86(TM) system (copyright 1986, Carnegie Mellon
 University), and the Gaussian 82(TM) system (copyright 1983,
 Carnegie Mellon University). Gaussian is a federally registered
 trademark of Gaussian, Inc.
  
 This software contains proprietary and confidential information,
 including trade secrets, belonging to Gaussian, Inc.
  
 This software is provided under written license and may be
 used, copied, transmitted, or stored only in accord with that
 written license.
  
 The following legend is applicable only to US Government
 contracts under FAR:
  
                    RESTRICTED RIGHTS LEGEND
  
 Use, reproduction and disclosure by the US Government is
 subject to restrictions as set forth in subparagraphs (a)
 and (c) of the Commercial Computer Software - Restricted
 Rights clause in FAR 52.227-19.
  
 Gaussian, Inc.
 340 Quinnipiac St., Bldg. 40, Wallingford CT 06492
  
  
 ---------------------------------------------------------------
 Warning -- This program may not be used in any manner that
 competes with the business of Gaussian, Inc. or will provide
 assistance to any competitor of Gaussian, Inc.  The licensee
 of this program is prohibited from giving any competitor of
 Gaussian, Inc. access to this program.  By using this program,
 the user acknowledges that Gaussian, Inc. is engaged in the
 business of creating and licensing software in the field of
 computational chemistry and represents and warrants to the
 licensee that it is not a competitor of Gaussian, Inc. and that
 it will not use this program in any manner prohibited above.
 ---------------------------------------------------------------
  

 Cite this work as:
 Gaussian 16, Revision A.03,
 M. J. Frisch, G. W. Trucks, H. B. Schlegel, G. E. Scuseria, 
 M. A. Robb, J. R. Cheeseman, G. Scalmani, V. Barone, 
 G. A. Petersson, H. Nakatsuji, X. Li, M. Caricato, A. V. Marenich, 
 J. Bloino, B. G. Janesko, R. Gomperts, B. Mennucci, H. P. Hratchian, 
 J. V. Ortiz, A. F. Izmaylov, J. L. Sonnenberg, D. Williams-Young, 
 F. Ding, F. Lipparini, F. Egidi, J. Goings, B. Peng, A. Petrone, 
 T. Henderson, D. Ranasinghe, V. G. Zakrzewski, J. Gao, N. Rega, 
 G. Zheng, W. Liang, M. Hada, M. Ehara, K. Toyota, R. Fukuda, 
 J. Hasegawa, M. Ishida, T. Nakajima, Y. Honda, O. Kitao, H. Nakai, 
 T. Vreven, K. Throssell, J. A. Montgomery, Jr., J. E. Peralta, 
 F. Ogliaro, M. J. Bearpark, J. J. Heyd, E. N. Brothers, K. N. Kudin, 
 V. N. Staroverov, T. A. Keith, R. Kobayashi, J. Normand, 
 K. Raghavachari, A. P. Rendell, J. C. Burant, S. S. Iyengar, 
 J. Tomasi, M. Cossi, J. M. Millam, M. Klene, C. Adamo, R. Cammi, 
 J. W. Ochterski, R. L. Martin, K. Morokuma, O. Farkas, 
 J. B. Foresman, and D. J. Fox, Gaussian, Inc., Wallingford CT, 2016.
 
 ******************************************
 Gaussian 16:  ES64L-G16RevA.03 25-Dec-2016
                10-Jun-2022 
 ******************************************
 %nprocshared=12
 Will use up to   12 processors via shared memory.
 %chk=checkpoint.chk
 %mem=12GB
 --------------------------
 # sp B3LYP/Def2TZVP NoSymm
 --------------------------
 1/38=1,172=1/1;
 2/12=2,15=1,17=6,18=5,40=1/2;
 3/5=44,7=101,11=2,25=1,30=1,74=-5/1,2,3;
 4//1;
 5/5=2,38=5/2;
 6/7=2,8=2,9=2,10=2,28=1/1;
 99/5=1,9=1/99;
 ---------------------------
 ts_initalOpt_zmat_AlignedSp
 ---------------------------
 Symbolic Z-matrix:
 Charge =  0 Multiplicity = 1
 C
 C                    1    R2
 S                    1    R3       2    A3
 C                    1    R4       2    A4       3    D4       0
 O                    3    R5       1    A5       2    D5       0
 H                    2    R6       1    A6       3    D6       0
 C                    2    R7       1    A7       6    D7       0
 C                    4    R8       1    A8       2    D8       0
 H                    4    R9       1    A9       8    D9       0
 H                    7    R10      2    A10      1    D10      0
 C                    7    R11      2    A11      10   D11      0
 H                    8    R12      4    A12      1    D12      0
 H                    11   R13      7    A13      2    D13      0
 C                    1    R14      2    A14      3    D14      0
 C                    14   R15      1    A15      2    D15      0
 H                    14   R16      1    A16      15   D16      0
 H                    14   R17      1    A17      15   D17      0
 C                    15   R18      14   A18      1    D18      0
 H                    15   R19      14   A19      18   D19      0
 H                    18   R20      15   A20      14   D20      0
 H                    18   R21      15   A21      20   D21      0
       Variables:
  R2                    1.39254                  
  R3                    1.78174                  
  R4                    1.39614                  
  R5                    1.53578                  
  R6                    1.08178                  
  R7                    1.3903                   
  R8                    1.38786                  
  R9                    1.08419                  
  R10                   1.08301                  
  R11                   1.39068                  
  R12                   1.08283                  
  R13                   1.08238                  
  R14                   3.81838                  
  R15                   1.3868                   
  R16                   1.08037                  
  R17                   1.08052                  
  R18                   1.37364                  
  R19                   1.08463                  
  R20                   1.08206                  
  R21                   1.08175                  
  A3                  121.40622                  
  A4                  120.24104                  
  A5                  106.23472                  
  A6                  119.25279                  
  A7                  119.55262                  
  A8                  119.76282                  
  A9                  120.12194                  
  A10                 119.54392                  
  A11                 120.45902                  
  A12                 119.67223                  
  A13                 120.16713                  
  A14                  83.90941                  
  A15                  86.22836                  
  A16                 136.15039                  
  A17                  62.80502                  
  A18                 119.40565                  
  A19                 118.55878                  
  A20                 121.41982                  
  A21                 120.89325                  
  D4                  178.35414                  
  D5                   -5.91294                  
  D6                    0.25642                  
  D7                 -179.08653                  
  D8                    0.12574                  
  D9                  179.96079                  
  D10                 179.95524                  
  D11                -179.52024                  
  D12                -179.92395                  
  D13                 179.76471                  
  D14                 -34.17773                  
  D15                -157.96514                  
  D16                -132.80473                  
  D17                 126.95113                  
  D18                  26.175                    
  D19                -160.29958                  
  D20                -168.196                    
  D21                -165.34908                  
 
                          Input orientation:                          
 ---------------------------------------------------------------------
 Center     Atomic      Atomic             Coordinates (Angstroms)
 Number     Number       Type             X           Y           Z
 ---------------------------------------------------------------------
      1          6           0        0.000000    0.000000    0.000000
      2          6           0        0.000000    0.000000    1.392540
      3         16           0        1.520701    0.000000   -0.928467
      4          6           0       -1.205651   -0.034643   -0.703152
      5          8           0        2.651459    0.151903    0.099608
      6          1           0        0.943813    0.004224    1.921167
      7          6           0       -1.209172   -0.024693    2.078266
      8          6           0       -2.407201   -0.066522   -0.009304
      9          1           0       -1.203358   -0.035994   -1.787338
     10          1           0       -1.208993   -0.025425    3.161278
     11          6           0       -2.413226   -0.058384    1.383199
     12          1           0       -3.341392   -0.094618   -0.556136
     13          1           0       -3.351771   -0.081352    1.921863
     14          6           0        3.141115    2.132915    0.405133
     15          6           0        2.887021    2.587913   -0.880022
     16          1           0        4.151873    1.973356    0.751712
     17          1           0        2.384407    2.217650    1.171768
     18          6           0        1.598776    2.577764   -1.356697
     19          1           0        3.709423    2.634547   -1.585639
     20          1           0        1.383583    2.743110   -2.404171
     21          1           0        0.756111    2.639583   -0.681209
 ---------------------------------------------------------------------
                    Distance matrix (angstroms):
                    1          2          3          4          5
     1  C    0.000000
     2  C    1.392540   0.000000
     3  S    1.781736   2.774816   0.000000
     4  C    1.396143   2.417999   2.735866   0.000000
     5  O    2.657674   2.953808   1.535781   3.944175   0.000000
     6  H    2.140487   1.081780   2.907444   3.392456   2.501188
     7  C    2.404558   1.390297   4.061190   2.781439   4.341745
     8  C    2.408137   2.786433   4.034563   1.387863   5.064544
     9  H    2.154981   3.400146   2.856475   1.084189   4.295984
    10  H    3.384670   2.142602   4.917102   3.864443   4.930351
    11  C    2.782141   2.413950   4.563222   2.410740   5.229040
    12  H    3.388678   3.869262   4.877246   2.141635   6.033658
    13  H    3.864524   3.394285   5.645528   3.390976   6.278040
    14  C    3.818385   3.923124   2.992249   4.982065   2.063375
    15  C    3.975754   4.494076   2.926853   4.864055   2.636154
    16  H    4.658031   4.641427   3.693264   5.903537   2.448300
    17  H    3.460694   3.263756   3.174105   4.634291   2.342681
    18  C    3.322887   4.093807   2.614258   3.888007   3.018901
    19  H    4.818185   5.437850   3.487580   5.662270   3.181645
    20  H    3.901153   4.884053   3.117877   4.160950   3.819786
    21  H    2.828984   3.440863   2.759191   3.316697   3.223441
                    6          7          8          9         10
     6  H    0.000000
     7  C    2.158903   0.000000
     8  C    3.867947   2.407275   0.000000
     9  H    4.285437   3.865625   2.147458   0.000000
    10  H    2.484618   1.083012   3.389688   4.948631   0.000000
    11  C    3.400447   1.390683   1.392540   3.393610   2.147750
    12  H    4.950735   3.389886   1.082833   2.467891   4.286150
    13  H    4.296437   2.149047   2.149847   4.286713   2.476040
    14  C    3.414355   5.136111   5.982732   5.327808   5.583744
    15  C    4.277635   5.688231   5.986063   4.943612   6.319728
    16  H    3.941669   5.873053   6.910984   6.258015   6.208061
    17  H    2.745207   4.331702   5.438003   5.167908   4.679963
    18  C    4.218587   5.143571   4.985536   3.856051   5.922184
    19  H    5.183135   6.684934   6.869767   5.595345   7.334814
    20  H    5.138428   5.871572   5.291452   3.846578   6.735018
    21  H    3.708465   4.309920   4.216753   3.495962   5.072338
                   11         12         13         14         15
    11  C    0.000000
    12  H    2.150309   0.000000
    13  H    1.082383   2.478057   0.000000
    14  C    6.050546   6.921621   7.025739   0.000000
    15  C    6.341741   6.789256   7.341529   1.386799   0.000000
    16  H    6.901251   7.882639   7.867385   1.080374   2.154086
    17  H    5.314350   6.412254   6.225093   1.080517   2.144658
    18  C    5.527429   5.673428   6.505980   2.383431   1.373643
    19  H    7.317972   7.630348   8.339013   2.130208   1.084627
    20  H    6.050480   5.813202   7.008262   3.369487   2.146495
    21  H    4.646021   4.927579   5.572627   2.669287   2.140787
                   16         17         18         19         20
    16  H    0.000000
    17  H    1.833048   0.000000
    18  C    3.365858   2.672084   0.000000
    19  H    2.469038   3.087518   2.123787   0.000000
    20  H    4.267967   3.750346   1.082058   2.468058   0.000000
    21  H    3.745440   2.502579   1.081753   3.088700   1.836583
                   21
    21  H    0.000000
 Symmetry turned off by external request.
 Stoichiometry    C9H10OS
 Framework group  C1[X(C9H10OS)]
 Deg. of freedom    57
 Full point group                 C1      NOp   1
 Rotational constants (GHZ):           1.9953412           0.5948234           0.5658211
 Standard basis: def2TZVP (5D, 7F)
   407 basis functions,   659 primitive gaussians,   462 cartesian basis functions
    44 alpha electrons       44 beta electrons
       nuclear repulsion energy       670.3376118913 Hartrees.
 NAtoms=   21 NActive=   21 NUniq=   21 SFac= 1.00D+00 NAtFMM=   60 NAOKFM=F Big=F
 Integral buffers will be    131072 words long.
 Raffenetti 2 integral format.
 Two-electron integral symmetry is turned off.
 One-electron integrals computed using PRISM.
   1 Symmetry operations used in ECPInt.
 ECPInt:  NShTT=   13366 NPrTT=   41614 LenC2=   12679 LenP2D=   29851.
 LDataN:  DoStor=T MaxTD1= 6 Len=  172
 NBasis=   407 RedAO= T EigKep=  8.37D-06  NBF=   407
 NBsUse=   407 1.00D-06 EigRej= -1.00D+00 NBFU=   407
 ExpMin= 9.52D-02 ExpMax= 6.07D+04 ExpMxC= 2.07D+03 IAcc=3 IRadAn=         5 AccDes= 0.00D+00
 Harris functional with IExCor=  402 and IRadAn=       5 diagonalized for initial guess.
 HarFok:  IExCor=  402 AccDes= 0.00D+00 IRadAn=         5 IDoV= 1 UseB2=F ITyADJ=14
 ICtDFT=  3500011 ScaDFX=  1.000000  1.000000  1.000000  1.000000
 FoFCou: FMM=F IPFlag=           0 FMFlag=      100000 FMFlg1=           0
         NFxFlg=           0 DoJE=T BraDBF=F KetDBF=T FulRan=T
         wScrn=  0.000000 ICntrl=       500 IOpCl=  0 I1Cent=   200000004 NGrid=           0
         NMat0=    1 NMatS0=      1 NMatT0=    0 NMatD0=    1 NMtDS0=    0 NMtDT0=    0
 Symmetry not used in FoFCou.
 Requested convergence on RMS density matrix=1.00D-08 within 128 cycles.
 Requested convergence on MAX density matrix=1.00D-06.
 Requested convergence on             energy=1.00D-06.
 No special actions if energy rises.
 Integral accuracy reduced to 1.0D-05 until final iterations.
 Problem detected with inexpensive integrals.
 Switching to full accuracy and repeating last cycle.
 SCF Done:  E(RB3LYP) =  -822.501779210     A.U. after   19 cycles
            NFock= 19  Conv=0.65D-08     -V/T= 2.0035

 **********************************************************************

            Population analysis using the SCF density.

 **********************************************************************

 Alpha  occ. eigenvalues --  -88.91713 -19.13077 -10.20608 -10.20336 -10.19373
 Alpha  occ. eigenvalues --  -10.18931 -10.18677 -10.18571 -10.18400 -10.18313
 Alpha  occ. eigenvalues --  -10.17367  -7.98576  -5.94912  -5.94449  -5.94265
 Alpha  occ. eigenvalues --   -1.01607  -0.87174  -0.80661  -0.77637  -0.76002
 Alpha  occ. eigenvalues --   -0.69511  -0.66402  -0.61950  -0.58852  -0.56981
 Alpha  occ. eigenvalues --   -0.52541  -0.49392  -0.46975  -0.46504  -0.44885
 Alpha  occ. eigenvalues --   -0.43761  -0.43528  -0.42095  -0.39894  -0.39202
 Alpha  occ. eigenvalues --   -0.37834  -0.37245  -0.36563  -0.35712  -0.28604
 Alpha  occ. eigenvalues --   -0.28181  -0.26995  -0.26651  -0.21738
 Alpha virt. eigenvalues --   -0.06989  -0.02517  -0.01315   0.02087   0.02602
 Alpha virt. eigenvalues --    0.04370   0.05341   0.06742   0.07098   0.08031
 Alpha virt. eigenvalues --    0.09357   0.09834   0.11108   0.11790   0.12280
 Alpha virt. eigenvalues --    0.12749   0.14019   0.16155   0.17623   0.17930
 Alpha virt. eigenvalues --    0.18530   0.19646   0.20410   0.21536   0.22329
 Alpha virt. eigenvalues --    0.22770   0.23563   0.24078   0.24476   0.25364
 Alpha virt. eigenvalues --    0.26508   0.26850   0.26978   0.28099   0.28632
 Alpha virt. eigenvalues --    0.31112   0.31354   0.32817   0.33116   0.34192
 Alpha virt. eigenvalues --    0.34534   0.35669   0.36950   0.37120   0.37910
 Alpha virt. eigenvalues --    0.38578   0.40090   0.40630   0.41115   0.41600
 Alpha virt. eigenvalues --    0.41882   0.42376   0.44259   0.44673   0.45113
 Alpha virt. eigenvalues --    0.45346   0.46053   0.47015   0.47393   0.48530
 Alpha virt. eigenvalues --    0.49384   0.49951   0.50709   0.52041   0.53946
 Alpha virt. eigenvalues --    0.54669   0.55662   0.57000   0.58780   0.59430
 Alpha virt. eigenvalues --    0.62187   0.62672   0.64656   0.65442   0.66376
 Alpha virt. eigenvalues --    0.67172   0.68447   0.69958   0.70320   0.73078
 Alpha virt. eigenvalues --    0.73642   0.74171   0.75116   0.77180   0.77795
 Alpha virt. eigenvalues --    0.78455   0.79995   0.81296   0.83768   0.84253
 Alpha virt. eigenvalues --    0.85083   0.87198   0.87956   0.89849   0.89941
 Alpha virt. eigenvalues --    0.90664   0.93770   0.94096   0.95943   0.98011
 Alpha virt. eigenvalues --    0.99923   1.00544   1.01929   1.03558   1.05216
 Alpha virt. eigenvalues --    1.06951   1.08232   1.09259   1.09543   1.10432
 Alpha virt. eigenvalues --    1.16914   1.18465   1.18830   1.19802   1.19952
 Alpha virt. eigenvalues --    1.21095   1.22601   1.22972   1.23562   1.26813
 Alpha virt. eigenvalues --    1.28069   1.29095   1.29312   1.30928   1.35126
 Alpha virt. eigenvalues --    1.37925   1.39285   1.39907   1.40676   1.43265
 Alpha virt. eigenvalues --    1.43411   1.45456   1.46915   1.48146   1.49325
 Alpha virt. eigenvalues --    1.49491   1.50425   1.52640   1.53843   1.54613
 Alpha virt. eigenvalues --    1.55744   1.56355   1.57372   1.60709   1.60883
 Alpha virt. eigenvalues --    1.61157   1.62030   1.63463   1.64739   1.65664
 Alpha virt. eigenvalues --    1.66982   1.68714   1.69362   1.69621   1.70786
 Alpha virt. eigenvalues --    1.70939   1.73127   1.74491   1.76115   1.78811
 Alpha virt. eigenvalues --    1.80770   1.81305   1.82264   1.82912   1.84658
 Alpha virt. eigenvalues --    1.86679   1.88892   1.89537   1.92219   1.94569
 Alpha virt. eigenvalues --    1.95634   1.97703   1.99958   2.02935   2.05060
 Alpha virt. eigenvalues --    2.06205   2.07009   2.08565   2.10581   2.11408
 Alpha virt. eigenvalues --    2.13225   2.14303   2.15566   2.16412   2.17772
 Alpha virt. eigenvalues --    2.22566   2.23196   2.24654   2.25784   2.28407
 Alpha virt. eigenvalues --    2.30628   2.32702   2.35554   2.37688   2.38550
 Alpha virt. eigenvalues --    2.40921   2.41112   2.44063   2.45692   2.47553
 Alpha virt. eigenvalues --    2.49683   2.51885   2.52324   2.53304   2.55001
 Alpha virt. eigenvalues --    2.56754   2.57322   2.59152   2.60065   2.60246
 Alpha virt. eigenvalues --    2.61209   2.63362   2.64177   2.66108   2.67292
 Alpha virt. eigenvalues --    2.67816   2.68230   2.68782   2.72544   2.73963
 Alpha virt. eigenvalues --    2.74618   2.75283   2.75908   2.76621   2.79179
 Alpha virt. eigenvalues --    2.80389   2.81338   2.82595   2.83777   2.84046
 Alpha virt. eigenvalues --    2.85801   2.86282   2.88703   2.90130   2.90762
 Alpha virt. eigenvalues --    2.92158   2.93631   2.96682   2.99495   3.00179
 Alpha virt. eigenvalues --    3.02441   3.02645   3.03799   3.08590   3.10098
 Alpha virt. eigenvalues --    3.10352   3.11805   3.11939   3.12732   3.12983
 Alpha virt. eigenvalues --    3.14191   3.14356   3.16164   3.17050   3.18883
 Alpha virt. eigenvalues --    3.20306   3.21202   3.22816   3.24043   3.25046
 Alpha virt. eigenvalues --    3.25419   3.26302   3.26908   3.28435   3.30409
 Alpha virt. eigenvalues --    3.33253   3.34257   3.35826   3.36676   3.37426
 Alpha virt. eigenvalues --    3.38352   3.39853   3.42697   3.43448   3.44506
 Alpha virt. eigenvalues --    3.45734   3.47423   3.48500   3.49486   3.51010
 Alpha virt. eigenvalues --    3.53621   3.54408   3.55076   3.55936   3.57822
 Alpha virt. eigenvalues --    3.60543   3.66422   3.67530   3.71971   3.75093
 Alpha virt. eigenvalues --    3.76010   3.80789   3.83291   3.84853   3.93246
 Alpha virt. eigenvalues --    3.94173   3.98199   4.00862   4.04327   4.05505
 Alpha virt. eigenvalues --    4.05905   4.10777   4.11727   4.12071   4.16811
 Alpha virt. eigenvalues --    4.18554   4.19731   4.20216   4.21507   4.22465
 Alpha virt. eigenvalues --    4.23629   4.26801   4.27898   4.31270   4.32489
 Alpha virt. eigenvalues --    4.34428   4.35522   4.52399   4.60392   4.61442
 Alpha virt. eigenvalues --    4.63646   4.64396   4.65705   4.67802   4.69579
 Alpha virt. eigenvalues --    4.74008   4.84700   4.89397   4.89942   4.91590
 Alpha virt. eigenvalues --    4.99475   5.14200   5.15476   5.18289   5.20182
 Alpha virt. eigenvalues --    5.26309   5.27941   5.28869   5.35775   5.37338
 Alpha virt. eigenvalues --    5.43373   5.45011   5.47913   5.56581   6.40963
 Alpha virt. eigenvalues --    6.55751   6.68249   6.76224   6.89767   8.94705
 Alpha virt. eigenvalues --    9.29053   9.47460  20.36472  21.90084  22.12882
 Alpha virt. eigenvalues --   22.32628  22.55595  22.57786  22.67071  22.69815
 Alpha virt. eigenvalues --   22.71987  23.07379  43.65035
          Condensed to atoms (all electrons):
               1          2          3          4          5          6
     1  C    5.674189   0.079367   0.351849  -0.005719  -0.080403  -0.079926
     2  C    0.079367   5.278032  -0.075972   0.163563   0.015101   0.439500
     3  S    0.351849  -0.075972  15.182815  -0.043233   0.306920  -0.023709
     4  C   -0.005719   0.163563  -0.043233   5.348658   0.010282   0.028557
     5  O   -0.080403   0.015101   0.306920   0.010282   8.189343   0.031449
     6  H   -0.079926   0.439500  -0.023709   0.028557   0.031449   0.524836
     7  C    0.124541   0.362547   0.013340  -0.144363  -0.001596  -0.064776
     8  C    0.166831  -0.142249   0.006066   0.311874  -0.001215  -0.007843
     9  H   -0.117222   0.027602   0.007959   0.466654   0.000063   0.000577
    10  H    0.009030  -0.050712  -0.000336  -0.000846  -0.000023  -0.005187
    11  C   -0.164304   0.058532  -0.002307   0.065008   0.000585   0.014126
    12  H    0.011452  -0.003712  -0.000202  -0.053617   0.000003   0.000036
    13  H   -0.002771   0.009643   0.000033   0.010022   0.000001  -0.000119
    14  C    0.009341  -0.001551  -0.072193   0.000404   0.086832  -0.003122
    15  C    0.005244  -0.002858  -0.057599  -0.003177  -0.036485  -0.000658
    16  H   -0.000199   0.000107   0.001344  -0.000000  -0.003459  -0.000029
    17  H    0.003706  -0.000110   0.003557  -0.001251  -0.030052  -0.002502
    18  C   -0.033998   0.010592   0.117727   0.004772  -0.046168   0.002479
    19  H    0.000173  -0.000020  -0.000097  -0.000074  -0.001234  -0.000010
    20  H    0.000872  -0.000059  -0.003400  -0.000098   0.000858  -0.000033
    21  H    0.004098  -0.000361  -0.029980  -0.001519   0.000827  -0.000480
               7          8          9         10         11         12
     1  C    0.124541   0.166831  -0.117222   0.009030  -0.164304   0.011452
     2  C    0.362547  -0.142249   0.027602  -0.050712   0.058532  -0.003712
     3  S    0.013340   0.006066   0.007959  -0.000336  -0.002307  -0.000202
     4  C   -0.144363   0.311874   0.466654  -0.000846   0.065008  -0.053617
     5  O   -0.001596  -0.001215   0.000063  -0.000023   0.000585   0.000003
     6  H   -0.064776  -0.007843   0.000577  -0.005187   0.014126   0.000036
     7  C    4.977102   0.037342  -0.007273   0.424290   0.417004   0.010859
     8  C    0.037342   5.006440  -0.069310   0.008352   0.414258   0.428242
     9  H   -0.007273  -0.069310   0.575953   0.000076   0.015735  -0.007633
    10  H    0.424290   0.008352   0.000076   0.555849  -0.046883  -0.000252
    11  C    0.417004   0.414258   0.015735  -0.046883   4.961382  -0.049654
    12  H    0.010859   0.428242  -0.007633  -0.000252  -0.049654   0.557975
    13  H   -0.048821  -0.048669  -0.000199  -0.006767   0.424703  -0.006547
    14  C   -0.000674  -0.000069  -0.000094   0.000022  -0.000143   0.000000
    15  C    0.000174   0.000388  -0.000535  -0.000003  -0.000053  -0.000000
    16  H    0.000021   0.000001  -0.000000   0.000000  -0.000001   0.000000
    17  H    0.000373   0.000135  -0.000040  -0.000000  -0.000101   0.000000
    18  C   -0.001295  -0.002199   0.002449  -0.000010   0.000831  -0.000015
    19  H    0.000001   0.000002  -0.000001   0.000000  -0.000000  -0.000000
    20  H    0.000011   0.000026  -0.000067   0.000000  -0.000016  -0.000000
    21  H    0.000194  -0.000032  -0.000500   0.000007  -0.000256   0.000011
              13         14         15         16         17         18
     1  C   -0.002771   0.009341   0.005244  -0.000199   0.003706  -0.033998
     2  C    0.009643  -0.001551  -0.002858   0.000107  -0.000110   0.010592
     3  S    0.000033  -0.072193  -0.057599   0.001344   0.003557   0.117727
     4  C    0.010022   0.000404  -0.003177  -0.000000  -0.001251   0.004772
     5  O    0.000001   0.086832  -0.036485  -0.003459  -0.030052  -0.046168
     6  H   -0.000119  -0.003122  -0.000658  -0.000029  -0.002502   0.002479
     7  C   -0.048821  -0.000674   0.000174   0.000021   0.000373  -0.001295
     8  C   -0.048669  -0.000069   0.000388   0.000001   0.000135  -0.002199
     9  H   -0.000199  -0.000094  -0.000535  -0.000000  -0.000040   0.002449
    10  H   -0.006767   0.000022  -0.000003   0.000000  -0.000000  -0.000010
    11  C    0.424703  -0.000143  -0.000053  -0.000001  -0.000101   0.000831
    12  H   -0.006547   0.000000  -0.000000   0.000000   0.000000  -0.000015
    13  H    0.556751   0.000001  -0.000001  -0.000000  -0.000001   0.000003
    14  C    0.000001   4.938104   0.482186   0.406090   0.409405  -0.074879
    15  C   -0.000001   0.482186   4.944596  -0.037243  -0.039770   0.466763
    16  H   -0.000000   0.406090  -0.037243   0.531576  -0.027922   0.009824
    17  H   -0.000001   0.409405  -0.039770  -0.027922   0.553106  -0.007120
    18  C    0.000003  -0.074879   0.466763   0.009824  -0.007120   5.084570
    19  H   -0.000000  -0.043180   0.416511  -0.007851   0.006865  -0.044662
    20  H   -0.000000   0.008279  -0.037619  -0.000272  -0.000149   0.405624
    21  H   -0.000002   0.001798  -0.039320  -0.000193   0.002915   0.406085
              19         20         21
     1  C    0.000173   0.000872   0.004098
     2  C   -0.000020  -0.000059  -0.000361
     3  S   -0.000097  -0.003400  -0.029980
     4  C   -0.000074  -0.000098  -0.001519
     5  O   -0.001234   0.000858   0.000827
     6  H   -0.000010  -0.000033  -0.000480
     7  C    0.000001   0.000011   0.000194
     8  C    0.000002   0.000026  -0.000032
     9  H   -0.000001  -0.000067  -0.000500
    10  H    0.000000   0.000000   0.000007
    11  C   -0.000000  -0.000016  -0.000256
    12  H   -0.000000  -0.000000   0.000011
    13  H   -0.000000  -0.000000  -0.000002
    14  C   -0.043180   0.008279   0.001798
    15  C    0.416511  -0.037619  -0.039320
    16  H   -0.007851  -0.000272  -0.000193
    17  H    0.006865  -0.000149   0.002915
    18  C   -0.044662   0.405624   0.406085
    19  H    0.573188  -0.007126   0.005343
    20  H   -0.007126   0.530137  -0.025081
    21  H    0.005343  -0.025081   0.528183
 Mulliken charges:
               1
     1  C    0.043849
     2  C   -0.166982
     3  S    0.317418
     4  C   -0.155898
     5  O   -0.441632
     6  H    0.146833
     7  C   -0.099001
     8  C   -0.108370
     9  H    0.105804
    10  H    0.113393
    11  C   -0.108446
    12  H    0.113053
    13  H    0.112739
    14  C   -0.146557
    15  C   -0.060541
    16  H    0.128206
    17  H    0.128958
    18  C   -0.301373
    19  H    0.102173
    20  H    0.128109
    21  H    0.148263
 Sum of Mulliken charges =  -0.00000
 Mulliken charges with hydrogens summed into heavy atoms:
               1
     1  C    0.043849
     2  C   -0.020149
     3  S    0.317418
     4  C   -0.050094
     5  O   -0.441632
     7  C    0.014392
     8  C    0.004684
    11  C    0.004293
    14  C    0.110607
    15  C    0.041632
    18  C   -0.025001
 Electronic spatial extent (au):  <R**2>=           2380.1396
 Charge=             -0.0000 electrons
 Dipole moment (field-independent basis, Debye):
    X=             -1.6056    Y=              1.2271    Z=             -0.0786  Tot=              2.0223
 Quadrupole moment (field-independent basis, Debye-Ang):
   XX=            -70.1476   YY=            -75.9664   ZZ=            -66.0432
   XY=              3.3523   XZ=             -0.3139   YZ=             -0.7775
 Traceless Quadrupole moment (field-independent basis, Debye-Ang):
   XX=              0.5714   YY=             -5.2473   ZZ=              4.6759
   XY=              3.3523   XZ=             -0.3139   YZ=             -0.7775
 Octapole moment (field-independent basis, Debye-Ang**2):
  XXX=           -124.9453  YYY=           -153.3887  ZZZ=             -1.4788  XYY=            -36.1724
  XXY=            -35.6822  XXZ=             -1.1354  XZZ=            -38.9837  YZZ=            -40.8511
  YYZ=             -5.8441  XYZ=             -0.7441
 Hexadecapole moment (field-independent basis, Debye-Ang**3):
 XXXX=          -1742.2014 YYYY=           -871.4129 ZZZZ=           -588.9252 XXXY=           -306.3005
 XXXZ=            184.4446 YYYX=           -407.0290 YYYZ=             99.3254 ZZZX=            182.4725
 ZZZY=             82.8993 XXYY=           -456.9887 XXZZ=           -386.2320 YYZZ=           -232.0778
 XXYZ=             29.8554 YYXZ=             68.6409 ZZXY=           -107.0188
 N-N= 6.703376118913D+02 E-N=-3.274541797461D+03  KE= 8.196499010773D+02
 1\1\GINC-BHC0029\SP\RB3LYP\def2TZVP\C9H10O1S1\DHANAWAY\10-Jun-2022\0\\
 # sp B3LYP/Def2TZVP NoSymm\\ts_initalOpt_zmat_AlignedSp\\0,1\C\C,1,1.3
 9254027\S,1,1.78173595,2,121.40622417\C,1,1.39614326,2,120.24103923,3,
 178.35413788,0\O,3,1.53578129,1,106.23472181,2,-5.9129448,0\H,2,1.0817
 7977,1,119.25279364,3,0.25641639,0\C,2,1.39029739,1,119.55261936,6,-17
 9.08652609,0\C,4,1.3878631,1,119.76281802,2,0.12574156,0\H,4,1.0841891
 3,1,120.12193676,8,179.9607912,0\H,7,1.08301212,2,119.54392103,1,179.9
 5523893,0\C,7,1.39068323,2,120.45901567,10,-179.52024283,0\H,8,1.08283
 332,4,119.67222853,1,-179.92394691,0\H,11,1.08238279,7,120.16712864,2,
 179.76471098,0\C,1,3.8183846,2,83.90941151,3,-34.17773255,0\C,14,1.386
 79879,1,86.22836043,2,-157.96514384,0\H,14,1.08037426,1,136.15038536,1
 5,-132.80473134,0\H,14,1.08051659,1,62.805023,15,126.95113392,0\C,15,1
 .37364333,14,119.40564611,1,26.17499553,0\H,15,1.08462714,14,118.55877
 58,18,-160.29958028,0\H,18,1.08205756,15,121.41982337,14,-168.19600102
 ,0\H,18,1.08175282,15,120.89324809,20,-165.34908313,0\\Version=ES64L-G
 16RevA.03\HF=-822.5017792\RMSD=6.481e-09\Dipole=-0.6316773,0.4827752,-
 0.0309134\Quadrupole=0.4248365,-3.9012391,3.4764026,2.4923629,-0.23341
 15,-0.5780307\PG=C01 [X(C9H10O1S1)]\\@


 "THE ACADEMIC HIERARCHY"


 THE PRESIDENT:
   LEAPS TALL BUILDINGS IN A SINGLE BOUND,
     IS MORE POWERFUL THAN A LOCOMOTIVE,
       IS FASTER THAN A SPEEDING BULLET,
         WALKS ON WATER,
           GIVES POLICY TO GOD.

 THE VICE PRESIDENT FOR ACADEMIC AFFAIRS:
   LEAPS SHORT BUILDINGS IN A SINGLE BOUND,
     IS MORE POWERFUL THAN A SWITCH ENGINE,
       IS JUST AS FAST AS A SPEEDING BULLET,
         WALKS ON WATER IF SEA IS CALM,
           TALKS WITH GOD.

 PROFESSOR:
   LEAPS SHORT BUILDINGS WITH A RUNNING START AND FAVORABLE WINDS,
     IS ALMOST AS POWERFUL AS A SWITCH ENGINE,
       CAN FIRE A SPEEDING BULLET,
         WALKS ON WATER IN AN INDOOR SWIMMING POOL,
          TALKS WITH GOD IF SPECIAL REQUEST IS APPROVED.

 ASSOCIATE PROFESSOR:
   BARELY CLEARS A QUONSET HUT,
     LOSES TUG OF WAR WITH LOCOMOTIVE,
       MISFIRES FREQUENTLY,
         SWIMS WELL,
           IS OCCASIONALLY ADDRESSED BY GOD.

 ASSISTANT PROFESSOR:
   MAKES HIGH MARKS ON WALLS WHEN TRYING TO LEAP TALL BUILDINGS,
     IS RUN OVER BY LOCOMOTIVES,
       CAN SOMETIMES HANDLE A GUN WITHOUT INFLICTING SELF INJURY,
         DOG PADDLES,
           TALKS TO ANIMALS.

 GRADUATE STUDENT:
   RUNS INTO BUILDINGS,
     RECOGNIZES LOCOMOTIVES TWO OUT OF THREE TIMES,
       IS NOT ISSUED AMMUNITION,
         CAN STAY AFLOAT WITH A LIFE JACKET,
           TALKS TO WALLS.

 UNDERGRADUATE AND WORK STUDY STUDENT:
   FALLS OVER DOORSTEP WHEN TRYING TO ENTER BUILDINGS,
     SAYS, "LOOK AT THE CHOO-CHOO,"
       WETS HIMSELF WITH A WATER PISTOL,
        PLAYS IN MUD PUDDLES,
          MUMBLES TO HIMSELF.

 DEPARTMENT SECRETARY:
   LIFTS TALL BUILDINGS AND WALKS UNDER THEM,
     KICKS LOCOMOTIVES OFF THE TRACKS,
       CATCHES SPEEDING BULLETS IN HER TEETH AND EATS THEM,
         FREEZES WATER WITH A SINGLE GLANCE,
           IS GOD.
 Job cpu time:       0 days  0 hours 26 minutes 37.6 seconds.
 Elapsed time:       0 days  0 hours  2 minutes 13.4 seconds.
 File lengths (MBytes):  RWF=     93 Int=      0 D2E=      0 Chk=     32 Scr=      1
 Normal termination of Gaussian 16 at Fri Jun 10 11:17:18 2022.
