 Entering Gaussian System, Link 0=g16
 Input=int_initalOpt_zmat_sp.gjf
 Output=int_initalOpt_zmat_sp.out
 Initial command:
 /software/gaussian/g16-a03/l1.exe "/local_scratch/11174444/Gau-19104.inp" -scrdir="/local_scratch/11174444/"
 Entering Link 1 = /software/gaussian/g16-a03/l1.exe PID=     19105.
  
 Copyright (c) 1988,1990,1992,1993,1995,1998,2003,2009,2016,
            Gaussian, Inc.  All Rights Reserved.
  
 This is part of the Gaussian(R) 16 program.  It is based on
 the Gaussian(R) 09 system (copyright 2009, Gaussian, Inc.),
 the Gaussian(R) 03 system (copyright 2003, Gaussian, Inc.),
 the Gaussian(R) 98 system (copyright 1998, Gaussian, Inc.),
 the Gaussian(R) 94 system (copyright 1995, Gaussian, Inc.),
 the Gaussian 92(TM) system (copyright 1992, Gaussian, Inc.),
 the Gaussian 90(TM) system (copyright 1990, Gaussian, Inc.),
 the Gaussian 88(TM) system (copyright 1988, Gaussian, Inc.),
 the Gaussian 86(TM) system (copyright 1986, Carnegie Mellon
 University), and the Gaussian 82(TM) system (copyright 1983,
 Carnegie Mellon University). Gaussian is a federally registered
 trademark of Gaussian, Inc.
  
 This software contains proprietary and confidential information,
 including trade secrets, belonging to Gaussian, Inc.
  
 This software is provided under written license and may be
 used, copied, transmitted, or stored only in accord with that
 written license.
  
 The following legend is applicable only to US Government
 contracts under FAR:
  
                    RESTRICTED RIGHTS LEGEND
  
 Use, reproduction and disclosure by the US Government is
 subject to restrictions as set forth in subparagraphs (a)
 and (c) of the Commercial Computer Software - Restricted
 Rights clause in FAR 52.227-19.
  
 Gaussian, Inc.
 340 Quinnipiac St., Bldg. 40, Wallingford CT 06492
  
  
 ---------------------------------------------------------------
 Warning -- This program may not be used in any manner that
 competes with the business of Gaussian, Inc. or will provide
 assistance to any competitor of Gaussian, Inc.  The licensee
 of this program is prohibited from giving any competitor of
 Gaussian, Inc. access to this program.  By using this program,
 the user acknowledges that Gaussian, Inc. is engaged in the
 business of creating and licensing software in the field of
 computational chemistry and represents and warrants to the
 licensee that it is not a competitor of Gaussian, Inc. and that
 it will not use this program in any manner prohibited above.
 ---------------------------------------------------------------
  

 Cite this work as:
 Gaussian 16, Revision A.03,
 M. J. Frisch, G. W. Trucks, H. B. Schlegel, G. E. Scuseria, 
 M. A. Robb, J. R. Cheeseman, G. Scalmani, V. Barone, 
 G. A. Petersson, H. Nakatsuji, X. Li, M. Caricato, A. V. Marenich, 
 J. Bloino, B. G. Janesko, R. Gomperts, B. Mennucci, H. P. Hratchian, 
 J. V. Ortiz, A. F. Izmaylov, J. L. Sonnenberg, D. Williams-Young, 
 F. Ding, F. Lipparini, F. Egidi, J. Goings, B. Peng, A. Petrone, 
 T. Henderson, D. Ranasinghe, V. G. Zakrzewski, J. Gao, N. Rega, 
 G. Zheng, W. Liang, M. Hada, M. Ehara, K. Toyota, R. Fukuda, 
 J. Hasegawa, M. Ishida, T. Nakajima, Y. Honda, O. Kitao, H. Nakai, 
 T. Vreven, K. Throssell, J. A. Montgomery, Jr., J. E. Peralta, 
 F. Ogliaro, M. J. Bearpark, J. J. Heyd, E. N. Brothers, K. N. Kudin, 
 V. N. Staroverov, T. A. Keith, R. Kobayashi, J. Normand, 
 K. Raghavachari, A. P. Rendell, J. C. Burant, S. S. Iyengar, 
 J. Tomasi, M. Cossi, J. M. Millam, M. Klene, C. Adamo, R. Cammi, 
 J. W. Ochterski, R. L. Martin, K. Morokuma, O. Farkas, 
 J. B. Foresman, and D. J. Fox, Gaussian, Inc., Wallingford CT, 2016.
 
 ******************************************
 Gaussian 16:  ES64L-G16RevA.03 25-Dec-2016
                10-Jun-2022 
 ******************************************
 %nprocshared=12
 Will use up to   12 processors via shared memory.
 %chk=checkpoint.chk
 %mem=12GB
 --------------------------
 # sp B3LYP/Def2TZVP NoSymm
 --------------------------
 1/38=1,172=1/1;
 2/12=2,15=1,17=6,18=5,40=1/2;
 3/5=44,7=101,11=2,25=1,30=1,74=-5/1,2,3;
 4//1;
 5/5=2,38=5/2;
 6/7=2,8=2,9=2,10=2,28=1/1;
 99/5=1,9=1/99;
 ----------------------------
 int_initalOpt_zmat_AlignedSp
 ----------------------------
 Symbolic Z-matrix:
 Charge =  0 Multiplicity = 1
 H
 C                    1    R2
 H                    2    R3       1    A3
 C                    2    R4       1    A4       3    D4       0
 H                    4    R5       2    A5       1    D5       0
 C                    4    R6       2    A6       5    D6       0
 H                    6    R7       4    A7       2    D7       0
 C                    6    R8       4    A8       7    D8       0
 C                    6    R9       4    A9       7    D9       0
 H                    8    R10      6    A10      4    D10      0
 H                    8    R11      6    A11      10   D11      0
 H                    9    R12      6    A12      4    D12      0
 H                    9    R13      6    A13      12   D13      0
       Variables:
  R2                    1.08241                  
  R3                    1.08331                  
  R4                    1.3285                   
  R5                    1.0878                   
  R6                    1.48256                  
  R7                    1.08551                  
  R8                    1.50106                  
  R9                    1.51567                  
  R10                   1.08179                  
  R11                   1.08125                  
  R12                   1.082                    
  R13                   1.0819                   
  A3                  116.68817                  
  A4                  121.19383                  
  A5                  118.50947                  
  A6                  126.72847                  
  A7                  113.61877                  
  A8                  122.87221                  
  A9                  120.40578                  
  A10                 117.82574                  
  A11                 118.32607                  
  A12                 118.19649                  
  A13                 117.0694                   
  D4                  179.8181                   
  D5                   -0.84849                  
  D6                  179.5762                   
  D7                  131.45073                  
  D8                 -147.67493                  
  D9                  140.69696                  
  D10                 142.73292                  
  D11                -144.05935                  
  D12                -138.72118                  
  D13                 143.91261                  
 
                          Input orientation:                          
 ---------------------------------------------------------------------
 Center     Atomic      Atomic             Coordinates (Angstroms)
 Number     Number       Type             X           Y           Z
 ---------------------------------------------------------------------
      1          1           0        0.000000    0.000000    0.000000
      2          6           0        0.000000    0.000000    1.082407
      3          1           0        0.967898    0.000000    1.568958
      4          6           0       -1.136416    0.003608    1.770481
      5          1           0       -2.075548    0.020745    1.221797
      6          6           0       -1.279640   -0.022321    3.245876
      7          1           0       -1.965950    0.726141    3.629425
      8          6           0       -0.158804   -0.408605    4.166571
      9          6           0       -1.324162   -1.342458    3.989190
     10          1           0       -0.067473    0.125636    5.102798
     11          1           0        0.786452   -0.700110    3.729970
     12          1           0       -2.033108   -1.449220    4.799574
     13          1           0       -1.160955   -2.240382    3.408156
 ---------------------------------------------------------------------
                    Distance matrix (angstroms):
                    1          2          3          4          5
     1  H    0.000000
     2  C    1.082407   0.000000
     3  H    1.843490   1.083309   0.000000
     4  C    2.103819   1.328495   2.113944   0.000000
     5  H    2.408551   2.080327   3.063252   1.087804   0.000000
     6  C    3.489081   2.513677   2.804278   1.482557   2.175366
     7  H    4.191058   3.298415   3.657905   2.160059   2.511228
     8  C    4.189569   3.115164   2.860770   2.620476   3.539766
     9  C    4.412396   3.464822   3.593502   2.601887   3.175117
    10  H    5.104791   4.022920   3.684536   3.501695   4.370988
    11  H    3.875737   2.849254   2.278826   2.834120   3.873191
    12  H    5.410146   4.477845   4.641460   3.477093   3.868215
    13  H    4.240596   3.431652   3.596383   2.778142   3.275567
                    6          7          8          9         10
     6  C    0.000000
     7  H    1.085508   0.000000
     8  C    1.501055   2.200444   0.000000
     9  C    1.515672   2.195547   1.503863   0.000000
    10  H    2.222476   2.477025   1.081793   2.230401   0.000000
    11  H    2.227663   3.101616   1.081252   2.221374   1.815407
    12  H    2.240030   2.471023   2.235304   1.082000   2.536895
    13  H    2.227154   3.081758   2.221465   1.081899   3.108948
                   11         12         13
    11  H    0.000000
    12  H    3.107272   0.000000
    13  H    2.503677   1.822809   0.000000
 Symmetry turned off by external request.
 Stoichiometry    C5H8
 Framework group  C1[X(C5H8)]
 Deg. of freedom    33
 Full point group                 C1      NOp   1
 Rotational constants (GHZ):          11.7053031           3.6577464           3.3006290
 Standard basis: def2TZVP (5D, 7F)
   203 basis functions,   319 primitive gaussians,   228 cartesian basis functions
    19 alpha electrons       19 beta electrons
       nuclear repulsion energy       165.0281244485 Hartrees.
 NAtoms=   13 NActive=   13 NUniq=   13 SFac= 1.00D+00 NAtFMM=   60 NAOKFM=F Big=F
 Integral buffers will be    131072 words long.
 Raffenetti 2 integral format.
 Two-electron integral symmetry is turned off.
 One-electron integrals computed using PRISM.
   1 Symmetry operations used in ECPInt.
 ECPInt:  NShTT=    3828 NPrTT=   11160 LenC2=    3810 LenP2D=    9471.
 LDataN:  DoStor=T MaxTD1= 6 Len=  172
 NBasis=   203 RedAO= T EigKep=  1.51D-04  NBF=   203
 NBsUse=   203 1.00D-06 EigRej= -1.00D+00 NBFU=   203
 ExpMin= 9.52D-02 ExpMax= 1.36D+04 ExpMxC= 4.63D+02 IAcc=3 IRadAn=         5 AccDes= 0.00D+00
 Harris functional with IExCor=  402 and IRadAn=       5 diagonalized for initial guess.
 HarFok:  IExCor=  402 AccDes= 0.00D+00 IRadAn=         5 IDoV= 1 UseB2=F ITyADJ=14
 ICtDFT=  3500011 ScaDFX=  1.000000  1.000000  1.000000  1.000000
 FoFCou: FMM=F IPFlag=           0 FMFlag=      100000 FMFlg1=           0
         NFxFlg=           0 DoJE=T BraDBF=F KetDBF=T FulRan=T
         wScrn=  0.000000 ICntrl=       500 IOpCl=  0 I1Cent=   200000004 NGrid=           0
         NMat0=    1 NMatS0=      1 NMatT0=    0 NMatD0=    1 NMtDS0=    0 NMtDT0=    0
 Symmetry not used in FoFCou.
 Requested convergence on RMS density matrix=1.00D-08 within 128 cycles.
 Requested convergence on MAX density matrix=1.00D-06.
 Requested convergence on             energy=1.00D-06.
 No special actions if energy rises.
 Integral accuracy reduced to 1.0D-05 until final iterations.
 Initial convergence to 1.0D-05 achieved.  Increase integral accuracy.
 SCF Done:  E(RB3LYP) =  -195.367314650     A.U. after   13 cycles
            NFock= 13  Conv=0.50D-08     -V/T= 2.0056

 **********************************************************************

            Population analysis using the SCF density.

 **********************************************************************

 Alpha  occ. eigenvalues --  -10.18343 -10.17640 -10.17501 -10.17344 -10.16187
 Alpha  occ. eigenvalues --   -0.86643  -0.76243  -0.63241  -0.60399  -0.54113
 Alpha  occ. eigenvalues --   -0.50618  -0.47318  -0.44430  -0.39079  -0.37052
 Alpha  occ. eigenvalues --   -0.35293  -0.32157  -0.30019  -0.25365
 Alpha virt. eigenvalues --    0.00268   0.04790   0.05826   0.07399   0.07533
 Alpha virt. eigenvalues --    0.10481   0.11526   0.12336   0.12954   0.15722
 Alpha virt. eigenvalues --    0.16347   0.17098   0.18595   0.19913   0.22286
 Alpha virt. eigenvalues --    0.23837   0.25457   0.26699   0.28425   0.29235
 Alpha virt. eigenvalues --    0.32119   0.33790   0.34922   0.35843   0.38005
 Alpha virt. eigenvalues --    0.39425   0.40276   0.41653   0.42128   0.42597
 Alpha virt. eigenvalues --    0.45802   0.46387   0.46735   0.47491   0.47883
 Alpha virt. eigenvalues --    0.50609   0.52969   0.53900   0.58293   0.60417
 Alpha virt. eigenvalues --    0.62718   0.65641   0.67689   0.74389   0.81108
 Alpha virt. eigenvalues --    0.86228   0.87149   0.89702   0.90024   0.95452
 Alpha virt. eigenvalues --    0.95840   0.97699   0.99197   1.00849   1.03095
 Alpha virt. eigenvalues --    1.04106   1.07744   1.11152   1.12895   1.13830
 Alpha virt. eigenvalues --    1.17568   1.18352   1.20997   1.23888   1.26674
 Alpha virt. eigenvalues --    1.33400   1.37381   1.40677   1.47863   1.49831
 Alpha virt. eigenvalues --    1.51478   1.53063   1.56765   1.58746   1.60440
 Alpha virt. eigenvalues --    1.64277   1.65702   1.68688   1.69333   1.70455
 Alpha virt. eigenvalues --    1.75292   1.75920   1.81453   1.83472   1.83970
 Alpha virt. eigenvalues --    1.84663   1.85339   1.91581   1.94660   1.97485
 Alpha virt. eigenvalues --    2.03274   2.05094   2.10723   2.16633   2.25055
 Alpha virt. eigenvalues --    2.27052   2.32279   2.34515   2.35736   2.39019
 Alpha virt. eigenvalues --    2.40859   2.42226   2.44070   2.48023   2.49306
 Alpha virt. eigenvalues --    2.52153   2.54798   2.56139   2.57667   2.60240
 Alpha virt. eigenvalues --    2.61398   2.62319   2.65577   2.68524   2.69542
 Alpha virt. eigenvalues --    2.72546   2.75133   2.78202   2.81401   2.86644
 Alpha virt. eigenvalues --    2.90526   2.93344   2.96540   2.97230   3.00351
 Alpha virt. eigenvalues --    3.02501   3.04600   3.05306   3.08058   3.08930
 Alpha virt. eigenvalues --    3.10850   3.13440   3.14693   3.15845   3.20482
 Alpha virt. eigenvalues --    3.23419   3.24992   3.27840   3.30743   3.33904
 Alpha virt. eigenvalues --    3.37010   3.40728   3.43886   3.45429   3.47644
 Alpha virt. eigenvalues --    3.56997   3.58504   3.59902   3.64480   3.69302
 Alpha virt. eigenvalues --    3.73379   3.76603   3.81175   3.85794   3.91547
 Alpha virt. eigenvalues --    3.95642   3.99788   4.03244   4.06036   4.09333
 Alpha virt. eigenvalues --    4.12295   4.14950   4.16652   4.22274   4.32308
 Alpha virt. eigenvalues --    4.38452   4.41413   4.43866   4.51837   4.54369
 Alpha virt. eigenvalues --    4.57714   4.59160   4.68221   4.71740   4.81250
 Alpha virt. eigenvalues --    4.88251   4.97085   5.06082   5.12308  22.12816
 Alpha virt. eigenvalues --   22.37133  22.42491  22.54786  22.72978
          Condensed to atoms (all electrons):
               1          2          3          4          5          6
     1  H    0.556460   0.412080  -0.035254  -0.041232  -0.009665   0.008722
     2  C    0.412080   4.902262   0.409048   0.618632  -0.037268  -0.045326
     3  H   -0.035254   0.409048   0.563825  -0.043864   0.007622  -0.010603
     4  C   -0.041232   0.618632  -0.043864   4.932704   0.407025   0.357687
     5  H   -0.009665  -0.037268   0.007622   0.407025   0.585673  -0.056660
     6  C    0.008722  -0.045326  -0.010603   0.357687  -0.056660   4.965999
     7  H   -0.000459   0.003372   0.000106  -0.053090  -0.002687   0.438227
     8  C    0.000348  -0.001108   0.005109  -0.033360   0.008201   0.258973
     9  C   -0.000454  -0.008167  -0.001371  -0.023636  -0.002502   0.229436
    10  H   -0.000013  -0.000570  -0.000054   0.006238  -0.000193  -0.036389
    11  H   -0.000227   0.000217   0.003377  -0.003496   0.000109  -0.028488
    12  H    0.000034  -0.000028  -0.000057   0.005066   0.000126  -0.031366
    13  H   -0.000161   0.003058   0.000478  -0.002605   0.001563  -0.031454
               7          8          9         10         11         12
     1  H   -0.000459   0.000348  -0.000454  -0.000013  -0.000227   0.000034
     2  C    0.003372  -0.001108  -0.008167  -0.000570   0.000217  -0.000028
     3  H    0.000106   0.005109  -0.001371  -0.000054   0.003377  -0.000057
     4  C   -0.053090  -0.033360  -0.023636   0.006238  -0.003496   0.005066
     5  H   -0.002687   0.008201  -0.002502  -0.000193   0.000109   0.000126
     6  C    0.438227   0.258973   0.229436  -0.036389  -0.028488  -0.031366
     7  H    0.612093  -0.033625  -0.052050  -0.007411   0.004144  -0.007071
     8  C   -0.033625   4.998015   0.213369   0.421819   0.421975  -0.022679
     9  C   -0.052050   0.213369   5.087277  -0.024454  -0.030134   0.408538
    10  H   -0.007411   0.421819  -0.024454   0.568400  -0.026626  -0.007868
    11  H    0.004144   0.421975  -0.030134  -0.026626   0.559635   0.002400
    12  H   -0.007071  -0.022679   0.408538  -0.007868   0.002400   0.576104
    13  H    0.004397  -0.021318   0.411688   0.002414  -0.006516  -0.026306
              13
     1  H   -0.000161
     2  C    0.003058
     3  H    0.000478
     4  C   -0.002605
     5  H    0.001563
     6  C   -0.031454
     7  H    0.004397
     8  C   -0.021318
     9  C    0.411688
    10  H    0.002414
    11  H   -0.006516
    12  H   -0.026306
    13  H    0.556079
 Mulliken charges:
               1
     1  H    0.109820
     2  C   -0.256203
     3  H    0.101637
     4  C   -0.126070
     5  H    0.098656
     6  C   -0.018760
     7  H    0.094053
     8  C   -0.215720
     9  C   -0.207541
    10  H    0.104706
    11  H    0.103630
    12  H    0.103107
    13  H    0.108684
 Sum of Mulliken charges =  -0.00000
 Mulliken charges with hydrogens summed into heavy atoms:
               1
     2  C   -0.044746
     4  C   -0.027414
     6  C    0.075293
     8  C   -0.007383
     9  C    0.004250
 Electronic spatial extent (au):  <R**2>=           1654.4044
 Charge=             -0.0000 electrons
 Dipole moment (field-independent basis, Debye):
    X=             -0.2446    Y=             -0.0422    Z=              0.3645  Tot=              0.4410
 Quadrupole moment (field-independent basis, Debye-Ang):
   XX=            -30.5027   YY=            -33.8459   ZZ=            -28.9530
   XY=             -0.3920   XZ=             -1.4526   YZ=              0.5197
 Traceless Quadrupole moment (field-independent basis, Debye-Ang):
   XX=              0.5978   YY=             -2.7454   ZZ=              2.1475
   XY=             -0.3920   XZ=             -1.4526   YZ=              0.5197
 Octapole moment (field-independent basis, Debye-Ang**2):
  XXX=             71.3634  YYY=             34.7635  ZZZ=           -259.0975  XYY=             24.1940
  XXY=             12.9726  XXZ=            -86.7720  XZZ=             15.3186  YZZ=             17.1211
  YYZ=            -94.9324  XYZ=             -0.7997
 Hexadecapole moment (field-independent basis, Debye-Ang**3):
 XXXX=           -246.5615 YYYY=           -135.5699 ZZZZ=          -1863.8478 XXXY=            -41.5103
 XXXZ=            226.7145 YYYX=            -35.9240 YYYZ=            143.4457 ZZZX=            180.7601
 ZZZY=            177.9951 XXYY=            -64.6226 XXZZ=           -344.3020 YYZZ=           -360.2032
 XXYZ=             49.4707 YYXZ=             74.4047 ZZXY=            -12.2992
 N-N= 1.650281244485D+02 E-N=-7.821353648301D+02  KE= 1.942737220398D+02
 1\1\GINC-BHC0108\SP\RB3LYP\def2TZVP\C5H8\DHANAWAY\10-Jun-2022\0\\# sp 
 B3LYP/Def2TZVP NoSymm\\int_initalOpt_zmat_AlignedSp\\0,1\H\C,1,1.08240
 687\H,2,1.08330891,1,116.68816908\C,2,1.3284951,1,121.19382615,3,179.8
 1809537,0\H,4,1.08780376,2,118.509473,1,-0.84849399,0\C,4,1.48255734,2
 ,126.7284741,5,179.57620325,0\H,6,1.08550805,4,113.61877267,2,131.4507
 3169,0\C,6,1.50105531,4,122.87221283,7,-147.6749271,0\C,6,1.51567194,4
 ,120.40577961,7,140.69695935,0\H,8,1.08179327,6,117.82573998,4,142.732
 92392,0\H,8,1.0812518,6,118.32607254,10,-144.05935408,0\H,9,1.08199984
 ,6,118.19649144,4,-138.72117783,0\H,9,1.08189852,6,117.06940358,12,143
 .91260928,0\\Version=ES64L-G16RevA.03\HF=-195.3673147\RMSD=4.984e-09\D
 ipole=-0.0962373,-0.0166171,0.1434041\Quadrupole=0.4444859,-2.0411042,
 1.5966183,-0.2914612,-1.0799976,0.3864157\PG=C01 [X(C5H8)]\\@


 THE WORLD IS MADE UP OF THE WILLS, THE WON'TS, AND THE CANT'S:
 THE WILLS DO EVERYTHING,
 THE WON'TS DO NOTHING,
 THE CAN'TS CAN'T DO ANYTHING.

                               -- FROM WALT DISNEY'S "BLACK HOLE"
 Job cpu time:       0 days  0 hours  3 minutes 40.8 seconds.
 Elapsed time:       0 days  0 hours  0 minutes 18.6 seconds.
 File lengths (MBytes):  RWF=     25 Int=      0 D2E=      0 Chk=     32 Scr=      1
 Normal termination of Gaussian 16 at Fri Jun 10 22:25:23 2022.
