 Entering Gaussian System, Link 0=g16
 Input=ts_zmat_field_N25.gjf
 Output=ts_zmat_field_N25.out
 Initial command:
 /software/gaussian/g16-a03/l1.exe "/local_scratch/11174434/Gau-5562.inp" -scrdir="/local_scratch/11174434/"
 Entering Link 1 = /software/gaussian/g16-a03/l1.exe PID=      5563.
  
 Copyright (c) 1988,1990,1992,1993,1995,1998,2003,2009,2016,
            Gaussian, Inc.  All Rights Reserved.
  
 This is part of the Gaussian(R) 16 program.  It is based on
 the Gaussian(R) 09 system (copyright 2009, Gaussian, Inc.),
 the Gaussian(R) 03 system (copyright 2003, Gaussian, Inc.),
 the Gaussian(R) 98 system (copyright 1998, Gaussian, Inc.),
 the Gaussian(R) 94 system (copyright 1995, Gaussian, Inc.),
 the Gaussian 92(TM) system (copyright 1992, Gaussian, Inc.),
 the Gaussian 90(TM) system (copyright 1990, Gaussian, Inc.),
 the Gaussian 88(TM) system (copyright 1988, Gaussian, Inc.),
 the Gaussian 86(TM) system (copyright 1986, Carnegie Mellon
 University), and the Gaussian 82(TM) system (copyright 1983,
 Carnegie Mellon University). Gaussian is a federally registered
 trademark of Gaussian, Inc.
  
 This software contains proprietary and confidential information,
 including trade secrets, belonging to Gaussian, Inc.
  
 This software is provided under written license and may be
 used, copied, transmitted, or stored only in accord with that
 written license.
  
 The following legend is applicable only to US Government
 contracts under FAR:
  
                    RESTRICTED RIGHTS LEGEND
  
 Use, reproduction and disclosure by the US Government is
 subject to restrictions as set forth in subparagraphs (a)
 and (c) of the Commercial Computer Software - Restricted
 Rights clause in FAR 52.227-19.
  
 Gaussian, Inc.
 340 Quinnipiac St., Bldg. 40, Wallingford CT 06492
  
  
 ---------------------------------------------------------------
 Warning -- This program may not be used in any manner that
 competes with the business of Gaussian, Inc. or will provide
 assistance to any competitor of Gaussian, Inc.  The licensee
 of this program is prohibited from giving any competitor of
 Gaussian, Inc. access to this program.  By using this program,
 the user acknowledges that Gaussian, Inc. is engaged in the
 business of creating and licensing software in the field of
 computational chemistry and represents and warrants to the
 licensee that it is not a competitor of Gaussian, Inc. and that
 it will not use this program in any manner prohibited above.
 ---------------------------------------------------------------
  

 Cite this work as:
 Gaussian 16, Revision A.03,
 M. J. Frisch, G. W. Trucks, H. B. Schlegel, G. E. Scuseria, 
 M. A. Robb, J. R. Cheeseman, G. Scalmani, V. Barone, 
 G. A. Petersson, H. Nakatsuji, X. Li, M. Caricato, A. V. Marenich, 
 J. Bloino, B. G. Janesko, R. Gomperts, B. Mennucci, H. P. Hratchian, 
 J. V. Ortiz, A. F. Izmaylov, J. L. Sonnenberg, D. Williams-Young, 
 F. Ding, F. Lipparini, F. Egidi, J. Goings, B. Peng, A. Petrone, 
 T. Henderson, D. Ranasinghe, V. G. Zakrzewski, J. Gao, N. Rega, 
 G. Zheng, W. Liang, M. Hada, M. Ehara, K. Toyota, R. Fukuda, 
 J. Hasegawa, M. Ishida, T. Nakajima, Y. Honda, O. Kitao, H. Nakai, 
 T. Vreven, K. Throssell, J. A. Montgomery, Jr., J. E. Peralta, 
 F. Ogliaro, M. J. Bearpark, J. J. Heyd, E. N. Brothers, K. N. Kudin, 
 V. N. Staroverov, T. A. Keith, R. Kobayashi, J. Normand, 
 K. Raghavachari, A. P. Rendell, J. C. Burant, S. S. Iyengar, 
 J. Tomasi, M. Cossi, J. M. Millam, M. Klene, C. Adamo, R. Cammi, 
 J. W. Ochterski, R. L. Martin, K. Morokuma, O. Farkas, 
 J. B. Foresman, and D. J. Fox, Gaussian, Inc., Wallingford CT, 2016.
 
 ******************************************
 Gaussian 16:  ES64L-G16RevA.03 25-Dec-2016
                10-Jun-2022 
 ******************************************
 %nprocshared=12
 Will use up to   12 processors via shared memory.
 %chk=checkpoint.chk
 %mem=12GB
 ----------------------------------------------------------------------
 # Opt=(TS, CalcFC, noeigentest, Z-matrix, MaxStep=10) Field=read NoSym
 m B3LYP/Def2TZVP freq=noraman pop=none
 ----------------------------------------------------------------------
 1/5=1,8=10,10=4,11=1,18=40,26=3,38=1/1,3;
 2/12=2,15=1,17=6,18=5,29=3,40=1/2;
 3/5=44,7=101,11=2,14=-6,25=1,30=1,71=2,74=-5,140=1/1,2,3;
 4//1;
 5/5=2,38=5/2;
 8/6=4,10=90,11=11/1;
 11/6=1,8=1,9=11,15=111,16=1,31=1/1,2,10;
 10/6=1,13=1,31=1/2;
 7/10=1,18=20,25=1,30=1/1,2,3,16;
 1/5=1,8=10,10=4,11=1,18=40,26=3/3(2);
 2/15=1,29=3/2;
 99//99;
 2/15=1,29=3/2;
 3/5=44,7=101,11=2,14=-2,25=1,30=1,71=1,74=-5/1,2,3;
 4/5=5,16=3,69=1/1;
 5/5=2,38=5/2;
 7/30=1/1,2,3,16;
 1/5=1,8=10,11=1,18=40,26=3/3(-5);
 2/15=1,29=3/2;
 99/9=1/99;
 -----------------
 ts_zmat_initalOpt
 -----------------
 Symbolic Z-matrix:
 Charge =  0 Multiplicity = 1
 H
 C                    1    R2
 C                    2    R3       1    A3
 C                    2    R4       1    A4       3    D4       0
 H                    3    R5       2    A5       1    D5       0
 O                    3    R6       2    A6       5    D6       0
 C                    4    R7       2    A7       1    D7       0
 H                    4    R8       2    A8       7    D8       0
 C                    7    R9       4    A9       2    D9       0
 H                    7    R10      4    A10      9    D10      0
 H                    9    R11      7    A11      4    D11      0
 H                    9    R12      7    A12      11   D12      0
       Variables:
  R2                    1.08157                  
  R3                    1.41318                  
  R4                    1.39888                  
  R5                    1.09689                  
  R6                    1.25677                  
  R7                    1.38897                  
  R8                    1.08604                  
  R9                    1.39155                  
  R10                   1.08301                  
  R11                   1.08254                  
  R12                   1.08113                  
  A3                  116.39101                  
  A4                  119.66859                  
  A5                  115.63488                  
  A6                  128.07093                  
  A7                  120.8886                   
  A8                  118.16898                  
  A9                  117.32015                  
  A10                 120.74978                  
  A11                 120.84504                  
  A12                 118.50256                  
  D4                  154.83104                  
  D5                   12.05147                  
  D6                  171.43426                  
  D7                 -176.82555                  
  D8                  168.94192                  
  D9                  -21.18962                  
  D10                 169.69548                  
  D11                 163.18628                  
  D12                 152.61335                  
 

 GradGradGradGradGradGradGradGradGradGradGradGradGradGradGradGradGradGrad
 Berny optimization.
 Initialization pass.
                       ----------------------------
                       !    Initial Parameters    !
                       ! (Angstroms and Degrees)  !
 ----------------------                            ----------------------
 !      Name          Value   Derivative information (Atomic Units)     !
 ------------------------------------------------------------------------
 !       R2          1.0816   calculate D2E/DX2 analytically            !
 !       R3          1.4132   calculate D2E/DX2 analytically            !
 !       R4          1.3989   calculate D2E/DX2 analytically            !
 !       R5          1.0969   calculate D2E/DX2 analytically            !
 !       R6          1.2568   calculate D2E/DX2 analytically            !
 !       R7          1.389    calculate D2E/DX2 analytically            !
 !       R8          1.086    calculate D2E/DX2 analytically            !
 !       R9          1.3915   calculate D2E/DX2 analytically            !
 !       R10         1.083    calculate D2E/DX2 analytically            !
 !       R11         1.0825   calculate D2E/DX2 analytically            !
 !       R12         1.0811   calculate D2E/DX2 analytically            !
 !       A3        116.391    calculate D2E/DX2 analytically            !
 !       A4        119.6686   calculate D2E/DX2 analytically            !
 !       A5        115.6349   calculate D2E/DX2 analytically            !
 !       A6        128.0709   calculate D2E/DX2 analytically            !
 !       A7        120.8886   calculate D2E/DX2 analytically            !
 !       A8        118.169    calculate D2E/DX2 analytically            !
 !       A9        117.3201   calculate D2E/DX2 analytically            !
 !       A10       120.7498   calculate D2E/DX2 analytically            !
 !       A11       120.845    calculate D2E/DX2 analytically            !
 !       A12       118.5026   calculate D2E/DX2 analytically            !
 !       D4        154.831    calculate D2E/DX2 analytically            !
 !       D5         12.0515   calculate D2E/DX2 analytically            !
 !       D6        171.4343   calculate D2E/DX2 analytically            !
 !       D7       -176.8255   calculate D2E/DX2 analytically            !
 !       D8        168.9419   calculate D2E/DX2 analytically            !
 !       D9        -21.1896   calculate D2E/DX2 analytically            !
 !       D10       169.6955   calculate D2E/DX2 analytically            !
 !       D11       163.1863   calculate D2E/DX2 analytically            !
 !       D12       152.6134   calculate D2E/DX2 analytically            !
 ------------------------------------------------------------------------
 Trust Radius=1.00D-01 FncErr=1.00D-07 GrdErr=1.00D-06 EigMax=2.50D+02 EigMin=1.00D-04
 Number of steps in this run=     40 maximum allowed number of steps=    100.
 Search for a saddle point of order  1.
 GradGradGradGradGradGradGradGradGradGradGradGradGradGradGradGradGradGrad

 ---------------------------------------------------------------------------------------------------
                            Z-MATRIX (ANGSTROMS AND DEGREES)
   CD    Cent   Atom    N1       Length/X        N2       Alpha/Y        N3        Beta/Z          J
 ---------------------------------------------------------------------------------------------------
      1      1  H 
      2      2  C        1   1.081565(     1)
      3      3  C        2   1.413178(     2)      1  116.391(    12)
      4      4  C        2   1.398883(     3)      1  119.669(    13)      3  154.831(    22)      0
      5      5  H        3   1.096888(     4)      2  115.635(    14)      1   12.051(    23)      0
      6      6  O        3   1.256770(     5)      2  128.071(    15)      5  171.434(    24)      0
      7      7  C        4   1.388974(     6)      2  120.889(    16)      1 -176.826(    25)      0
      8      8  H        4   1.086045(     7)      2  118.169(    17)      7  168.942(    26)      0
      9      9  C        7   1.391548(     8)      4  117.320(    18)      2  -21.190(    27)      0
     10     10  H        7   1.083006(     9)      4  120.750(    19)      9  169.695(    28)      0
     11     11  H        9   1.082539(    10)      7  120.845(    20)      4  163.186(    29)      0
     12     12  H        9   1.081125(    11)      7  118.503(    21)     11  152.613(    30)      0
 ---------------------------------------------------------------------------------------------------
                         Z-Matrix orientation:                         
 ---------------------------------------------------------------------
 Center     Atomic      Atomic             Coordinates (Angstroms)
 Number     Number       Type             X           Y           Z
 ---------------------------------------------------------------------
      1          1           0        0.000000    0.000000    0.000000
      2          6           0        0.000000    0.000000    1.081565
      3          6           0        1.265899    0.000000    1.709715
      4          6           0       -1.100092    0.516936    1.773988
      5          1           0        2.120875    0.206477    1.054318
      6          8           0        1.521138   -0.060155    2.938823
      7          6           0       -1.099605    0.589638    3.161057
      8          1           0       -1.872284    1.024887    1.203725
      9          6           0       -0.221465   -0.246257    3.844106
     10          1           0       -1.632443    1.380580    3.674278
     11          1           0        0.028407   -0.060530    4.880909
     12          1           0       -0.140505   -1.277346    3.529251
 ---------------------------------------------------------------------
                    Distance matrix (angstroms):
                    1          2          3          4          5
     1  H    0.000000
     2  C    1.081565   0.000000
     3  C    2.127352   1.413178   0.000000
     4  C    2.150455   1.398883   2.422656   0.000000
     5  H    2.377463   2.131076   1.096888   3.314956   0.000000
     6  O    3.309707   2.401434   1.256770   2.925871   1.995529
     7  C    3.398395   2.425096   2.837195   1.388974   3.867383
     8  H    2.450468   2.137934   3.339851   1.086045   4.078901
     9  C    3.858347   2.782323   2.613144   2.374835   3.670756
    10  H    4.251022   3.360511   3.763761   2.154155   4.725474
    11  H    4.881367   3.799932   3.404632   3.355583   4.369498
    12  H    3.755924   2.764511   2.630645   2.687229   3.666178
                    6          7          8          9         10
     6  O    0.000000
     7  C    2.709227   0.000000
     8  H    3.962725   2.148866   0.000000
     9  C    1.972521   1.391548   3.363424   0.000000
    10  H    3.544247   1.083006   2.507523   2.160162   0.000000
    11  H    2.449479   2.157085   4.279303   1.082539   2.508223
    12  H    2.142713   2.130978   3.702351   1.081125   3.051472
                   11         12
    11  H    0.000000
    12  H    1.826514   0.000000
 Symmetry turned off by external request.
 Stoichiometry    C5H6O
 Framework group  C1[X(C5H6O)]
 Deg. of freedom    30
 Full point group                 C1      NOp   1
 Rotational constants (GHZ):           5.5367278           4.6725769           2.7070362
 Standard basis: def2TZVP (5D, 7F)
 The following finite field(s) will be applied:
 An electric field of              0.0020  0.0010  0.0011
   222 basis functions,   354 primitive gaussians,   252 cartesian basis functions
    22 alpha electrons       22 beta electrons
       nuclear repulsion energy       217.8751587702 Hartrees.
 NAtoms=   12 NActive=   12 NUniq=   12 SFac= 1.00D+00 NAtFMM=   60 NAOKFM=F Big=F
 Integral buffers will be    131072 words long.
 Raffenetti 2 integral format.
 Two-electron integral symmetry is turned off.
 One-electron integrals computed using PRISM.
   1 Symmetry operations used in ECPInt.
 ECPInt:  NShTT=    4095 NPrTT=   12396 LenC2=    4075 LenP2D=   10363.
 LDataN:  DoStor=T MaxTD1= 6 Len=  172
 NBasis=   222 RedAO= T EigKep=  1.17D-04  NBF=   222
 NBsUse=   222 1.00D-06 EigRej= -1.00D+00 NBFU=   222
 The nuclear repulsion energy is now       218.1334931411 hartrees.
 ExpMin= 9.52D-02 ExpMax= 2.70D+04 ExpMxC= 9.22D+02 IAcc=3 IRadAn=         5 AccDes= 0.00D+00
 Harris functional with IExCor=  402 and IRadAn=       5 diagonalized for initial guess.
 HarFok:  IExCor=  402 AccDes= 0.00D+00 IRadAn=         5 IDoV= 1 UseB2=F ITyADJ=14
 ICtDFT=  3500011 ScaDFX=  1.000000  1.000000  1.000000  1.000000
 FoFCou: FMM=F IPFlag=           0 FMFlag=      100000 FMFlg1=           0
         NFxFlg=           0 DoJE=T BraDBF=F KetDBF=T FulRan=T
         wScrn=  0.000000 ICntrl=       500 IOpCl=  0 I1Cent=   200000004 NGrid=           0
         NMat0=    1 NMatS0=      1 NMatT0=    0 NMatD0=    1 NMtDS0=    0 NMtDT0=    0
 Symmetry not used in FoFCou.
 Keep R1 ints in memory in canonical form, NReq=319363861.
 Requested convergence on RMS density matrix=1.00D-08 within 128 cycles.
 Requested convergence on MAX density matrix=1.00D-06.
 Requested convergence on             energy=1.00D-06.
 No special actions if energy rises.
 Integral accuracy reduced to 1.0D-05 until final iterations.
 Initial convergence to 1.0D-05 achieved.  Increase integral accuracy.
 SCF Done:  E(RB3LYP) =  -269.392748279     A.U. after   14 cycles
            NFock= 14  Conv=0.97D-08     -V/T= 2.0050
 DoSCS=F DFT=T ScalE2(SS,OS)=  1.000000  1.000000
 Range of M.O.s used for correlation:     1   222
 NBasis=   222 NAE=    22 NBE=    22 NFC=     0 NFV=     0
 NROrb=    222 NOA=    22 NOB=    22 NVA=   200 NVB=   200

 **** Warning!!: The largest alpha MO coefficient is  0.19326549D+02

   1 Symmetry operations used in ECPInt.
 ECPInt:  NShTT=    4095 NPrTT=   12396 LenC2=    4075 LenP2D=   10363.
 LDataN:  DoStor=T MaxTD1= 7 Len=  274
 Symmetrizing basis deriv contribution to polar:
 IMax=3 JMax=2 DiffMx= 0.00D+00
 G2DrvN: will do    13 centers at a time, making    1 passes.
 Calling FoFCou, ICntrl=  3107 FMM=F I1Cent=   0 AccDes= 0.00D+00.
 End of G2Drv F.D. properties file   721 does not exist.
 End of G2Drv F.D. properties file   722 does not exist.
 End of G2Drv F.D. properties file   788 does not exist.
          IDoAtm=111111111111
          Differentiating once with respect to nuclear coordinates.
 Keep R1 ints in memory in canonical form, NReq=319333990.
          There are    39 degrees of freedom in the 1st order CPHF.  IDoFFX=6 NUNeed=     0.
     33 vectors produced by pass  0 Test12= 1.13D-14 2.56D-09 XBig12= 1.71D-01 2.58D-01.
 AX will form    33 AO Fock derivatives at one time.
     33 vectors produced by pass  1 Test12= 1.13D-14 2.56D-09 XBig12= 2.51D-02 3.93D-02.
     33 vectors produced by pass  2 Test12= 1.13D-14 2.56D-09 XBig12= 3.23D-04 3.97D-03.
     33 vectors produced by pass  3 Test12= 1.13D-14 2.56D-09 XBig12= 1.56D-06 1.66D-04.
     33 vectors produced by pass  4 Test12= 1.13D-14 2.56D-09 XBig12= 3.58D-09 8.17D-06.
     32 vectors produced by pass  5 Test12= 1.13D-14 2.56D-09 XBig12= 6.55D-12 3.26D-07.
      7 vectors produced by pass  6 Test12= 1.13D-14 2.56D-09 XBig12= 9.67D-15 1.33D-08.
 InvSVY:  IOpt=1 It=  1 EMax= 2.66D-15
 Solved reduced A of dimension   204 with    33 vectors.
 End of Minotr F.D. properties file   721 does not exist.
 End of Minotr F.D. properties file   722 does not exist.
 End of Minotr F.D. properties file   788 does not exist.
   1 Symmetry operations used in ECPInt.
 ECPInt:  NShTT=    4095 NPrTT=   12396 LenC2=    4075 LenP2D=   10363.
 LDataN:  DoStor=T MaxTD1= 8 Len=  415
 Calling FoFJK, ICntrl=    100147 FMM=F ISym2X=0 I1Cent= 0 IOpClX= 0 NMat=1 NMatS=1 NMatT=0.
 -------------------------------------------------------------------
 Center     Atomic                   Forces (Hartrees/Bohr)
 Number     Number              X              Y              Z
 -------------------------------------------------------------------
      1        1          -0.000173830   -0.000221645    0.000085709
      2        6           0.001112572    0.000487483    0.000123244
      3        6          -0.001626909   -0.000207559   -0.001588986
      4        6          -0.000258642    0.000112015   -0.000201210
      5        1          -0.000025499    0.000027764   -0.000294081
      6        8           0.001919480    0.000140014    0.001378333
      7        6           0.000907760   -0.000035324    0.000583173
      8        1           0.000017693   -0.000322058    0.000040649
      9        6          -0.001479211    0.000127220   -0.000233313
     10        1          -0.000224784   -0.000128514   -0.000045547
     11        1          -0.000187587   -0.000051135    0.000146240
     12        1           0.000018957    0.000071737    0.000005790
 -------------------------------------------------------------------
 Cartesian Forces:  Max     0.001919480 RMS     0.000672214
 -----------------------------------------------------------------------------------------------
                       Internal Coordinate Forces (Hartree/Bohr or radian)
  Cent   Atom   N1       Length/X         N2         Alpha/Y        N3         Beta/Z          J
 -----------------------------------------------------------------------------------------------
      1  H 
      2  C        1  -0.000086(     1)
      3  C        2   0.000015(     2)      1  -0.005825(    12)
      4  C        2   0.001011(     3)      1  -0.005335(    13)      3   0.000431(    22)     0
      5  H        3   0.000161(     4)      2  -0.000513(    14)      1  -0.000352(    23)     0
      6  O        3   0.001731(     5)      2   0.003815(    15)      5  -0.000305(    24)     0
      7  C        4   0.000455(     6)      2   0.004598(    16)      1  -0.002501(    25)     0
      8  H        4  -0.000185(     7)      2  -0.000060(    17)      7   0.000481(    26)     0
      9  C        7  -0.001169(     8)      4   0.001561(    18)      2  -0.001942(    27)     0
     10  H        7  -0.000005(     9)      4  -0.000119(    19)      9   0.000451(    28)     0
     11  H        9   0.000088(    10)      7  -0.000145(    20)      4   0.000429(    29)     0
     12  H        9  -0.000069(    11)      7   0.000010(    21)     11   0.000051(    30)     0
 -----------------------------------------------------------------------------------------------
 Internal  Forces:  Max     0.005824689 RMS     0.001979437

 GradGradGradGradGradGradGradGradGradGradGradGradGradGradGradGradGradGrad
 Berny optimization.
 Search for a saddle point.
 Step number   1 out of a maximum of   40
 All quantities printed in internal units (Hartrees-Bohrs-Radians)
 Swapping is turned off.
 Second derivative matrix not updated -- analytic derivatives used.
 ITU=  0
     Eigenvalues ---   -0.87036   0.02331   0.02928   0.04460   0.04959
     Eigenvalues ---    0.05744   0.11190   0.11932   0.14233   0.15315
     Eigenvalues ---    0.17984   0.20262   0.22791   0.25835   0.29707
     Eigenvalues ---    0.32283   0.34018   0.34877   0.35324   0.35673
     Eigenvalues ---    0.36374   0.38692   0.41005   0.43851   0.49332
     Eigenvalues ---    0.52686   0.58313   0.70919   0.97958   1.93279
 Eigenvectors required to have negative eigenvalues:
                          A7        A4        A3        D12       R6
   1                    0.39209  -0.38383  -0.34618   0.29180  -0.27303
                          R9        A9        R3        D11       R7
   1                   -0.27066   0.27001   0.22186   0.21824   0.20849
 RFO step:  Lambda0=6.067788313D-05 Lambda=-8.78909897D-05.
 Linear search not attempted -- option 19 set.
 Variable       Old X    -DE/DX   Delta X   Delta X   Delta X     New X
                                 (Linear)    (Quad)   (Total)
    R2        2.04386  -0.00009   0.00000  -0.00043  -0.00043   2.04343
    R3        2.67052   0.00001   0.00000  -0.00617  -0.00617   2.66435
    R4        2.64351   0.00101   0.00000   0.00238   0.00238   2.64589
    R5        2.07282   0.00016   0.00000  -0.00018  -0.00018   2.07264
    R6        2.37495   0.00173   0.00000   0.00654   0.00654   2.38149
    R7        2.62478   0.00045   0.00000  -0.00260  -0.00260   2.62218
    R8        2.05233  -0.00018   0.00000  -0.00070  -0.00070   2.05163
    R9        2.62964  -0.00117   0.00000   0.00160   0.00160   2.63125
   R10        2.04658  -0.00000   0.00000  -0.00027  -0.00027   2.04632
   R11        2.04570   0.00009   0.00000   0.00031   0.00031   2.04601
   R12        2.04303  -0.00007   0.00000   0.00020   0.00020   2.04323
    A3        2.03141  -0.00582   0.00000   0.00258   0.00258   2.03398
    A4        2.08861  -0.00533   0.00000   0.00032   0.00032   2.08893
    A5        2.01821  -0.00051   0.00000   0.00024   0.00024   2.01845
    A6        2.23526   0.00382   0.00000   0.00194   0.00194   2.23720
    A7        2.10990   0.00460   0.00000  -0.00173  -0.00173   2.10818
    A8        2.06244  -0.00006   0.00000   0.00026   0.00026   2.06269
    A9        2.04762   0.00156   0.00000  -0.00210  -0.00210   2.04553
   A10        2.10748  -0.00012   0.00000   0.00266   0.00266   2.11014
   A11        2.10914  -0.00015   0.00000  -0.00135  -0.00135   2.10780
   A12        2.06826   0.00001   0.00000  -0.00158  -0.00158   2.06668
    D4        2.70231   0.00043   0.00000   0.01233   0.01233   2.71464
    D5        0.21034  -0.00035   0.00000   0.00182   0.00182   0.21216
    D6        2.99209  -0.00030   0.00000  -0.00180  -0.00180   2.99029
    D7       -3.08619  -0.00250   0.00000  -0.00906  -0.00906  -3.09525
    D8        2.94859   0.00048   0.00000   0.00375   0.00375   2.95235
    D9       -0.36983  -0.00194   0.00000   0.00074   0.00074  -0.36909
   D10        2.96174   0.00045   0.00000   0.01413   0.01413   2.97587
   D11        2.84814   0.00043   0.00000   0.00738   0.00738   2.85552
   D12        2.66361   0.00005   0.00000  -0.01009  -0.01009   2.65352
         Item               Value     Threshold  Converged?
 Maximum Force            0.005825     0.000450     NO 
 RMS     Force            0.001979     0.000300     NO 
 Maximum Displacement     0.014127     0.001800     NO 
 RMS     Displacement     0.004957     0.001200     NO 
 Predicted change in Energy=-1.363379D-05
 GradGradGradGradGradGradGradGradGradGradGradGradGradGradGradGradGradGrad

 ---------------------------------------------------------------------------------------------------
                            Z-MATRIX (ANGSTROMS AND DEGREES)
   CD    Cent   Atom    N1       Length/X        N2       Alpha/Y        N3        Beta/Z          J
 ---------------------------------------------------------------------------------------------------
      1      1  H 
      2      2  C        1   1.081339(     1)
      3      3  C        2   1.409915(     2)      1  116.539(    12)
      4      4  C        2   1.400144(     3)      1  119.687(    13)      3  155.537(    22)      0
      5      5  H        3   1.096794(     4)      2  115.648(    14)      1   12.156(    23)      0
      6      6  O        3   1.260230(     5)      2  128.182(    15)      5  171.331(    24)      0
      7      7  C        4   1.387599(     6)      2  120.790(    16)      1 -177.344(    25)      0
      8      8  H        4   1.085675(     7)      2  118.184(    17)      7  169.157(    26)      0
      9      9  C        7   1.392395(     8)      4  117.200(    18)      2  -21.147(    27)      0
     10     10  H        7   1.082866(     9)      4  120.902(    19)      9  170.505(    28)      0
     11     11  H        9   1.082704(    10)      7  120.768(    20)      4  163.609(    29)      0
     12     12  H        9   1.081229(    11)      7  118.412(    21)     11  152.035(    30)      0
 ---------------------------------------------------------------------------------------------------
                         Z-Matrix orientation:                         
 ---------------------------------------------------------------------
 Center     Atomic      Atomic             Coordinates (Angstroms)
 Number     Number       Type             X           Y           Z
 ---------------------------------------------------------------------
      1          1           0        0.000000    0.000000    0.000000
      2          6           0        0.000000    0.000000    1.081339
      3          6           0        1.261356    0.000000    1.711292
      4          6           0       -1.107178    0.503698    1.774772
      5          1           0        2.117937    0.208196    1.058698
      6          8           0        1.516515   -0.060249    2.943950
      7          6           0       -1.109194    0.565289    3.161003
      8          1           0       -1.883214    1.006470    1.205847
      9          6           0       -0.223405   -0.270085    3.836497
     10          1           0       -1.659160    1.338693    3.682520
     11          1           0        0.018953   -0.094860    4.877077
     12          1           0       -0.136823   -1.297927    3.512303
 ---------------------------------------------------------------------
                    Distance matrix (angstroms):
                    1          2          3          4          5
     1  H    0.000000
     2  C    1.081339   0.000000
     3  C    2.125921   1.409915   0.000000
     4  C    2.151597   1.400144   2.422332   0.000000
     5  H    2.376940   2.128266   1.096794   3.316843   0.000000
     6  O    3.312143   2.402659   1.260230   2.927247   1.996984
     7  C    3.397323   2.423812   2.835615   1.387599   3.868019
     8  H    2.452253   2.138920   3.340176   1.085675   4.082660
     9  C    3.852475   2.777365   2.606522   2.372868   3.664260
    10  H    4.255099   3.363191   3.769251   2.154392   4.735919
    11  H    4.878036   3.796971   3.402169   3.354211   4.367791
    12  H    3.746947   2.759153   2.623577   2.684484   3.656847
                    6          7          8          9         10
     6  O    0.000000
     7  C    2.707906   0.000000
     8  H    3.964474   2.148577   0.000000
     9  C    1.966721   1.392395   3.362274   0.000000
    10  H    3.547878   1.082866   2.508881   2.161775   0.000000
    11  H    2.445581   2.157179   4.278913   1.082704   2.509602
    12  H    2.142055   2.130843   3.698631   1.081229   3.049303
                   11         12
    11  H    0.000000
    12  H    1.825991   0.000000
 Symmetry turned off by external request.
 Stoichiometry    C5H6O
 Framework group  C1[X(C5H6O)]
 Deg. of freedom    30
 Full point group                 C1      NOp   1
 Rotational constants (GHZ):           5.5424329           4.6779007           2.7097306
 Standard basis: def2TZVP (5D, 7F)
 The following finite field(s) will be applied:
 An electric field of              0.0020  0.0010  0.0011
   222 basis functions,   354 primitive gaussians,   252 cartesian basis functions
    22 alpha electrons       22 beta electrons
       nuclear repulsion energy       217.9338754397 Hartrees.
 NAtoms=   12 NActive=   12 NUniq=   12 SFac= 1.00D+00 NAtFMM=   60 NAOKFM=F Big=F
 Integral buffers will be    131072 words long.
 Raffenetti 2 integral format.
 Two-electron integral symmetry is turned off.
 One-electron integrals computed using PRISM.
   1 Symmetry operations used in ECPInt.
 ECPInt:  NShTT=    4095 NPrTT=   12396 LenC2=    4075 LenP2D=   10363.
 LDataN:  DoStor=T MaxTD1= 6 Len=  172
 NBasis=   222 RedAO= T EigKep=  1.15D-04  NBF=   222
 NBsUse=   222 1.00D-06 EigRej= -1.00D+00 NBFU=   222
 The nuclear repulsion energy is now       218.1904626233 hartrees.
 Initial guess from the checkpoint file:  "checkpoint.chk"
 B after Tr=     0.003125    0.011400   -0.002018
         Rot=    0.999985   -0.003617    0.001172   -0.003899 Ang=  -0.62 deg.
 Keep R1 ints in memory in canonical form, NReq=319363861.
 Requested convergence on RMS density matrix=1.00D-08 within 128 cycles.
 Requested convergence on MAX density matrix=1.00D-06.
 Requested convergence on             energy=1.00D-06.
 No special actions if energy rises.
 SCF Done:  E(RB3LYP) =  -269.392762357     A.U. after   10 cycles
            NFock= 10  Conv=0.79D-08     -V/T= 2.0050
   1 Symmetry operations used in ECPInt.
 ECPInt:  NShTT=    4095 NPrTT=   12396 LenC2=    4075 LenP2D=   10363.
 LDataN:  DoStor=T MaxTD1= 7 Len=  274
 Calling FoFJK, ICntrl=      2127 FMM=F ISym2X=0 I1Cent= 0 IOpClX= 0 NMat=1 NMatS=1 NMatT=0.
 -------------------------------------------------------------------
 Center     Atomic                   Forces (Hartrees/Bohr)
 Number     Number              X              Y              Z
 -------------------------------------------------------------------
      1        1          -0.000001544   -0.000068277   -0.000000713
      2        6           0.000010857   -0.000175801   -0.000006348
      3        6           0.000009206    0.000276110   -0.000061954
      4        6          -0.000021078   -0.000009478    0.000011268
      5        1           0.000002016   -0.000000850   -0.000000846
      6        8          -0.000018419   -0.000020408    0.000063846
      7        6          -0.000006683    0.000011374   -0.000013777
      8        1          -0.000001532   -0.000000667    0.000000648
      9        6           0.000041997   -0.000006191    0.000008418
     10        1          -0.000008294   -0.000002831   -0.000001234
     11        1          -0.000001110    0.000001328    0.000000497
     12        1          -0.000005416   -0.000004309    0.000000196
 -------------------------------------------------------------------
 Cartesian Forces:  Max     0.000276110 RMS     0.000058632
 -----------------------------------------------------------------------------------------------
                       Internal Coordinate Forces (Hartree/Bohr or radian)
  Cent   Atom   N1       Length/X         N2         Alpha/Y        N3         Beta/Z          J
 -----------------------------------------------------------------------------------------------
      1  H 
      2  C        1   0.000001(     1)
      3  C        2  -0.000006(     2)      1   0.000086(    12)
      4  C        2   0.000001(     3)      1   0.000085(    13)      3   0.000070(    22)     0
      5  H        3   0.000002(     4)      2   0.000001(    14)      1   0.000028(    23)     0
      6  O        3   0.000060(     5)      2  -0.000075(    15)      5   0.000031(    24)     0
      7  C        4  -0.000006(     6)      2  -0.000065(    16)      1   0.000055(    25)     0
      8  H        4   0.000000(     7)      2   0.000003(    17)      7   0.000002(    26)     0
      9  C        7   0.000032(     8)      4  -0.000015(    18)      2   0.000046(    27)     0
     10  H        7   0.000002(     9)      4  -0.000005(    19)      9   0.000015(    28)     0
     11  H        9   0.000000(    10)      7  -0.000004(    20)      4  -0.000009(    29)     0
     12  H        9   0.000004(    11)      7  -0.000006(    21)     11  -0.000009(    30)     0
 -----------------------------------------------------------------------------------------------
 Internal  Forces:  Max     0.000085870 RMS     0.000037340

 GradGradGradGradGradGradGradGradGradGradGradGradGradGradGradGradGradGrad
 Berny optimization.
 Search for a saddle point.
 Step number   2 out of a maximum of   40
 All quantities printed in internal units (Hartrees-Bohrs-Radians)
 Swapping is turned off.
 Update second derivatives using D2CorN and points    1    2
 ITU=  0  0
     Eigenvalues ---   -0.87194   0.02259   0.02923   0.04468   0.04941
     Eigenvalues ---    0.05742   0.11184   0.11940   0.14229   0.15315
     Eigenvalues ---    0.17988   0.20263   0.22794   0.25834   0.29707
     Eigenvalues ---    0.32283   0.34018   0.34877   0.35324   0.35673
     Eigenvalues ---    0.36374   0.38692   0.41023   0.43854   0.49333
     Eigenvalues ---    0.52686   0.58317   0.70898   0.97967   1.93328
 Eigenvectors required to have negative eigenvalues:
                          A7        A4        A3        D12       R6
   1                    0.39205  -0.38381  -0.34638   0.29245  -0.27338
                          R9        A9        R3        D11       R7
   1                   -0.27058   0.26989   0.22208   0.21723   0.20846
 RFO step:  Lambda0=2.197830618D-08 Lambda=-1.14195243D-07.
 Linear search not attempted -- option 19 set.
 Variable       Old X    -DE/DX   Delta X   Delta X   Delta X     New X
                                 (Linear)    (Quad)   (Total)
    R2        2.04343   0.00000   0.00000  -0.00000  -0.00000   2.04343
    R3        2.66435  -0.00001   0.00000   0.00005   0.00005   2.66440
    R4        2.64589   0.00000   0.00000  -0.00005  -0.00005   2.64584
    R5        2.07264   0.00000   0.00000   0.00001   0.00001   2.07266
    R6        2.38149   0.00006   0.00000   0.00004   0.00004   2.38153
    R7        2.62218  -0.00001   0.00000   0.00006   0.00006   2.62224
    R8        2.05163   0.00000   0.00000   0.00000   0.00000   2.05163
    R9        2.63125   0.00003   0.00000  -0.00001  -0.00001   2.63123
   R10        2.04632   0.00000   0.00000   0.00001   0.00001   2.04633
   R11        2.04601   0.00000   0.00000   0.00001   0.00001   2.04602
   R12        2.04323   0.00000   0.00000  -0.00001  -0.00001   2.04322
    A3        2.03398   0.00009   0.00000   0.00006   0.00006   2.03405
    A4        2.08893   0.00009   0.00000   0.00022   0.00022   2.08915
    A5        2.01845   0.00000   0.00000  -0.00000  -0.00000   2.01844
    A6        2.23720  -0.00008   0.00000  -0.00003  -0.00003   2.23717
    A7        2.10818  -0.00006   0.00000   0.00000   0.00000   2.10818
    A8        2.06269   0.00000   0.00000   0.00001   0.00001   2.06271
    A9        2.04553  -0.00002   0.00000   0.00011   0.00011   2.04563
   A10        2.11014  -0.00001   0.00000  -0.00006  -0.00006   2.11008
   A11        2.10780  -0.00000   0.00000  -0.00002  -0.00002   2.10778
   A12        2.06668  -0.00001   0.00000   0.00002   0.00002   2.06670
    D4        2.71464   0.00007   0.00000   0.00130   0.00130   2.71594
    D5        0.21216   0.00003   0.00000   0.00093   0.00093   0.21308
    D6        2.99029   0.00003   0.00000   0.00005   0.00005   2.99035
    D7       -3.09525   0.00006   0.00000  -0.00066  -0.00066  -3.09590
    D8        2.95235   0.00000   0.00000  -0.00002  -0.00002   2.95233
    D9       -0.36909   0.00005   0.00000  -0.00043  -0.00043  -0.36953
   D10        2.97587   0.00001   0.00000   0.00028   0.00028   2.97615
   D11        2.85552  -0.00001   0.00000   0.00005   0.00005   2.85557
   D12        2.65352  -0.00001   0.00000   0.00006   0.00006   2.65358
         Item               Value     Threshold  Converged?
 Maximum Force            0.000086     0.000450     YES
 RMS     Force            0.000037     0.000300     YES
 Maximum Displacement     0.001301     0.001800     YES
 RMS     Displacement     0.000333     0.001200     YES
 Predicted change in Energy=-4.610847D-08
 Optimization completed.
    -- Stationary point found.
                       ----------------------------
                       !   Optimized Parameters   !
                       ! (Angstroms and Degrees)  !
 ----------------------                            ----------------------
 !      Name          Value   Derivative information (Atomic Units)     !
 ------------------------------------------------------------------------
 !       R2          1.0813   -DE/DX =    0.0                           !
 !       R3          1.4099   -DE/DX =    0.0                           !
 !       R4          1.4001   -DE/DX =    0.0                           !
 !       R5          1.0968   -DE/DX =    0.0                           !
 !       R6          1.2602   -DE/DX =    0.0001                        !
 !       R7          1.3876   -DE/DX =    0.0                           !
 !       R8          1.0857   -DE/DX =    0.0                           !
 !       R9          1.3924   -DE/DX =    0.0                           !
 !       R10         1.0829   -DE/DX =    0.0                           !
 !       R11         1.0827   -DE/DX =    0.0                           !
 !       R12         1.0812   -DE/DX =    0.0                           !
 !       A3        116.5387   -DE/DX =    0.0001                        !
 !       A4        119.6868   -DE/DX =    0.0001                        !
 !       A5        115.6484   -DE/DX =    0.0                           !
 !       A6        128.1821   -DE/DX =   -0.0001                        !
 !       A7        120.7896   -DE/DX =   -0.0001                        !
 !       A8        118.1837   -DE/DX =    0.0                           !
 !       A9        117.2      -DE/DX =    0.0                           !
 !       A10       120.9021   -DE/DX =    0.0                           !
 !       A11       120.7679   -DE/DX =    0.0                           !
 !       A12       118.4122   -DE/DX =    0.0                           !
 !       D4        155.5374   -DE/DX =    0.0001                        !
 !       D5         12.1558   -DE/DX =    0.0                           !
 !       D6        171.3311   -DE/DX =    0.0                           !
 !       D7       -177.3445   -DE/DX =    0.0001                        !
 !       D8        169.157    -DE/DX =    0.0                           !
 !       D9        -21.1475   -DE/DX =    0.0                           !
 !       D10       170.5049   -DE/DX =    0.0                           !
 !       D11       163.6094   -DE/DX =    0.0                           !
 !       D12       152.0353   -DE/DX =    0.0                           !
 ------------------------------------------------------------------------
 GradGradGradGradGradGradGradGradGradGradGradGradGradGradGradGradGradGrad

 ---------------------------------------------------------------------------------------------------
                            Z-MATRIX (ANGSTROMS AND DEGREES)
   CD    Cent   Atom    N1       Length/X        N2       Alpha/Y        N3        Beta/Z          J
 ---------------------------------------------------------------------------------------------------
      1      1  H 
      2      2  C        1   1.081339(     1)
      3      3  C        2   1.409915(     2)      1  116.539(    12)
      4      4  C        2   1.400144(     3)      1  119.687(    13)      3  155.537(    22)      0
      5      5  H        3   1.096794(     4)      2  115.648(    14)      1   12.156(    23)      0
      6      6  O        3   1.260230(     5)      2  128.182(    15)      5  171.331(    24)      0
      7      7  C        4   1.387599(     6)      2  120.790(    16)      1 -177.344(    25)      0
      8      8  H        4   1.085675(     7)      2  118.184(    17)      7  169.157(    26)      0
      9      9  C        7   1.392395(     8)      4  117.200(    18)      2  -21.147(    27)      0
     10     10  H        7   1.082866(     9)      4  120.902(    19)      9  170.505(    28)      0
     11     11  H        9   1.082704(    10)      7  120.768(    20)      4  163.609(    29)      0
     12     12  H        9   1.081229(    11)      7  118.412(    21)     11  152.035(    30)      0
 ---------------------------------------------------------------------------------------------------
                         Z-Matrix orientation:                         
 ---------------------------------------------------------------------
 Center     Atomic      Atomic             Coordinates (Angstroms)
 Number     Number       Type             X           Y           Z
 ---------------------------------------------------------------------
      1          1           0        0.000000    0.000000    0.000000
      2          6           0        0.000000    0.000000    1.081339
      3          6           0        1.261356    0.000000    1.711292
      4          6           0       -1.107178    0.503698    1.774772
      5          1           0        2.117937    0.208196    1.058698
      6          8           0        1.516515   -0.060249    2.943950
      7          6           0       -1.109194    0.565289    3.161003
      8          1           0       -1.883214    1.006470    1.205847
      9          6           0       -0.223405   -0.270085    3.836497
     10          1           0       -1.659160    1.338693    3.682520
     11          1           0        0.018953   -0.094860    4.877077
     12          1           0       -0.136823   -1.297927    3.512303
 ---------------------------------------------------------------------
                    Distance matrix (angstroms):
                    1          2          3          4          5
     1  H    0.000000
     2  C    1.081339   0.000000
     3  C    2.125921   1.409915   0.000000
     4  C    2.151597   1.400144   2.422332   0.000000
     5  H    2.376940   2.128266   1.096794   3.316843   0.000000
     6  O    3.312143   2.402659   1.260230   2.927247   1.996984
     7  C    3.397323   2.423812   2.835615   1.387599   3.868019
     8  H    2.452253   2.138920   3.340176   1.085675   4.082660
     9  C    3.852475   2.777365   2.606522   2.372868   3.664260
    10  H    4.255099   3.363191   3.769251   2.154392   4.735919
    11  H    4.878036   3.796971   3.402169   3.354211   4.367791
    12  H    3.746947   2.759153   2.623577   2.684484   3.656847
                    6          7          8          9         10
     6  O    0.000000
     7  C    2.707906   0.000000
     8  H    3.964474   2.148577   0.000000
     9  C    1.966721   1.392395   3.362274   0.000000
    10  H    3.547878   1.082866   2.508881   2.161775   0.000000
    11  H    2.445581   2.157179   4.278913   1.082704   2.509602
    12  H    2.142055   2.130843   3.698631   1.081229   3.049303
                   11         12
    11  H    0.000000
    12  H    1.825991   0.000000
 Symmetry turned off by external request.
 Stoichiometry    C5H6O
 Framework group  C1[X(C5H6O)]
 Deg. of freedom    30
 Full point group                 C1      NOp   1
 Rotational constants (GHZ):           5.5424329           4.6779007           2.7097306
 1\1\GINC-BHC0105\FTS\RB3LYP\def2TZVP\C5H6O1\DHANAWAY\10-Jun-2022\1\\# 
 Opt=(TS, CalcFC, noeigentest, Z-matrix, MaxStep=10) Field=read NoSymm 
 B3LYP/Def2TZVP freq=noraman pop=none\\ts_zmat_initalOpt\\0,1\H\C,1,R2\
 C,2,R3,1,A3\C,2,R4,1,A4,3,D4,0\H,3,R5,2,A5,1,D5,0\O,3,R6,2,A6,5,D6,0\C
 ,4,R7,2,A7,1,D7,0\H,4,R8,2,A8,7,D8,0\C,7,R9,4,A9,2,D9,0\H,7,R10,4,A10,
 9,D10,0\H,9,R11,7,A11,4,D11,0\H,9,R12,7,A12,11,D12,0\\R2=1.08133858\R3
 =1.40991489\R4=1.40014433\R5=1.09679392\R6=1.26023036\R7=1.3875994\R8=
 1.08567487\R9=1.39239521\R10=1.08286561\R11=1.08270365\R12=1.08122927\
 A3=116.53873741\A4=119.68682049\A5=115.64841367\A6=128.18214383\A7=120
 .78960617\A8=118.18367396\A9=117.20002217\A10=120.90212058\A11=120.767
 85127\A12=118.41223862\D4=155.53739197\D5=12.15576224\D6=171.33112602\
 D7=-177.34447805\D8=169.15695871\D9=-21.14745931\D10=170.50488149\D11=
 163.60939869\D12=152.03530586\\Version=ES64L-G16RevA.03\HF=-269.392762
 4\RMSD=7.890e-09\RMSF=5.863e-05\Dipole=-0.4824253,0.0897559,-0.2786973
 \PG=C01 [X(C5H6O1)]\\@


 THE ONLY EXISTING THINGS ARE ATOMS AND EMPTY SPACE;
 ALL ELSE IS MERE OPINION. -- DEMOCRITUS OF ABDERA D. 370 B.C.
 EXPERIMENTS ARE THE ONLY MEANS OF KNOWLEDGE AT OUR DISPOSAL
 THE REST IS POETRY, IMAGINATION. -- MAX PLANCK
 Job cpu time:       0 days  0 hours 36 minutes 27.3 seconds.
 Elapsed time:       0 days  0 hours  3 minutes 16.4 seconds.
 File lengths (MBytes):  RWF=     54 Int=      0 D2E=      0 Chk=     32 Scr=      1
 Normal termination of Gaussian 16 at Fri Jun 10 22:24:03 2022.
 Link1:  Proceeding to internal job step number  2.
 --------------------------------------------------------------------
 #N Geom=AllCheck Guess=TCheck SCRF=Check GenChk RB3LYP/def2TZVP Freq
 --------------------------------------------------------------------
 1/5=1,8=10,10=4,11=1,29=7,30=1,38=1,40=1/1,3;
 2/12=2,15=1,40=1/2;
 3/5=44,7=101,11=2,14=-4,25=1,30=1,70=2,71=2,74=-5,116=1,140=1/1,2,3;
 4/5=101/1;
 5/5=2,38=6,98=1/2;
 8/6=4,10=90,11=11/1;
 11/6=1,8=1,9=11,15=111,16=1,31=1/1,2,10;
 10/6=1,31=1/2;
 7/8=1,10=1,25=1,30=1/1,2,3,16;
 1/5=1,8=10,10=4,11=1,30=1/3;
 99//99;
 Structure from the checkpoint file:  "checkpoint.chk"
 -----------------
 ts_zmat_initalOpt
 -----------------
 Charge =  0 Multiplicity = 1
 Z-Matrix found in chk file.
 H
 C,1,R2
 C,2,R3,1,A3
 C,2,R4,1,A4,3,D4,0
 H,3,R5,2,A5,1,D5,0
 O,3,R6,2,A6,5,D6,0
 C,4,R7,2,A7,1,D7,0
 H,4,R8,2,A8,7,D8,0
 C,7,R9,4,A9,2,D9,0
 H,7,R10,4,A10,9,D10,0
 H,9,R11,7,A11,4,D11,0
 H,9,R12,7,A12,11,D12,0
      Variables:
 R2=1.08133858
 R3=1.40991489
 R4=1.40014433
 R5=1.09679392
 R6=1.26023036
 R7=1.3875994
 R8=1.08567487
 R9=1.39239521
 R10=1.08286561
 R11=1.08270365
 R12=1.08122927
 A3=116.53873741
 A4=119.68682049
 A5=115.64841367
 A6=128.18214383
 A7=120.78960617
 A8=118.18367396
 A9=117.20002217
 A10=120.90212058
 A11=120.76785127
 A12=118.41223862
 D4=155.53739197
 D5=12.15576224
 D6=171.33112602
 D7=-177.34447805
 D8=169.15695871
 D9=-21.14745931
 D10=170.50488149
 D11=163.60939869
 D12=152.03530586
 Recover connectivity data from disk.

 GradGradGradGradGradGradGradGradGradGradGradGradGradGradGradGradGradGrad
 Berny optimization.
 Initialization pass.
                       ----------------------------
                       !    Initial Parameters    !
                       ! (Angstroms and Degrees)  !
 ----------------------                            ----------------------
 !      Name          Value   Derivative information (Atomic Units)     !
 ------------------------------------------------------------------------
 !       R2          1.0813   calculate D2E/DX2 analytically            !
 !       R3          1.4099   calculate D2E/DX2 analytically            !
 !       R4          1.4001   calculate D2E/DX2 analytically            !
 !       R5          1.0968   calculate D2E/DX2 analytically            !
 !       R6          1.2602   calculate D2E/DX2 analytically            !
 !       R7          1.3876   calculate D2E/DX2 analytically            !
 !       R8          1.0857   calculate D2E/DX2 analytically            !
 !       R9          1.3924   calculate D2E/DX2 analytically            !
 !       R10         1.0829   calculate D2E/DX2 analytically            !
 !       R11         1.0827   calculate D2E/DX2 analytically            !
 !       R12         1.0812   calculate D2E/DX2 analytically            !
 !       A3        116.5387   calculate D2E/DX2 analytically            !
 !       A4        119.6868   calculate D2E/DX2 analytically            !
 !       A5        115.6484   calculate D2E/DX2 analytically            !
 !       A6        128.1821   calculate D2E/DX2 analytically            !
 !       A7        120.7896   calculate D2E/DX2 analytically            !
 !       A8        118.1837   calculate D2E/DX2 analytically            !
 !       A9        117.2      calculate D2E/DX2 analytically            !
 !       A10       120.9021   calculate D2E/DX2 analytically            !
 !       A11       120.7679   calculate D2E/DX2 analytically            !
 !       A12       118.4122   calculate D2E/DX2 analytically            !
 !       D4        155.5374   calculate D2E/DX2 analytically            !
 !       D5         12.1558   calculate D2E/DX2 analytically            !
 !       D6        171.3311   calculate D2E/DX2 analytically            !
 !       D7       -177.3445   calculate D2E/DX2 analytically            !
 !       D8        169.157    calculate D2E/DX2 analytically            !
 !       D9        -21.1475   calculate D2E/DX2 analytically            !
 !       D10       170.5049   calculate D2E/DX2 analytically            !
 !       D11       163.6094   calculate D2E/DX2 analytically            !
 !       D12       152.0353   calculate D2E/DX2 analytically            !
 ------------------------------------------------------------------------
 Trust Radius=1.00D-01 FncErr=1.00D-07 GrdErr=1.00D-07 EigMax=2.50D+02 EigMin=1.00D-04
 Number of steps in this run=      2 maximum allowed number of steps=      2.
 Search for a saddle point of order  1.
 GradGradGradGradGradGradGradGradGradGradGradGradGradGradGradGradGradGrad

                          Input orientation:                          
 ---------------------------------------------------------------------
 Center     Atomic      Atomic             Coordinates (Angstroms)
 Number     Number       Type             X           Y           Z
 ---------------------------------------------------------------------
      1          1           0        0.000000    0.000000    0.000000
      2          6           0        0.000000    0.000000    1.081339
      3          6           0        1.261356    0.000000    1.711292
      4          6           0       -1.107178    0.503698    1.774772
      5          1           0        2.117937    0.208196    1.058698
      6          8           0        1.516515   -0.060249    2.943950
      7          6           0       -1.109194    0.565289    3.161003
      8          1           0       -1.883214    1.006470    1.205847
      9          6           0       -0.223405   -0.270085    3.836497
     10          1           0       -1.659160    1.338693    3.682520
     11          1           0        0.018953   -0.094860    4.877077
     12          1           0       -0.136823   -1.297927    3.512303
 ---------------------------------------------------------------------
                    Distance matrix (angstroms):
                    1          2          3          4          5
     1  H    0.000000
     2  C    1.081339   0.000000
     3  C    2.125921   1.409915   0.000000
     4  C    2.151597   1.400144   2.422332   0.000000
     5  H    2.376940   2.128266   1.096794   3.316843   0.000000
     6  O    3.312143   2.402659   1.260230   2.927247   1.996984
     7  C    3.397323   2.423812   2.835615   1.387599   3.868019
     8  H    2.452253   2.138920   3.340176   1.085675   4.082660
     9  C    3.852475   2.777365   2.606522   2.372868   3.664260
    10  H    4.255099   3.363191   3.769251   2.154392   4.735919
    11  H    4.878036   3.796971   3.402169   3.354211   4.367791
    12  H    3.746947   2.759153   2.623577   2.684484   3.656847
                    6          7          8          9         10
     6  O    0.000000
     7  C    2.707906   0.000000
     8  H    3.964474   2.148577   0.000000
     9  C    1.966721   1.392395   3.362274   0.000000
    10  H    3.547878   1.082866   2.508881   2.161775   0.000000
    11  H    2.445581   2.157179   4.278913   1.082704   2.509602
    12  H    2.142055   2.130843   3.698631   1.081229   3.049303
                   11         12
    11  H    0.000000
    12  H    1.825991   0.000000
 Symmetry turned off by external request.
 Stoichiometry    C5H6O
 Framework group  C1[X(C5H6O)]
 Deg. of freedom    30
 Full point group                 C1      NOp   1
 Rotational constants (GHZ):           5.5424329           4.6779007           2.7097306
 Standard basis: def2TZVP (5D, 7F)
 The following finite field(s) will be applied:
 An electric field of              0.0020  0.0010  0.0011
   222 basis functions,   354 primitive gaussians,   252 cartesian basis functions
    22 alpha electrons       22 beta electrons
       nuclear repulsion energy       217.9338754397 Hartrees.
 NAtoms=   12 NActive=   12 NUniq=   12 SFac= 1.00D+00 NAtFMM=   60 NAOKFM=F Big=F
 Integral buffers will be    131072 words long.
 Raffenetti 2 integral format.
 Two-electron integral symmetry is turned off.
 One-electron integrals computed using PRISM.
   1 Symmetry operations used in ECPInt.
 ECPInt:  NShTT=    4095 NPrTT=   12396 LenC2=    4075 LenP2D=   10363.
 LDataN:  DoStor=T MaxTD1= 6 Len=  172
 NBasis=   222 RedAO= T EigKep=  1.15D-04  NBF=   222
 NBsUse=   222 1.00D-06 EigRej= -1.00D+00 NBFU=   222
 The nuclear repulsion energy is now       218.1904626233 hartrees.
 Initial guess from the checkpoint file:  "checkpoint.chk"
 B after Tr=     0.000000    0.000000    0.000000
         Rot=    1.000000    0.000000    0.000000    0.000000 Ang=   0.00 deg.
 Keep R1 ints in memory in canonical form, NReq=319363861.
 Requested convergence on RMS density matrix=1.00D-08 within 128 cycles.
 Requested convergence on MAX density matrix=1.00D-06.
 Requested convergence on             energy=1.00D-06.
 No special actions if energy rises.
 SCF Done:  E(RB3LYP) =  -269.392762357     A.U. after    1 cycles
            NFock=  1  Conv=0.58D-08     -V/T= 2.0050
 DoSCS=F DFT=T ScalE2(SS,OS)=  1.000000  1.000000
 Range of M.O.s used for correlation:     1   222
 NBasis=   222 NAE=    22 NBE=    22 NFC=     0 NFV=     0
 NROrb=    222 NOA=    22 NOB=    22 NVA=   200 NVB=   200

 **** Warning!!: The largest alpha MO coefficient is  0.19476436D+02

   1 Symmetry operations used in ECPInt.
 ECPInt:  NShTT=    4095 NPrTT=   12396 LenC2=    4075 LenP2D=   10363.
 LDataN:  DoStor=T MaxTD1= 7 Len=  274
 Symmetrizing basis deriv contribution to polar:
 IMax=3 JMax=2 DiffMx= 0.00D+00
 G2DrvN: will do    13 centers at a time, making    1 passes.
 Calling FoFCou, ICntrl=  3107 FMM=F I1Cent=   0 AccDes= 0.00D+00.
 End of G2Drv F.D. properties file   721 does not exist.
 End of G2Drv F.D. properties file   722 does not exist.
 End of G2Drv F.D. properties file   788 does not exist.
          IDoAtm=111111111111
          Differentiating once with respect to electric field.
                with respect to dipole field.
          Differentiating once with respect to nuclear coordinates.
 Keep R1 ints in memory in canonical form, NReq=319333990.
          There are    39 degrees of freedom in the 1st order CPHF.  IDoFFX=6 NUNeed=     3.
     36 vectors produced by pass  0 Test12= 1.13D-14 2.56D-09 XBig12= 1.13D+02 6.56D+00.
 AX will form    36 AO Fock derivatives at one time.
     36 vectors produced by pass  1 Test12= 1.13D-14 2.56D-09 XBig12= 3.70D+01 9.46D-01.
     36 vectors produced by pass  2 Test12= 1.13D-14 2.56D-09 XBig12= 3.13D-01 6.00D-02.
     36 vectors produced by pass  3 Test12= 1.13D-14 2.56D-09 XBig12= 1.40D-03 4.67D-03.
     36 vectors produced by pass  4 Test12= 1.13D-14 2.56D-09 XBig12= 3.32D-06 2.65D-04.
     31 vectors produced by pass  5 Test12= 1.13D-14 2.56D-09 XBig12= 4.80D-09 1.01D-05.
      7 vectors produced by pass  6 Test12= 1.13D-14 2.56D-09 XBig12= 7.42D-12 3.24D-07.
      3 vectors produced by pass  7 Test12= 1.13D-14 2.56D-09 XBig12= 1.01D-14 1.37D-08.
 InvSVY:  IOpt=1 It=  1 EMax= 1.78D-15
 Solved reduced A of dimension   221 with    39 vectors.
 Isotropic polarizability for W=    0.000000       65.24 Bohr**3.
 End of Minotr F.D. properties file   721 does not exist.
 End of Minotr F.D. properties file   722 does not exist.
 End of Minotr F.D. properties file   788 does not exist.
   1 Symmetry operations used in ECPInt.
 ECPInt:  NShTT=    4095 NPrTT=   12396 LenC2=    4075 LenP2D=   10363.
 LDataN:  DoStor=T MaxTD1= 8 Len=  415
 Calling FoFJK, ICntrl=    100127 FMM=F ISym2X=0 I1Cent= 0 IOpClX= 0 NMat=1 NMatS=1 NMatT=0.
 Full mass-weighted force constant matrix:
 Low frequencies --- -514.5090   -5.0753   -0.0003    0.0007    0.0008    5.4551
 Low frequencies ---    8.2952  242.6581  376.2365
 ******    1 imaginary frequencies (negative Signs) ****** 
 Diagonal vibrational polarizability:
        7.8237607       6.3687784       8.7363067
 Harmonic frequencies (cm**-1), IR intensities (KM/Mole), Raman scattering
 activities (A**4/AMU), depolarization ratios for plane and unpolarized
 incident light, reduced masses (AMU), force constants (mDyne/A),
 and normal coordinates:
                      1                      2                      3
                      A                      A                      A
 Frequencies --   -514.5082               242.6567               376.2361
 Red. masses --      5.6906                 2.8951                 2.5476
 Frc consts  --      0.8876                 0.1004                 0.2125
 IR Inten    --     44.6622                 4.6373                 9.3537
  Atom  AN      X      Y      Z        X      Y      Z        X      Y      Z
     1   1     0.04   0.02  -0.03    -0.08  -0.37   0.08    -0.01  -0.10  -0.03
     2   6     0.06  -0.01  -0.03    -0.06  -0.16   0.08    -0.02  -0.11  -0.03
     3   6    -0.11  -0.05  -0.02    -0.02  -0.06   0.04    -0.04   0.19   0.03
     4   6    -0.01   0.05   0.05     0.03   0.11   0.02     0.01  -0.10  -0.01
     5   1     0.09  -0.23   0.25    -0.06  -0.20  -0.06    -0.08   0.68   0.13
     6   8    -0.31   0.02   0.18     0.04   0.20   0.03    -0.11  -0.07   0.02
     7   6     0.01  -0.02  -0.07     0.04   0.07   0.02     0.19   0.12  -0.01
     8   1     0.10   0.21   0.05     0.11   0.22  -0.01    -0.04  -0.17  -0.01
     9   6     0.43   0.03  -0.20    -0.05  -0.15  -0.16    -0.02  -0.06  -0.00
    10   1    -0.20  -0.28   0.09     0.15   0.07   0.13     0.41   0.31  -0.06
    11   1     0.46   0.09  -0.21    -0.05  -0.49  -0.11     0.01  -0.14   0.00
    12   1    -0.15  -0.14   0.11    -0.04  -0.04  -0.53    -0.21  -0.07  -0.04
                      4                      5                      6
                      A                      A                      A
 Frequencies --    420.5289               571.7005               589.3182
 Red. masses --      4.3634                 2.6743                 3.7681
 Frc consts  --      0.4546                 0.5150                 0.7710
 IR Inten    --      4.4116                23.8460                 2.4919
  Atom  AN      X      Y      Z        X      Y      Z        X      Y      Z
     1   1    -0.02   0.09  -0.17     0.00   0.02  -0.07    -0.14  -0.00   0.04
     2   6     0.03  -0.07  -0.17     0.03   0.22  -0.07     0.14  -0.04   0.04
     3   6    -0.03  -0.06  -0.10     0.01  -0.13  -0.00     0.17   0.01  -0.16
     4   6     0.23   0.09   0.02    -0.07  -0.14  -0.01     0.13  -0.10   0.17
     5   1     0.03  -0.07  -0.03     0.12  -0.57   0.01     0.26   0.03  -0.04
     6   8    -0.19   0.16  -0.06    -0.06   0.09   0.03    -0.14  -0.02  -0.10
     7   6     0.09  -0.11   0.03     0.17   0.08   0.01    -0.16   0.14   0.15
     8   1     0.35   0.43   0.14    -0.36  -0.51   0.06     0.10  -0.33   0.01
     9   6    -0.09  -0.10   0.26    -0.03  -0.06   0.03    -0.07   0.05  -0.05
    10   1     0.11  -0.05  -0.04     0.17   0.09  -0.00    -0.44  -0.03   0.09
    11   1    -0.18   0.11   0.25    -0.10  -0.22   0.07     0.12  -0.32  -0.03
    12   1     0.07  -0.14   0.44    -0.05  -0.01  -0.12    -0.26   0.14  -0.38
                      7                      8                      9
                      A                      A                      A
 Frequencies --    719.1745               788.8037               883.9864
 Red. masses --      1.2481                 1.3779                 2.1166
 Frc consts  --      0.3803                 0.5051                 0.9745
 IR Inten    --     50.2135                29.0183                24.7978
  Atom  AN      X      Y      Z        X      Y      Z        X      Y      Z
     1   1     0.05   0.24   0.02     0.16   0.82  -0.07     0.07   0.57   0.19
     2   6     0.02   0.02   0.02    -0.02  -0.05  -0.07     0.01  -0.05   0.19
     3   6     0.04  -0.03  -0.00    -0.07  -0.06   0.03     0.10  -0.03  -0.06
     4   6    -0.03  -0.06   0.01     0.02  -0.08   0.02    -0.10   0.01   0.00
     5   1     0.03  -0.03  -0.01    -0.14   0.15   0.02     0.05   0.03  -0.11
     6   8    -0.01   0.03  -0.00     0.04   0.02   0.02    -0.04   0.03  -0.05
     7   6    -0.08  -0.05   0.03     0.02   0.04   0.01     0.11   0.05  -0.08
     8   1     0.16   0.20  -0.01     0.15   0.16   0.06    -0.00   0.03  -0.10
     9   6    -0.02  -0.01  -0.04     0.01   0.05  -0.01    -0.05  -0.08  -0.03
    10   1     0.59   0.53  -0.12    -0.19  -0.05  -0.07    -0.15  -0.30   0.16
    11   1     0.35   0.17  -0.16    -0.07  -0.22   0.05    -0.07   0.38  -0.10
    12   1    -0.14  -0.06   0.06     0.03   0.12  -0.24    -0.10  -0.22   0.39
                     10                     11                     12
                      A                      A                      A
 Frequencies --    953.7550               964.2671               979.9469
 Red. masses --      1.5530                 1.4308                 1.4612
 Frc consts  --      0.8323                 0.7839                 0.8267
 IR Inten    --     47.1312                 4.5864                 3.1910
  Atom  AN      X      Y      Z        X      Y      Z        X      Y      Z
     1   1    -0.02  -0.26  -0.08     0.00  -0.13  -0.07    -0.10  -0.35   0.05
     2   6     0.03   0.01  -0.08    -0.00   0.04  -0.07     0.03   0.09   0.05
     3   6    -0.02   0.08  -0.02    -0.01  -0.14   0.02     0.04  -0.11  -0.03
     4   6    -0.08  -0.10   0.03     0.02   0.04  -0.01    -0.07  -0.07   0.02
     5   1     0.08  -0.28  -0.00    -0.16   0.64   0.05    -0.09   0.53  -0.01
     6   8     0.07  -0.00   0.03     0.04   0.04   0.02    -0.03   0.01  -0.01
     7   6     0.02   0.08  -0.01    -0.02   0.04   0.03     0.02  -0.01  -0.02
     8   1     0.26   0.57   0.16    -0.13  -0.24  -0.05     0.26   0.47   0.06
     9   6    -0.05  -0.05   0.03    -0.03  -0.05  -0.00     0.02   0.04  -0.02
    10   1    -0.32  -0.15  -0.03    -0.18  -0.12   0.10     0.04   0.01  -0.04
    11   1     0.31   0.07  -0.08     0.49   0.19  -0.17    -0.44  -0.10   0.12
    12   1    -0.34  -0.11   0.12    -0.20  -0.11   0.13     0.13   0.07  -0.06
                     13                     14                     15
                      A                      A                      A
 Frequencies --   1017.0005              1042.2743              1099.4214
 Red. masses --      3.5947                 1.7667                 1.3315
 Frc consts  --      2.1905                 1.1308                 0.9482
 IR Inten    --     16.8206                 4.6199                18.7177
  Atom  AN      X      Y      Z        X      Y      Z        X      Y      Z
     1   1    -0.09  -0.15   0.18     0.34  -0.07   0.13     0.00  -0.05  -0.01
     2   6     0.03   0.13   0.15     0.04   0.03   0.13    -0.02   0.01  -0.01
     3   6    -0.26   0.02   0.05    -0.05  -0.01   0.01     0.03   0.01   0.07
     4   6     0.26  -0.11   0.12    -0.03   0.01  -0.11     0.01  -0.03  -0.01
     5   1    -0.43  -0.15  -0.23    -0.15   0.00  -0.13     0.05  -0.05   0.06
     6   8     0.02   0.00  -0.06    -0.05   0.00  -0.07    -0.06  -0.02  -0.02
     7   6     0.04  -0.02  -0.09     0.01  -0.01  -0.03     0.07  -0.01   0.03
     8   1     0.30  -0.21  -0.00     0.11   0.08  -0.25     0.07   0.16   0.07
     9   6    -0.06  -0.00  -0.12     0.03  -0.01   0.15    -0.09   0.03  -0.04
    10   1    -0.12   0.01  -0.33    -0.16   0.02  -0.25    -0.01  -0.19   0.21
    11   1    -0.06   0.34  -0.18     0.56  -0.42   0.09     0.36   0.30  -0.20
    12   1    -0.08  -0.09   0.14    -0.04   0.12  -0.29     0.69   0.19  -0.27
                     16                     17                     18
                      A                      A                      A
 Frequencies --   1113.5292              1182.3886              1248.3476
 Red. masses --      1.5545                 1.2172                 1.3670
 Frc consts  --      1.1357                 1.0026                 1.2552
 IR Inten    --      1.0537                13.1337                 2.5859
  Atom  AN      X      Y      Z        X      Y      Z        X      Y      Z
     1   1     0.47  -0.09  -0.03     0.66  -0.12  -0.01     0.17  -0.02  -0.01
     2   6     0.09  -0.00  -0.03     0.06  -0.03  -0.00     0.02  -0.01  -0.01
     3   6    -0.09   0.01   0.01    -0.01  -0.01   0.02    -0.01  -0.01  -0.03
     4   6    -0.03  -0.03  -0.05    -0.02   0.03   0.04    -0.03   0.02   0.04
     5   1    -0.13  -0.06  -0.06    -0.07   0.03  -0.05     0.00   0.04   0.00
     6   8     0.01  -0.00  -0.04    -0.01   0.00  -0.05     0.00  -0.01   0.01
     7   6    -0.06   0.08   0.11     0.02  -0.05   0.00    -0.06   0.10  -0.01
     8   1     0.22  -0.03  -0.41    -0.37   0.08   0.57    -0.15  -0.02   0.17
     9   6     0.03  -0.04  -0.02    -0.03   0.05  -0.04     0.03  -0.12   0.00
    10   1     0.17  -0.05   0.55     0.04  -0.03  -0.01    -0.23   0.34  -0.53
    11   1    -0.25   0.07   0.04    -0.07   0.07  -0.04    -0.04   0.04   0.00
    12   1     0.17  -0.09   0.20    -0.21   0.04  -0.06     0.63  -0.11   0.17
                     19                     20                     21
                      A                      A                      A
 Frequencies --   1348.9664              1403.0823              1441.3149
 Red. masses --      1.3692                 1.8637                 1.8010
 Frc consts  --      1.4680                 2.1617                 2.2044
 IR Inten    --     42.7769                59.7295                62.1426
  Atom  AN      X      Y      Z        X      Y      Z        X      Y      Z
     1   1     0.11  -0.04   0.02     0.35  -0.09  -0.05    -0.22   0.04   0.03
     2   6    -0.06   0.01   0.01    -0.15   0.02  -0.03    -0.05   0.02   0.02
     3   6    -0.02  -0.02   0.08     0.12   0.02   0.05     0.07   0.00   0.14
     4   6     0.00  -0.00   0.00     0.01  -0.00  -0.03     0.08  -0.06  -0.13
     5   1     0.50   0.02   0.78    -0.20  -0.07  -0.44    -0.13  -0.05  -0.16
     6   8     0.01   0.02  -0.12    -0.04  -0.00   0.02    -0.03   0.01  -0.07
     7   6     0.02  -0.01   0.04     0.06  -0.04   0.15    -0.05   0.06   0.02
     8   1     0.10   0.01  -0.12     0.19  -0.01  -0.30    -0.18   0.19   0.44
     9   6     0.02  -0.00  -0.02     0.03  -0.00  -0.05     0.03   0.02  -0.05
    10   1    -0.14   0.03  -0.18    -0.32   0.07  -0.41    -0.05  -0.03   0.17
    11   1    -0.08   0.03  -0.01    -0.18   0.24  -0.05     0.07  -0.44   0.04
    12   1    -0.12  -0.05   0.07    -0.22  -0.04  -0.01     0.05  -0.19   0.54
                     22                     23                     24
                      A                      A                      A
 Frequencies --   1496.9160              1555.3340              1617.0396
 Red. masses --      1.7331                 2.2765                 5.6360
 Frc consts  --      2.2881                 3.2446                 8.6829
 IR Inten    --      5.2994                23.3821               119.7420
  Atom  AN      X      Y      Z        X      Y      Z        X      Y      Z
     1   1     0.57  -0.11   0.00    -0.28   0.03  -0.06     0.02  -0.04  -0.16
     2   6    -0.16   0.03   0.00     0.15  -0.04  -0.05    -0.02  -0.00  -0.15
     3   6     0.03   0.01  -0.09    -0.03  -0.00   0.06     0.16  -0.01   0.34
     4   6     0.04  -0.02   0.09    -0.12   0.08   0.09    -0.07   0.03   0.30
     5   1     0.15   0.02   0.06    -0.12  -0.03  -0.08    -0.29  -0.09  -0.36
     6   8     0.01  -0.00   0.06    -0.00   0.00  -0.03    -0.05   0.01  -0.17
     7   6    -0.00  -0.00  -0.09     0.10  -0.09   0.07    -0.09   0.06  -0.29
     8   1     0.18  -0.10  -0.14     0.06  -0.08  -0.33     0.24  -0.20  -0.30
     9   6    -0.05   0.06  -0.02    -0.09   0.11  -0.10     0.09  -0.07   0.09
    10   1     0.14  -0.09   0.15    -0.10   0.02  -0.32     0.19  -0.06   0.17
    11   1     0.21  -0.49   0.01     0.15  -0.49  -0.06    -0.04   0.08   0.11
    12   1     0.19  -0.05   0.38     0.14  -0.06   0.51    -0.08   0.00  -0.23
                     25                     26                     27
                      A                      A                      A
 Frequencies --   3027.6856              3140.6212              3146.3825
 Red. masses --      1.0853                 1.0572                 1.0873
 Frc consts  --      5.8616                 6.1439                 6.3420
 IR Inten    --     36.7647                17.0062                 8.3895
  Atom  AN      X      Y      Z        X      Y      Z        X      Y      Z
     1   1    -0.00   0.00   0.06    -0.00  -0.00   0.01    -0.00  -0.00  -0.15
     2   6     0.00  -0.00  -0.00    -0.00   0.00  -0.00     0.00  -0.00   0.01
     3   6    -0.07  -0.01   0.04     0.00   0.00   0.00    -0.00  -0.00   0.00
     4   6    -0.00   0.00  -0.00     0.00  -0.00   0.00    -0.06   0.04  -0.04
     5   1     0.79   0.19  -0.58    -0.00  -0.00  -0.00     0.01   0.00  -0.00
     6   8     0.00  -0.00   0.00    -0.00   0.00  -0.00    -0.00   0.00  -0.00
     7   6    -0.00   0.00  -0.00     0.00  -0.00  -0.00     0.01  -0.01  -0.01
     8   1     0.00   0.00   0.00    -0.03   0.01  -0.02     0.68  -0.44   0.50
     9   6     0.00   0.00  -0.00     0.02  -0.05   0.03     0.00   0.00   0.00
    10   1    -0.00  -0.00  -0.00    -0.03   0.04   0.03    -0.13   0.18   0.12
    11   1    -0.00  -0.00  -0.00    -0.14  -0.12  -0.61    -0.01  -0.01  -0.04
    12   1    -0.00  -0.00  -0.00    -0.07   0.72   0.25     0.00  -0.01  -0.00
                     28                     29                     30
                      A                      A                      A
 Frequencies --   3176.1467              3195.6151              3224.6819
 Red. masses --      1.0921                 1.0914                 1.1177
 Frc consts  --      6.4910                 6.5666                 6.8477
 IR Inten    --      6.0117                 6.2593                 6.0545
  Atom  AN      X      Y      Z        X      Y      Z        X      Y      Z
     1   1     0.00   0.00   0.11     0.00   0.00   0.98     0.00   0.00  -0.02
     2   6    -0.00   0.00  -0.01    -0.00  -0.00  -0.09    -0.00   0.00   0.00
     3   6     0.00   0.00  -0.00     0.01   0.00  -0.00    -0.00  -0.00   0.00
     4   6     0.01  -0.01   0.01    -0.01   0.01  -0.01     0.00  -0.00   0.00
     5   1    -0.00  -0.00   0.00    -0.05  -0.01   0.03     0.00  -0.00  -0.00
     6   8    -0.00  -0.00   0.00     0.00  -0.00   0.00    -0.00   0.00   0.00
     7   6     0.04  -0.06  -0.04    -0.00   0.00   0.00     0.01  -0.01  -0.01
     8   1    -0.16   0.11  -0.12     0.12  -0.08   0.09    -0.01   0.00  -0.01
     9   6    -0.00   0.02   0.01    -0.00  -0.00  -0.00    -0.01  -0.06  -0.08
    10   1    -0.48   0.67   0.46     0.03  -0.04  -0.03    -0.09   0.12   0.08
    11   1    -0.02  -0.02  -0.08     0.01   0.00   0.02     0.18   0.12   0.73
    12   1     0.02  -0.14  -0.05    -0.00   0.02   0.01    -0.06   0.59   0.18

 -------------------
 - Thermochemistry -
 -------------------
 Temperature   298.150 Kelvin.  Pressure   1.00000 Atm.
 Atom     1 has atomic number  1 and mass   1.00783
 Atom     2 has atomic number  6 and mass  12.00000
 Atom     3 has atomic number  6 and mass  12.00000
 Atom     4 has atomic number  6 and mass  12.00000
 Atom     5 has atomic number  1 and mass   1.00783
 Atom     6 has atomic number  8 and mass  15.99491
 Atom     7 has atomic number  6 and mass  12.00000
 Atom     8 has atomic number  1 and mass   1.00783
 Atom     9 has atomic number  6 and mass  12.00000
 Atom    10 has atomic number  1 and mass   1.00783
 Atom    11 has atomic number  1 and mass   1.00783
 Atom    12 has atomic number  1 and mass   1.00783
 Molecular mass:    82.04186 amu.
 Principal axes and moments of inertia in atomic units:
                           1         2         3
     Eigenvalues --   325.62256 385.80152 666.02236
           X            0.93815   0.26938   0.21752
           Y           -0.18392  -0.14457   0.97225
           Z           -0.29335   0.95212   0.08609
 This molecule is an asymmetric top.
 Rotational symmetry number  1.
 Rotational temperatures (Kelvin)      0.26599     0.22450     0.13005
 Rotational constants (GHZ):           5.54243     4.67790     2.70973
    1 imaginary frequencies ignored.
 Zero-point vibrational energy     251019.1 (Joules/Mol)
                                   59.99501 (Kcal/Mol)
 Warning -- explicit consideration of   5 degrees of freedom as
           vibrations may cause significant error
 Vibrational temperatures:    349.13   541.32   605.05   822.55   847.90
          (Kelvin)           1034.73  1134.91  1271.86  1372.24  1387.37
                             1409.93  1463.24  1499.60  1581.82  1602.12
                             1701.19  1796.09  1940.86  2018.72  2073.73
                             2153.73  2237.78  2326.56  4356.16  4518.65
                             4526.94  4569.77  4597.78  4639.60
 
 Zero-point correction=                           0.095608 (Hartree/Particle)
 Thermal correction to Energy=                    0.100454
 Thermal correction to Enthalpy=                  0.101398
 Thermal correction to Gibbs Free Energy=         0.067581
 Sum of electronic and zero-point Energies=           -269.297154
 Sum of electronic and thermal Energies=              -269.292308
 Sum of electronic and thermal Enthalpies=            -269.291364
 Sum of electronic and thermal Free Energies=         -269.325182
 
                     E (Thermal)             CV                S
                      KCal/Mol        Cal/Mol-Kelvin    Cal/Mol-Kelvin
 Total                   63.036             18.206             71.175
 Electronic               0.000              0.000              0.000
 Translational            0.889              2.981             39.128
 Rotational               0.889              2.981             25.929
 Vibrational             61.258             12.244              6.118
 Vibration     1          0.659              1.775              1.783
 Vibration     2          0.747              1.521              1.054
 Vibration     3          0.783              1.426              0.890
 Vibration     4          0.928              1.092              0.501
 Vibration     5          0.947              1.055              0.468
                       Q            Log10(Q)             Ln(Q)
 Total Bot       0.822308D-31        -31.084966        -71.575778
 Total V=0       0.779267D+13         12.891686         29.684205
 Vib (Bot)       0.271893D-43        -43.565602       -100.313506
 Vib (Bot)    1  0.807075D+00         -0.093086         -0.214339
 Vib (Bot)    2  0.481824D+00         -0.317111         -0.730176
 Vib (Bot)    3  0.417375D+00         -0.379474         -0.873771
 Vib (Bot)    4  0.268753D+00         -0.570646         -1.313961
 Vib (Bot)    5  0.256156D+00         -0.591495         -1.361968
 Vib (V=0)       0.257662D+01          0.411050          0.946477
 Vib (V=0)    1  0.144940D+01          0.161190          0.371153
 Vib (V=0)    2  0.119437D+01          0.077140          0.177622
 Vib (V=0)    3  0.115131D+01          0.061191          0.140898
 Vib (V=0)    4  0.106765D+01          0.028430          0.065462
 Vib (V=0)    5  0.106180D+01          0.026042          0.059963
 Electronic      0.100000D+01          0.000000          0.000000
 Translational   0.292084D+08          7.465507         17.189966
 Rotational      0.103545D+06          5.015129         11.547762
 -------------------------------------------------------------------
 Center     Atomic                   Forces (Hartrees/Bohr)
 Number     Number              X              Y              Z
 -------------------------------------------------------------------
      1        1          -0.000001516   -0.000068277   -0.000000662
      2        6           0.000010779   -0.000175748   -0.000006317
      3        6           0.000008992    0.000276069   -0.000062340
      4        6          -0.000021110   -0.000009495    0.000011341
      5        1           0.000002078   -0.000000811   -0.000000874
      6        8          -0.000018255   -0.000020413    0.000064152
      7        6          -0.000006688    0.000011406   -0.000013888
      8        1          -0.000001423   -0.000000726    0.000000720
      9        6           0.000041837   -0.000006056    0.000008426
     10        1          -0.000008222   -0.000002891   -0.000001265
     11        1          -0.000001095    0.000001318    0.000000531
     12        1          -0.000005376   -0.000004376    0.000000174
 -------------------------------------------------------------------
 Cartesian Forces:  Max     0.000276069 RMS     0.000058638
 -----------------------------------------------------------------------------------------------
                       Internal Coordinate Forces (Hartree/Bohr or radian)
  Cent   Atom   N1       Length/X         N2         Alpha/Y        N3         Beta/Z          J
 -----------------------------------------------------------------------------------------------
      1  H 
      2  C        1   0.000001(     1)
      3  C        2  -0.000006(     2)      1   0.000085(    12)
      4  C        2   0.000001(     3)      1   0.000085(    13)      3   0.000070(    22)     0
      5  H        3   0.000002(     4)      2   0.000001(    14)      1   0.000029(    23)     0
[...]
   1                    0.39556  -0.39222  -0.35821   0.28469  -0.27150
                          R9        A9        R3        D11       A6
   1                   -0.26902   0.26229   0.21867   0.21322   0.20340
 Angle between quadratic step and forces=  75.97 degrees.
 Linear search not attempted -- option 19 set.
 Variable       Old X    -DE/DX   Delta X   Delta X   Delta X     New X
                                 (Linear)    (Quad)   (Total)
    R2        2.04343   0.00000   0.00000  -0.00000  -0.00000   2.04343
    R3        2.66435  -0.00001   0.00000   0.00005   0.00005   2.66440
    R4        2.64589   0.00000   0.00000  -0.00005  -0.00005   2.64583
    R5        2.07264   0.00000   0.00000   0.00002   0.00002   2.07266
    R6        2.38149   0.00006   0.00000   0.00005   0.00005   2.38154
    R7        2.62218  -0.00001   0.00000   0.00006   0.00006   2.62224
    R8        2.05163   0.00000   0.00000   0.00000   0.00000   2.05163
    R9        2.63125   0.00003   0.00000  -0.00001  -0.00001   2.63123
   R10        2.04632   0.00000   0.00000   0.00001   0.00001   2.04633
   R11        2.04601   0.00000   0.00000   0.00000   0.00000   2.04602
   R12        2.04323   0.00000   0.00000  -0.00001  -0.00001   2.04322
    A3        2.03398   0.00009   0.00000   0.00006   0.00006   2.03404
    A4        2.08893   0.00009   0.00000   0.00023   0.00023   2.08916
    A5        2.01845   0.00000   0.00000  -0.00001  -0.00001   2.01844
    A6        2.23720  -0.00008   0.00000  -0.00003  -0.00003   2.23717
    A7        2.10818  -0.00006   0.00000   0.00000   0.00000   2.10818
    A8        2.06269   0.00000   0.00000   0.00001   0.00001   2.06271
    A9        2.04553  -0.00002   0.00000   0.00010   0.00010   2.04563
   A10        2.11014  -0.00001   0.00000  -0.00006  -0.00006   2.11008
   A11        2.10780  -0.00000   0.00000  -0.00002  -0.00002   2.10778
   A12        2.06668  -0.00001   0.00000   0.00002   0.00002   2.06670
    D4        2.71464   0.00007   0.00000   0.00137   0.00137   2.71601
    D5        0.21216   0.00003   0.00000   0.00097   0.00097   0.21313
    D6        2.99029   0.00003   0.00000   0.00004   0.00004   2.99033
    D7       -3.09525   0.00006   0.00000  -0.00072  -0.00072  -3.09597
    D8        2.95235   0.00000   0.00000  -0.00002  -0.00002   2.95233
    D9       -0.36909   0.00005   0.00000  -0.00042  -0.00042  -0.36952
   D10        2.97587   0.00001   0.00000   0.00026   0.00026   2.97614
   D11        2.85552  -0.00001   0.00000   0.00004   0.00004   2.85556
   D12        2.65352  -0.00001   0.00000   0.00007   0.00007   2.65359
         Item               Value     Threshold  Converged?
 Maximum Force            0.000085     0.000450     YES
 RMS     Force            0.000037     0.000300     YES
 Maximum Displacement     0.001372     0.001800     YES
 RMS     Displacement     0.000351     0.001200     YES
 Predicted change in Energy=-4.756027D-08
 Optimization completed.
    -- Stationary point found.
                       ----------------------------
                       !   Optimized Parameters   !
                       ! (Angstroms and Degrees)  !
 ----------------------                            ----------------------
 !      Name          Value   Derivative information (Atomic Units)     !
 ------------------------------------------------------------------------
 !       R2          1.0813   -DE/DX =    0.0                           !
 !       R3          1.4099   -DE/DX =    0.0                           !
 !       R4          1.4001   -DE/DX =    0.0                           !
 !       R5          1.0968   -DE/DX =    0.0                           !
 !       R6          1.2602   -DE/DX =    0.0001                        !
 !       R7          1.3876   -DE/DX =    0.0                           !
 !       R8          1.0857   -DE/DX =    0.0                           !
 !       R9          1.3924   -DE/DX =    0.0                           !
 !       R10         1.0829   -DE/DX =    0.0                           !
 !       R11         1.0827   -DE/DX =    0.0                           !
 !       R12         1.0812   -DE/DX =    0.0                           !
 !       A3        116.5387   -DE/DX =    0.0001                        !
 !       A4        119.6868   -DE/DX =    0.0001                        !
 !       A5        115.6484   -DE/DX =    0.0                           !
 !       A6        128.1821   -DE/DX =   -0.0001                        !
 !       A7        120.7896   -DE/DX =   -0.0001                        !
 !       A8        118.1837   -DE/DX =    0.0                           !
 !       A9        117.2      -DE/DX =    0.0                           !
 !       A10       120.9021   -DE/DX =    0.0                           !
 !       A11       120.7679   -DE/DX =    0.0                           !
 !       A12       118.4122   -DE/DX =    0.0                           !
 !       D4        155.5374   -DE/DX =    0.0001                        !
 !       D5         12.1558   -DE/DX =    0.0                           !
 !       D6        171.3311   -DE/DX =    0.0                           !
 !       D7       -177.3445   -DE/DX =    0.0001                        !
 !       D8        169.157    -DE/DX =    0.0                           !
 !       D9        -21.1475   -DE/DX =    0.0                           !
 !       D10       170.5049   -DE/DX =    0.0                           !
 !       D11       163.6094   -DE/DX =    0.0                           !
 !       D12       152.0353   -DE/DX =    0.0                           !
 ------------------------------------------------------------------------
 GradGradGradGradGradGradGradGradGradGradGradGradGradGradGradGradGradGrad


 ----------------------------------------------------------------------

 Electric dipole moment (input orientation):
 (Debye = 10**-18 statcoulomb cm , SI units = C m)
                  (au)            (Debye)         (10**-30 SI)
   Tot        0.564331D+00      0.143439D+01      0.478460D+01
   x         -0.482431D+00     -0.122622D+01     -0.409022D+01
   y          0.897595D-01      0.228146D+00      0.761013D+00
   z         -0.278699D+00     -0.708383D+00     -0.236291D+01

 Dipole polarizability, Alpha (input orientation).
 (esu units = cm**3 , SI units = C**2 m**2 J**-1)
 Alpha(0;0):
               (au)            (10**-24 esu)      (10**-40 SI)
   iso        0.652367D+02      0.966708D+01      0.107561D+02
   aniso      0.359167D+02      0.532230D+01      0.592186D+01
   xx         0.732638D+02      0.108566D+02      0.120796D+02
   yx        -0.785096D+01     -0.116339D+01     -0.129445D+01
   yy         0.444799D+02      0.659124D+01      0.733375D+01
   zx        -0.614369D+01     -0.910401D+00     -0.101296D+01
   zy        -0.139896D+01     -0.207304D+00     -0.230657D+00
   zz         0.779664D+02      0.115534D+02      0.128549D+02

 ----------------------------------------------------------------------

 Dipole orientation:
     1          0.00000000         -0.00000000          0.00000000
     6         -1.74687448         -0.32501749         -1.00916535
     6         -1.54701499         -0.73131990         -3.63476080
     6         -3.84917338         -1.27873527          0.28369659
     1          0.36986706         -1.06927470         -4.34693132
     8         -3.30240995         -1.03378217         -5.21545712
     6         -6.07994451         -1.80946674         -0.98824173
     1         -3.59268549         -1.90826489          2.21943534
     6         -6.45986077         -0.61296398         -3.30070756
     1         -7.32027375         -3.30839430         -0.35403137
     1         -7.87681303         -1.29293814         -4.61068931
     1         -6.02935230          1.37903251         -3.44696025

 Electric dipole moment (dipole orientation):
 (Debye = 10**-18 statcoulomb cm , SI units = C m)
                  (au)            (Debye)         (10**-30 SI)
   Tot        0.564331D+00      0.143439D+01      0.478460D+01
   x          0.000000D+00      0.000000D+00      0.000000D+00
   y          0.000000D+00      0.000000D+00      0.000000D+00
   z          0.564331D+00      0.143439D+01      0.478460D+01

 Dipole polarizability, Alpha (dipole orientation).
 (esu units = cm**3 , SI units = C**2 m**2 J**-1)
 Alpha(0;0):
               (au)            (10**-24 esu)      (10**-40 SI)
   iso        0.652367D+02      0.966708D+01      0.107561D+02
   aniso      0.359167D+02      0.532230D+01      0.592186D+01
   xx         0.813152D+02      0.120497D+02      0.134071D+02
   yx         0.608799D+01      0.902147D+00      0.100377D+01
   yy         0.435452D+02      0.645273D+01      0.717963D+01
   zx        -0.114521D+01     -0.169703D+00     -0.188820D+00
   zy        -0.336950D+01     -0.499308D+00     -0.555556D+00
   zz         0.708498D+02      0.104989D+02      0.116816D+02

 ----------------------------------------------------------------------
 1\1\GINC-BHC0105\Freq\RB3LYP\def2TZVP\C5H6O1\DHANAWAY\10-Jun-2022\1\\#
 N Geom=AllCheck Guess=TCheck SCRF=Check GenChk RB3LYP/def2TZVP Freq\\t
 s_zmat_initalOpt\\0,1\H\C,1,R2\C,2,R3,1,A3\C,2,R4,1,A4,3,D4,0\H,3,R5,2
 ,A5,1,D5,0\O,3,R6,2,A6,5,D6,0\C,4,R7,2,A7,1,D7,0\H,4,R8,2,A8,7,D8,0\C,
 7,R9,4,A9,2,D9,0\H,7,R10,4,A10,9,D10,0\H,9,R11,7,A11,4,D11,0\H,9,R12,7
 ,A12,11,D12,0\\R2=1.08133858\R3=1.40991489\R4=1.40014433\R5=1.09679392
 \R6=1.26023036\R7=1.3875994\R8=1.08567487\R9=1.39239521\R10=1.08286561
 \R11=1.08270365\R12=1.08122927\A3=116.53873741\A4=119.68682049\A5=115.
 64841367\A6=128.18214383\A7=120.78960617\A8=118.18367396\A9=117.200022
 17\A10=120.90212058\A11=120.76785127\A12=118.41223862\D4=155.53739197\
 D5=12.15576224\D6=171.33112602\D7=-177.34447805\D8=169.15695871\D9=-21
 .14745931\D10=170.50488149\D11=163.60939869\D12=152.03530586\\Version=
 ES64L-G16RevA.03\HF=-269.3927624\RMSD=5.802e-09\RMSF=5.864e-05\ZeroPoi
 nt=0.0956081\Thermal=0.100454\Dipole=-0.4824312,0.0897595,-0.2786994\D
 ipoleDeriv=0.0537181,0.022116,0.038311,-0.0056458,0.1699187,0.0507358,
 0.0112161,-0.0111194,-0.0757227,-0.8168008,0.021781,0.4100264,0.020609
 2,-0.3305012,-0.1546648,-0.0336571,0.0402549,-0.0784983,0.8269367,0.05
 14819,-0.0450709,0.0883508,0.1075127,-0.0665315,0.6742578,-0.0917448,0
 .3133149,0.4037828,-0.1733874,-0.2998492,-0.0811867,-0.0196239,0.06427
 15,-0.3205673,-0.0274004,0.7306894,-0.0482285,-0.0249156,0.1181596,-0.
 0378965,0.0981713,-0.044849,0.1568318,0.0121928,-0.0238709,-0.7943741,
 0.0747973,-0.4014659,-0.0066751,-0.2925106,0.1180323,-0.4998358,0.0701
 97,-0.4346028,-0.3017407,-0.0852669,-0.1845363,-0.1061243,-0.1224889,0
 .3025477,0.1279745,0.1048326,-0.8099538,-0.0233214,0.0712778,-0.024497
 ,0.0560349,0.0827902,0.1073741,-0.0602356,0.0390322,0.0422882,0.501370
 3,-0.0667892,0.4906481,-0.0362713,0.2413304,-0.2324609,-0.0611989,-0.0
 074225,0.3280223,0.1015595,0.0841368,-0.0560177,0.1286,0.0248996,-0.12
 96539,0.0276791,-0.0474869,0.0374021,0.0773159,-0.006339,0.029424,-0.0
 046238,0.077191,-0.0155205,-0.0282112,0.0041469,-0.0888305,0.0197821,0
 .0311072,-0.0751321,-0.0151713,-0.0366892,0.0007192,0.0057466,-0.08548
 23,0.0597622\Polar=73.2637735,-7.8509588,44.4799088,-6.143693,-1.39895
 57,77.9664442\PG=C01 [X(C5H6O1)]\NImag=1\\0.05789376,-0.00655885,0.024
 72480,0.00128446,0.00232595,0.35960299,-0.05564229,0.00482649,-0.00313
 622,0.56930231,0.00412315,-0.02762572,-0.00282082,-0.09312693,0.147623
 19,0.00130866,0.00678460,-0.33956878,-0.00095387,0.05378553,0.70011134
 ,0.00336598,-0.00231964,0.00445353,-0.23515179,-0.00307297,-0.08944874
 ,0.62375838,0.00105091,-0.00481571,0.00168745,-0.01834133,-0.05801095,
 -0.00520178,0.03728483,0.18558828,-0.03101331,0.00263935,-0.01118332,0
 .00803124,-0.00392178,-0.14696119,-0.01749955,-0.04637975,0.70054349,0
 .00239268,-0.00062979,-0.00136564,-0.22189037,0.07852452,0.09973253,-0
 .06142807,0.01918201,-0.02666057,0.54795092,-0.00213369,-0.00023099,0.
 00159215,0.09402080,-0.09511151,-0.05075537,0.01349368,-0.00268502,0.0
 0771534,-0.22277952,0.28060589,0.02838916,-0.01026526,-0.01164484,0.03
 494651,-0.01958758,-0.16593790,0.04436661,-0.00404956,0.07872403,0.031
 42800,-0.02082217,0.67635251,0.00057433,0.00053204,-0.00055328,-0.0225
 2824,-0.00506706,0.01692236,-0.21497844,-0.04167210,0.10564149,-0.0023
 5930,-0.00178360,-0.00494811,0.22434806,-0.00019988,-0.00242676,-0.000
 01674,0.00357892,0.00676131,0.00516499,-0.04878862,-0.05697506,0.01678
 829,-0.00179949,0.00701200,-0.00015475,0.04517402,0.03424633,0.0000927
 0,-0.00070059,0.00072588,-0.01360145,0.00118925,0.00832877,0.11448420,
 0.01999749,-0.11487002,-0.00070431,-0.00080059,-0.00384213,-0.12020567
 ,-0.03070513,0.15423845,-0.00437470,0.00253162,-0.00210579,0.02268832,
 -0.00991535,-0.04699808,-0.14746887,-0.00121617,-0.11318487,-0.0050279
 0,0.00551925,0.02624391,0.01339173,0.00157176,0.02743698,0.14136421,0.
 00034233,0.00795598,-0.00101831,0.00685646,0.01818858,0.00048363,0.002
 23308,-0.06673544,0.01936180,-0.00529566,-0.00115470,0.00409723,0.0016
 4905,0.00717330,0.00939898,0.00362475,0.06010371,-0.00251595,0.0023337
 1,0.00022083,-0.10929575,0.00670525,-0.03436690,-0.02706879,0.02882119
 ,-0.41425036,0.03500188,-0.01301813,-0.06891927,0.00218876,0.01303342,
 -0.05021286,0.15129532,-0.04151502,0.50669214,-0.00262456,0.00287703,0
 .00219155,0.02313825,-0.00154835,0.02591038,-0.02053714,0.00187392,-0.
 02606240,-0.09017456,0.02999212,0.01644400,0.00127912,-0.00364248,0.00
 229354,-0.03741657,0.00784541,0.03495948,0.37631012,0.00440723,0.00522
 901,-0.00160685,-0.01954279,0.01250982,-0.01728965,0.01634958,-0.00147
 619,0.02736795,0.03018538,-0.09275402,-0.03690381,-0.00077349,0.001056
 63,-0.00160057,0.01991564,0.00429534,-0.02809030,-0.28202974,0.4462360
 3,0.00171459,-0.00164778,0.00109434,0.07271355,-0.02876294,-0.03117046
 ,-0.04337585,0.00368469,-0.06571660,-0.02315743,0.00902498,-0.33016173
 ,0.00090297,-0.00222695,0.00443331,-0.02629674,-0.00515028,0.06533833,
 0.00421874,0.05429400,0.65129855,0.00016548,-0.00261180,0.00012220,-0.
 02119586,0.01439100,-0.00941224,0.00319634,0.00572600,0.00583476,-0.18
 777760,0.09438077,-0.10681884,-0.00004772,-0.00116011,-0.00043846,0.00
 176304,-0.00108905,-0.00453671,0.00684023,-0.00099580,0.00499585,0.199
 23660,-0.00149654,-0.00253890,-0.00029197,0.00134038,0.00319378,0.0122
 9985,0.00622868,0.00378048,0.00052104,0.10243144,-0.10847425,0.0567096
 2,0.00139214,0.00062733,0.00004751,0.00203327,-0.00134115,-0.00480410,
 0.00307666,0.00435457,0.00500044,-0.11026024,0.09584230,-0.00058611,-0
 .00039338,0.00084346,0.01210035,-0.00687606,0.01131027,0.00284512,-0.0
 0102549,-0.00080325,-0.10091408,0.06307318,-0.13480293,0.00062773,0.00
 094246,0.00017144,0.00076569,-0.00011672,-0.00062909,-0.02152847,0.017
 06611,-0.00897624,0.10856571,-0.07221534,0.13880995,-0.00234959,0.0008
 2422,-0.00086886,-0.07418119,0.01556325,0.00402637,0.06325106,-0.00326
 501,0.11115836,0.02237592,-0.01598800,-0.08432509,-0.00003744,0.005149
 92,-0.01194325,0.03806381,-0.00151186,-0.11206022,-0.13833391,0.095407
 78,-0.02015000,-0.00128987,-0.00201373,-0.00230983,0.17434861,0.000175
 78,-0.00099751,-0.00006165,0.01400572,-0.00813638,-0.00519443,-0.01385
 688,0.00201032,-0.01661463,-0.00235049,0.00961751,0.02100568,0.0001287
 9,0.00331915,0.00180571,-0.01065387,-0.02904912,0.02106506,0.11996813,
 -0.19466729,0.06441274,0.00260277,0.00574124,-0.00176059,-0.13994216,0
 .59913579,-0.00001376,-0.00109114,0.00052750,0.00678854,0.00051521,0.0
 0092047,0.00536019,0.00190616,-0.03133007,-0.02893172,0.02448317,-0.02
 423807,-0.00055146,-0.00210423,0.00167760,-0.02874493,0.00421684,0.004
 50941,-0.09995359,0.08129529,-0.17264179,0.00126841,0.00158931,-0.0063
 4828,0.20010058,0.03698698,0.61660139,0.00037735,0.00063684,-0.0000334
 2,0.00967050,0.00151543,-0.00100011,-0.00436219,-0.00021579,-0.0078180
 3,0.00009116,-0.00048741,0.00917144,0.00022235,-0.00073748,0.00058793,
 -0.00411675,0.00168596,0.00706078,-0.11793302,0.11579380,0.05208780,-0
 .00090244,-0.00226285,0.00102861,0.00309660,0.01127986,0.01044501,0.11
 429717,0.00034328,0.00076018,0.00017819,0.00603818,0.00120041,-0.00060
 550,-0.00386114,-0.00033594,-0.00576983,-0.00269165,0.00193575,0.00950
 868,0.00023018,-0.00070753,0.00044730,-0.00403981,0.00157132,0.0063451
 6,0.11349047,-0.17932794,-0.11081170,-0.00090277,-0.00121369,0.0001984
 1,0.01599617,-0.01486256,-0.00802096,-0.12624307,0.19227284,0.00146738
 ,0.00040727,-0.00058652,-0.00313483,0.00035879,-0.00462008,-0.00025576
 ,-0.00021459,-0.00034848,0.01920619,-0.02328243,-0.01301116,0.00005200
 ,0.00008985,0.00009013,0.00009798,-0.00014549,0.00043848,0.06276397,-0
 .10151886,-0.11699996,0.00002658,0.00104978,0.00094504,-0.00881148,0.0
 1491925,0.00949956,-0.07035438,0.10647019,0.12494354,0.00000838,-0.000
 15373,-0.00003929,-0.00183146,0.00121190,-0.00002485,-0.00236782,0.000
 80599,0.00226422,0.00171568,0.00446055,-0.00482770,-0.00011435,0.00029
 721,0.00039959,0.00438450,0.00008301,0.00704790,0.00653895,-0.00492117
 ,-0.01635215,-0.00039652,-0.00089523,-0.00101371,-0.06419372,-0.005326
 28,-0.06395068,-0.00131914,-0.00235568,0.00081764,0.05326904,-0.000046
 00,-0.00003151,-0.00000826,-0.00034091,0.00046284,-0.00020831,-0.00140
 601,0.00030271,0.00059588,0.00556728,-0.00065048,0.00004291,-0.0000337
 5,0.00031660,0.00029919,0.00112389,-0.00085812,0.00305615,0.00352108,0
 .00637704,0.02167144,-0.00025184,-0.00034421,0.00107701,-0.00599726,-0
 .06278479,-0.05170697,-0.00170724,-0.00035515,-0.00034686,0.00453604,0
 .05747680,0.00007486,0.00009460,-0.00003742,0.00059488,-0.00050609,0.0
 0067214,-0.00005405,-0.00057021,-0.00102581,-0.00520939,0.00063248,0.0
 0108513,0.00002614,-0.00009274,-0.00002047,-0.00071771,0.00054621,-0.0
 0022598,-0.00190387,-0.00474433,-0.00999876,0.00063063,0.00064606,-0.0
 0071372,-0.06499730,-0.04887901,-0.31677843,0.00107913,0.00142996,0.00
 057171,0.07343526,0.05179548,0.33188580,0.00021317,0.00004558,0.000050
 76,0.00762185,-0.00259858,-0.00006243,-0.00727746,-0.00121325,-0.01069
 134,-0.00586857,0.00130505,0.00993010,0.00024991,0.00055622,0.00159819
 ,-0.02325084,-0.01642348,0.01792330,-0.00708691,0.02620359,-0.00730134
 ,0.00040831,0.00042603,0.00041899,-0.02075029,0.02396865,-0.00181659,0
 .00087840,0.00399587,-0.00187531,0.00430647,-0.00496527,-0.00295858,0.
 05055596,-0.00000772,-0.00000286,0.00004086,0.00068501,-0.00105537,0.0
 0073644,-0.00228459,-0.00064747,-0.00230367,-0.00034402,0.00188982,0.0
 0041899,0.00022380,-0.00040330,0.00062146,-0.01049498,-0.00014971,0.00
 606762,0.00457577,-0.01183300,-0.00948863,0.00017108,0.00037249,0.0000
 3041,0.03577668,-0.30932637,-0.08806965,0.00074197,-0.00093768,0.00221
 310,0.00225740,0.00008828,-0.00035241,-0.03130040,0.32200516,-0.000202
 69,-0.00048733,0.00000589,-0.00505295,-0.00007876,0.00128234,0.0061930
 8,0.00134440,0.00722158,0.00157454,0.00215739,-0.00360365,-0.00010293,
 -0.00071848,-0.00072009,0.01220823,0.00984113,-0.00859473,0.00066666,0
 .01173102,0.01350099,-0.00023790,-0.00055220,0.00019337,-0.00981929,-0
 .08768511,-0.08239929,-0.00225476,0.00063010,-0.00092226,0.00224376,-0
 .02626766,-0.00541419,-0.00521576,0.09008549,0.07945005\\0.00000152,0.
 00006828,0.00000066,-0.00001078,0.00017575,0.00000632,-0.00000899,-0.0
 0027607,0.00006234,0.00002111,0.00000950,-0.00001134,-0.00000208,0.000
 00081,0.00000087,0.00001825,0.00002041,-0.00006415,0.00000669,-0.00001
 141,0.00001389,0.00000142,0.00000073,-0.00000072,-0.00004184,0.0000060
 6,-0.00000843,0.00000822,0.00000289,0.00000126,0.00000109,-0.00000132,
 -0.00000053,0.00000538,0.00000438,-0.00000017\\\@


 NOTHING PUZZLES ME MORE THAN TIME AND SPACE; AND YET NOTHING TROUBLES ME LESS
                                                          -- CHARLES LAMB (1810)
 Job cpu time:       0 days  0 hours 32 minutes 25.0 seconds.
 Elapsed time:       0 days  0 hours  2 minutes 43.6 seconds.
 File lengths (MBytes):  RWF=     54 Int=      0 D2E=      0 Chk=     32 Scr=      1
 Normal termination of Gaussian 16 at Fri Jun 10 22:26:47 2022.
