 Entering Gaussian System, Link 0=g16
 Input=int_initalOptXYZ_aligned_sp.gjf
 Output=int_initalOptXYZ_aligned_sp.out
 Initial command:
 /software/gaussian/g16-a03/l1.exe "/local_scratch/11174380/Gau-5731.inp" -scrdir="/local_scratch/11174380/"
 Entering Link 1 = /software/gaussian/g16-a03/l1.exe PID=      5732.
  
 Copyright (c) 1988,1990,1992,1993,1995,1998,2003,2009,2016,
            Gaussian, Inc.  All Rights Reserved.
  
 This is part of the Gaussian(R) 16 program.  It is based on
 the Gaussian(R) 09 system (copyright 2009, Gaussian, Inc.),
 the Gaussian(R) 03 system (copyright 2003, Gaussian, Inc.),
 the Gaussian(R) 98 system (copyright 1998, Gaussian, Inc.),
 the Gaussian(R) 94 system (copyright 1995, Gaussian, Inc.),
 the Gaussian 92(TM) system (copyright 1992, Gaussian, Inc.),
 the Gaussian 90(TM) system (copyright 1990, Gaussian, Inc.),
 the Gaussian 88(TM) system (copyright 1988, Gaussian, Inc.),
 the Gaussian 86(TM) system (copyright 1986, Carnegie Mellon
 University), and the Gaussian 82(TM) system (copyright 1983,
 Carnegie Mellon University). Gaussian is a federally registered
 trademark of Gaussian, Inc.
  
 This software contains proprietary and confidential information,
 including trade secrets, belonging to Gaussian, Inc.
  
 This software is provided under written license and may be
 used, copied, transmitted, or stored only in accord with that
 written license.
  
 The following legend is applicable only to US Government
 contracts under FAR:
  
                    RESTRICTED RIGHTS LEGEND
  
 Use, reproduction and disclosure by the US Government is
 subject to restrictions as set forth in subparagraphs (a)
 and (c) of the Commercial Computer Software - Restricted
 Rights clause in FAR 52.227-19.
  
 Gaussian, Inc.
 340 Quinnipiac St., Bldg. 40, Wallingford CT 06492
  
  
 ---------------------------------------------------------------
 Warning -- This program may not be used in any manner that
 competes with the business of Gaussian, Inc. or will provide
 assistance to any competitor of Gaussian, Inc.  The licensee
 of this program is prohibited from giving any competitor of
 Gaussian, Inc. access to this program.  By using this program,
 the user acknowledges that Gaussian, Inc. is engaged in the
 business of creating and licensing software in the field of
 computational chemistry and represents and warrants to the
 licensee that it is not a competitor of Gaussian, Inc. and that
 it will not use this program in any manner prohibited above.
 ---------------------------------------------------------------
  

 Cite this work as:
 Gaussian 16, Revision A.03,
 M. J. Frisch, G. W. Trucks, H. B. Schlegel, G. E. Scuseria, 
 M. A. Robb, J. R. Cheeseman, G. Scalmani, V. Barone, 
 G. A. Petersson, H. Nakatsuji, X. Li, M. Caricato, A. V. Marenich, 
 J. Bloino, B. G. Janesko, R. Gomperts, B. Mennucci, H. P. Hratchian, 
 J. V. Ortiz, A. F. Izmaylov, J. L. Sonnenberg, D. Williams-Young, 
 F. Ding, F. Lipparini, F. Egidi, J. Goings, B. Peng, A. Petrone, 
 T. Henderson, D. Ranasinghe, V. G. Zakrzewski, J. Gao, N. Rega, 
 G. Zheng, W. Liang, M. Hada, M. Ehara, K. Toyota, R. Fukuda, 
 J. Hasegawa, M. Ishida, T. Nakajima, Y. Honda, O. Kitao, H. Nakai, 
 T. Vreven, K. Throssell, J. A. Montgomery, Jr., J. E. Peralta, 
 F. Ogliaro, M. J. Bearpark, J. J. Heyd, E. N. Brothers, K. N. Kudin, 
 V. N. Staroverov, T. A. Keith, R. Kobayashi, J. Normand, 
 K. Raghavachari, A. P. Rendell, J. C. Burant, S. S. Iyengar, 
 J. Tomasi, M. Cossi, J. M. Millam, M. Klene, C. Adamo, R. Cammi, 
 J. W. Ochterski, R. L. Martin, K. Morokuma, O. Farkas, 
 J. B. Foresman, and D. J. Fox, Gaussian, Inc., Wallingford CT, 2016.
 
 ******************************************
 Gaussian 16:  ES64L-G16RevA.03 25-Dec-2016
                10-Jun-2022 
 ******************************************
 %nprocshared=12
 Will use up to   12 processors via shared memory.
 %chk=checkpoint.chk
 %mem=12GB
 --------------------------
 # sp B3LYP/Def2TZVP NoSymm
 --------------------------
 1/38=1,172=1/1;
 2/12=2,15=1,17=6,18=5,40=1/2;
 3/5=44,7=101,11=2,25=1,30=1,74=-5/1,2,3;
 4//1;
 5/5=2,38=5/2;
 6/7=2,8=2,9=2,10=2,28=1/1;
 99/5=1,9=1/99;
 ----------------------------------
 int_initalOptXYZ_aligned_AlignedSp
 ----------------------------------
 Symbolic Z-matrix:
 Charge =  0 Multiplicity = 1
 6                     0.50139   0.7023   -0.89057 
 6                     0.4137   -0.86602  -0.6692 
 6                    -0.74069   1.45919  -0.53692 
 6                     1.20637  -0.67964   0.64337 
 6                     1.66372   0.70809   0.1352 
 6                    -0.90493  -1.56115  -0.70075 
 6                    -1.48917  -2.186     0.31479 
 6                    -0.89739   2.35249   0.43269 
 1                    -1.40928  -1.55562  -1.66526 
 1                    -2.44514  -2.68018   0.1972 
 1                    -1.03647  -2.23229   1.29786 
 1                     0.5445   -0.58664   1.50456 
 1                     1.97569  -1.41775   0.86985 
 1                     2.63054   0.6611   -0.36697 
 1                     1.6954    1.51994   0.85946 
 1                     0.78549   0.97153  -1.91206 
 1                     1.06274  -1.32769  -1.42093 
 1                    -0.09656   2.62847   1.10713 
 1                    -1.59603   1.24069  -1.17196 
 1                    -1.84728   2.84916   0.58451 
 
                          Input orientation:                          
 ---------------------------------------------------------------------
 Center     Atomic      Atomic             Coordinates (Angstroms)
 Number     Number       Type             X           Y           Z
 ---------------------------------------------------------------------
      1          6           0        0.501394    0.702303   -0.890572
      2          6           0        0.413696   -0.866022   -0.669198
      3          6           0       -0.740690    1.459194   -0.536916
      4          6           0        1.206375   -0.679643    0.643370
      5          6           0        1.663721    0.708094    0.135199
      6          6           0       -0.904926   -1.561148   -0.700754
      7          6           0       -1.489172   -2.185997    0.314785
      8          6           0       -0.897392    2.352493    0.432690
      9          1           0       -1.409279   -1.555615   -1.665259
     10          1           0       -2.445142   -2.680178    0.197203
     11          1           0       -1.036474   -2.232292    1.297857
     12          1           0        0.544503   -0.586641    1.504557
     13          1           0        1.975685   -1.417749    0.869850
     14          1           0        2.630536    0.661102   -0.366971
     15          1           0        1.695404    1.519942    0.859462
     16          1           0        0.785493    0.971528   -1.912058
     17          1           0        1.062743   -1.327694   -1.420929
     18          1           0       -0.096563    2.628473    1.107134
     19          1           0       -1.596028    1.240692   -1.171956
     20          1           0       -1.847280    2.849156    0.584508
 ---------------------------------------------------------------------
                    Distance matrix (angstroms):
                    1          2          3          4          5
     1  C    0.000000
     2  C    1.586298   0.000000
     3  C    1.496907   2.599372   0.000000
     4  C    2.181685   1.544640   3.123902   0.000000
     5  C    1.550240   2.165054   2.607121   1.547003   0.000000
     6  C    2.671512   1.490959   3.029238   2.653547   3.527921
     7  C    3.709112   2.516240   3.817465   3.105325   4.283544
     8  C    2.535893   3.645812   1.327657   3.696494   3.058079
     9  H    3.057614   2.188816   3.287741   3.597046   4.220113
    10  H    4.615897   3.494963   4.536352   4.187455   5.326067
    11  H    3.970656   2.799820   4.132910   2.805253   4.157968
    12  H    2.720272   2.195535   3.163032   1.090122   2.191832
    13  H    3.125258   2.261168   4.199343   1.089923   2.270736
    14  H    2.192966   2.708843   3.468573   2.201504   1.090465
    15  H    2.270862   3.110048   2.808579   2.263630   1.088420
    16  H    1.093905   2.249339   2.111414   3.071436   2.243199
    17  H    2.171930   1.095218   3.435199   2.168394   2.631946
    18  H    2.838752   3.953127   2.117785   3.585576   2.780488
    19  H    2.183625   2.954657   1.087484   3.851825   3.552222
    20  H    3.507294   4.526184   2.100983   4.666979   4.136805
                    6          7          8          9         10
     6  C    0.000000
     7  C    1.327817   0.000000
     8  C    4.074474   4.578427   0.000000
     9  H    1.088427   2.079504   4.465056   0.000000
    10  H    2.104951   1.082552   5.270556   2.409651   0.000000
    11  H    2.112388   1.083286   4.667774   3.062178   1.842929
    12  H    2.813166   2.847689   3.444774   3.847585   3.876861
    13  H    3.284095   3.592149   4.760295   4.231284   4.646492
    14  H    4.189188   5.053984   3.993312   4.787431   6.102864
    15  H    4.323090   4.916521   2.756423   5.047011   5.934957
    16  H    3.277075   4.483625   3.199533   3.356246   5.312339
    17  H    2.108287   3.203382   4.563092   2.494502   4.093021
    18  H    4.634095   5.074081   1.082759   5.188061   5.875847
    19  H    2.924032   3.736846   2.073423   2.845620   4.238964
    20  H    4.689425   5.055072   1.082594   4.965411   5.575032
                   11         12         13         14         15
    11  H    0.000000
    12  H    2.291371   0.000000
    13  H    3.149567   1.772534   0.000000
    14  H    4.958865   3.067737   2.506028   0.000000
    15  H    4.662039   2.485641   2.951050   1.765281   0.000000
    16  H    4.887492   3.762875   3.855414   2.426488   2.968168
    17  H    3.552014   3.062058   2.467639   2.743011   3.702631
    18  H    4.954477   3.302403   4.552189   3.671594   2.121633
    19  H    4.298220   3.883908   4.898307   4.341402   3.877907
    20  H    5.194939   4.286236   5.736110   5.073828   3.793813
                   16         17         18         19         20
    16  H    0.000000
    17  H    2.367382   0.000000
    18  H    3.555139   4.835944   0.000000
    19  H    2.508355   3.705085   3.060814   0.000000
    20  H    4.085318   5.471388   1.840339   2.394880   0.000000
 Symmetry turned off by external request.
 Stoichiometry    C8H12
 Framework group  C1[X(C8H12)]
 Deg. of freedom    54
 Full point group                 C1      NOp   1
 Rotational constants (GHZ):           2.7935540           1.6963920           1.3157302
 Standard basis: def2TZVP (5D, 7F)
   320 basis functions,   504 primitive gaussians,   360 cartesian basis functions
    30 alpha electrons       30 beta electrons
       nuclear repulsion energy       360.3732312208 Hartrees.
 NAtoms=   20 NActive=   20 NUniq=   20 SFac= 1.00D+00 NAtFMM=   60 NAOKFM=F Big=F
 Integral buffers will be    131072 words long.
 Raffenetti 2 integral format.
 Two-electron integral symmetry is turned off.
 One-electron integrals computed using PRISM.
   1 Symmetry operations used in ECPInt.
 ECPInt:  NShTT=    9316 NPrTT=   27240 LenC2=    9174 LenP2D=   21654.
 LDataN:  DoStor=T MaxTD1= 6 Len=  172
 NBasis=   320 RedAO= T EigKep=  3.42D-05  NBF=   320
 NBsUse=   320 1.00D-06 EigRej= -1.00D+00 NBFU=   320
 ExpMin= 9.52D-02 ExpMax= 1.36D+04 ExpMxC= 4.63D+02 IAcc=3 IRadAn=         5 AccDes= 0.00D+00
 Harris functional with IExCor=  402 and IRadAn=       5 diagonalized for initial guess.
 HarFok:  IExCor=  402 AccDes= 0.00D+00 IRadAn=         5 IDoV= 1 UseB2=F ITyADJ=14
 ICtDFT=  3500011 ScaDFX=  1.000000  1.000000  1.000000  1.000000
 FoFCou: FMM=F IPFlag=           0 FMFlag=      100000 FMFlg1=           0
         NFxFlg=           0 DoJE=T BraDBF=F KetDBF=T FulRan=T
         wScrn=  0.000000 ICntrl=       500 IOpCl=  0 I1Cent=   200000004 NGrid=           0
         NMat0=    1 NMatS0=      1 NMatT0=    0 NMatD0=    1 NMtDS0=    0 NMtDT0=    0
 Symmetry not used in FoFCou.
 Requested convergence on RMS density matrix=1.00D-08 within 128 cycles.
 Requested convergence on MAX density matrix=1.00D-06.
 Requested convergence on             energy=1.00D-06.
 No special actions if energy rises.
 Integral accuracy reduced to 1.0D-05 until final iterations.
 Initial convergence to 1.0D-05 achieved.  Increase integral accuracy.
 SCF Done:  E(RB3LYP) =  -312.116802521     A.U. after   13 cycles
            NFock= 13  Conv=0.80D-08     -V/T= 2.0056

 **********************************************************************

            Population analysis using the SCF density.

 **********************************************************************

 Alpha  occ. eigenvalues --  -10.18245 -10.18171 -10.17374 -10.17350 -10.16886
 Alpha  occ. eigenvalues --  -10.16703 -10.16162 -10.16074  -0.86026  -0.77607
 Alpha  occ. eigenvalues --   -0.75962  -0.67169  -0.66042  -0.59491  -0.55949
 Alpha  occ. eigenvalues --   -0.51312  -0.49607  -0.48263  -0.45706  -0.44642
 Alpha  occ. eigenvalues --   -0.40960  -0.39706  -0.36995  -0.36555  -0.34887
 Alpha  occ. eigenvalues --   -0.32688  -0.32523  -0.30629  -0.26335  -0.25433
 Alpha virt. eigenvalues --   -0.00015   0.00790   0.03671   0.04979   0.06218
 Alpha virt. eigenvalues --    0.06789   0.08623   0.09388   0.09762   0.11098
 Alpha virt. eigenvalues --    0.12636   0.13060   0.13914   0.14354   0.14583
 Alpha virt. eigenvalues --    0.16202   0.17986   0.18839   0.19495   0.20554
 Alpha virt. eigenvalues --    0.20834   0.22089   0.22915   0.24286   0.25362
 Alpha virt. eigenvalues --    0.26896   0.28168   0.29777   0.30816   0.31202
 Alpha virt. eigenvalues --    0.33108   0.33202   0.34796   0.35142   0.36382
 Alpha virt. eigenvalues --    0.37641   0.37985   0.38474   0.40141   0.40683
 Alpha virt. eigenvalues --    0.41170   0.41663   0.43329   0.44026   0.44326
 Alpha virt. eigenvalues --    0.44690   0.45724   0.46102   0.46795   0.47548
 Alpha virt. eigenvalues --    0.49014   0.49862   0.50100   0.50628   0.53305
 Alpha virt. eigenvalues --    0.54585   0.56177   0.58120   0.58455   0.59740
 Alpha virt. eigenvalues --    0.61247   0.64013   0.64819   0.67103   0.69057
 Alpha virt. eigenvalues --    0.71542   0.73081   0.74467   0.77185   0.77843
 Alpha virt. eigenvalues --    0.83717   0.87062   0.88652   0.89961   0.91429
 Alpha virt. eigenvalues --    0.93898   0.94171   0.95509   0.96007   0.97431
 Alpha virt. eigenvalues --    0.98737   1.00381   1.01561   1.02182   1.04297
 Alpha virt. eigenvalues --    1.07838   1.08318   1.09214   1.11690   1.14523
 Alpha virt. eigenvalues --    1.15800   1.17530   1.17618   1.19125   1.20035
 Alpha virt. eigenvalues --    1.21974   1.23433   1.24714   1.25821   1.28993
 Alpha virt. eigenvalues --    1.29573   1.31992   1.34180   1.38295   1.42263
 Alpha virt. eigenvalues --    1.45710   1.46538   1.48788   1.50531   1.51326
 Alpha virt. eigenvalues --    1.54238   1.55590   1.56206   1.57949   1.60102
 Alpha virt. eigenvalues --    1.60722   1.61796   1.63118   1.66082   1.66429
 Alpha virt. eigenvalues --    1.68587   1.70263   1.72785   1.75388   1.75964
 Alpha virt. eigenvalues --    1.77407   1.78114   1.78893   1.79948   1.83117
 Alpha virt. eigenvalues --    1.83914   1.84569   1.85503   1.87962   1.91349
 Alpha virt. eigenvalues --    1.92316   1.96095   1.97357   1.99585   2.00112
 Alpha virt. eigenvalues --    2.01958   2.06807   2.10127   2.13650   2.15430
 Alpha virt. eigenvalues --    2.20130   2.23104   2.25506   2.26467   2.27916
 Alpha virt. eigenvalues --    2.28929   2.31748   2.33683   2.35125   2.38404
 Alpha virt. eigenvalues --    2.39891   2.41877   2.42882   2.44699   2.45656
 Alpha virt. eigenvalues --    2.46365   2.49808   2.51315   2.53295   2.53322
 Alpha virt. eigenvalues --    2.55429   2.57407   2.58896   2.59988   2.61619
 Alpha virt. eigenvalues --    2.63266   2.64096   2.64941   2.65754   2.68168
 Alpha virt. eigenvalues --    2.69940   2.70675   2.71552   2.73975   2.74917
 Alpha virt. eigenvalues --    2.78283   2.82374   2.86319   2.87857   2.88277
 Alpha virt. eigenvalues --    2.88721   2.90933   2.91295   2.93420   2.96261
 Alpha virt. eigenvalues --    2.97016   2.98269   2.99987   3.01275   3.02490
 Alpha virt. eigenvalues --    3.04700   3.05617   3.06670   3.07039   3.09251
 Alpha virt. eigenvalues --    3.10359   3.11179   3.13461   3.14942   3.16978
 Alpha virt. eigenvalues --    3.18942   3.20249   3.21743   3.22766   3.23794
 Alpha virt. eigenvalues --    3.25282   3.26056   3.27557   3.29025   3.31234
 Alpha virt. eigenvalues --    3.33962   3.34983   3.36547   3.38150   3.40207
 Alpha virt. eigenvalues --    3.41874   3.42733   3.42964   3.44997   3.47272
 Alpha virt. eigenvalues --    3.49694   3.51312   3.52434   3.55625   3.60964
 Alpha virt. eigenvalues --    3.61371   3.63655   3.65147   3.66599   3.69517
 Alpha virt. eigenvalues --    3.70182   3.72565   3.77632   3.79021   3.81864
 Alpha virt. eigenvalues --    3.84033   3.85423   3.87860   3.91973   3.94699
 Alpha virt. eigenvalues --    3.98191   4.01089   4.03162   4.04920   4.06508
 Alpha virt. eigenvalues --    4.10136   4.10812   4.13831   4.14583   4.17652
 Alpha virt. eigenvalues --    4.20810   4.25688   4.28268   4.32417   4.33425
 Alpha virt. eigenvalues --    4.40034   4.43008   4.45546   4.49033   4.51103
 Alpha virt. eigenvalues --    4.56799   4.57818   4.60678   4.62731   4.68939
 Alpha virt. eigenvalues --    4.69720   4.73073   4.78320   4.83799   4.90388
 Alpha virt. eigenvalues --    4.91071   4.97461   5.04093   5.07983   5.13573
 Alpha virt. eigenvalues --    5.16998   5.22769  22.11209  22.22151  22.39169
 Alpha virt. eigenvalues --   22.49923  22.64654  22.71770  22.74018  22.75155
          Condensed to atoms (all electrons):
               1          2          3          4          5          6
     1  C    4.953000   0.291809   0.337773  -0.106806   0.289099  -0.015899
     2  C    0.291809   4.962989  -0.023839   0.335654  -0.117542   0.301272
     3  C    0.337773  -0.023839   4.996204   0.001743  -0.009082  -0.017281
     4  C   -0.106806   0.335654   0.001743   4.958195   0.309066  -0.025809
     5  C    0.289099  -0.117542  -0.009082   0.309066   4.990203   0.006931
     6  C   -0.015899   0.301272  -0.017281  -0.025809   0.006931   5.025854
     7  C   -0.005440  -0.045831  -0.000736  -0.002388   0.000893   0.617318
     8  C   -0.050005   0.001212   0.600963  -0.004714   0.000143   0.004547
     9  H   -0.001110  -0.050313  -0.000887   0.006553  -0.001243   0.400387
    10  H   -0.000389   0.009141   0.000075   0.000003   0.000038  -0.041642
    11  H   -0.000425  -0.008657  -0.000397   0.000907   0.000055  -0.044581
    12  H   -0.006275  -0.018515   0.002008   0.384279  -0.015483  -0.008813
    13  H    0.018821  -0.039831  -0.000528   0.412914  -0.036286   0.004169
    14  H   -0.015303  -0.002762   0.003447  -0.024205   0.386680   0.000140
    15  H   -0.030158   0.014741  -0.011089  -0.033347   0.404044  -0.000414
    16  H    0.415105  -0.053495  -0.051712   0.015365  -0.041994   0.002653
    17  H   -0.056744   0.418068   0.008236  -0.044110   0.011549  -0.051650
    18  H   -0.010496   0.000301  -0.048217  -0.003268   0.005770   0.000009
    19  H   -0.056682  -0.004165   0.400027  -0.003249   0.009974   0.007111
    20  H    0.008705  -0.000446  -0.039338   0.000311  -0.000311  -0.000077
               7          8          9         10         11         12
     1  C   -0.005440  -0.050005  -0.001110  -0.000389  -0.000425  -0.006275
     2  C   -0.045831   0.001212  -0.050313   0.009141  -0.008657  -0.018515
     3  C   -0.000736   0.600963  -0.000887   0.000075  -0.000397   0.002008
     4  C   -0.002388  -0.004714   0.006553   0.000003   0.000907   0.384279
     5  C    0.000893   0.000143  -0.001243   0.000038   0.000055  -0.015483
     6  C    0.617318   0.004547   0.400387  -0.041642  -0.044581  -0.008813
     7  C    4.879986   0.002455  -0.030765   0.413806   0.413206   0.002480
     8  C    0.002455   4.909253   0.000209   0.000003  -0.000098   0.001832
     9  H   -0.030765   0.000209   0.583203  -0.010545   0.007360   0.000016
    10  H    0.413806   0.000003  -0.010545   0.555967  -0.035033  -0.000153
    11  H    0.413206  -0.000098   0.007360  -0.035033   0.560690   0.002513
    12  H    0.002480   0.001832   0.000016  -0.000153   0.002513   0.598118
    13  H   -0.000078  -0.000156  -0.000321   0.000007  -0.000524  -0.031953
    14  H    0.000013   0.000090   0.000019  -0.000000   0.000011   0.005072
    15  H   -0.000047  -0.001361   0.000069  -0.000004   0.000040  -0.009967
    16  H   -0.000064   0.000883   0.000743   0.000022  -0.000050  -0.000465
    17  H    0.000589  -0.000156  -0.002961  -0.000460   0.000391   0.008226
    18  H   -0.000013   0.413327   0.000003   0.000002  -0.000011   0.000140
    19  H    0.002041  -0.032321  -0.000191   0.000071   0.000002   0.000359
    20  H    0.000058   0.412516   0.000000  -0.000003   0.000006  -0.000052
              13         14         15         16         17         18
     1  C    0.018821  -0.015303  -0.030158   0.415105  -0.056744  -0.010496
     2  C   -0.039831  -0.002762   0.014741  -0.053495   0.418068   0.000301
     3  C   -0.000528   0.003447  -0.011089  -0.051712   0.008236  -0.048217
     4  C    0.412914  -0.024205  -0.033347   0.015365  -0.044110  -0.003268
     5  C   -0.036286   0.386680   0.404044  -0.041994   0.011549   0.005770
     6  C    0.004169   0.000140  -0.000414   0.002653  -0.051650   0.000009
     7  C   -0.000078   0.000013  -0.000047  -0.000064   0.000589  -0.000013
     8  C   -0.000156   0.000090  -0.001361   0.000883  -0.000156   0.413327
     9  H   -0.000321   0.000019   0.000069   0.000743  -0.002961   0.000003
    10  H    0.000007  -0.000000  -0.000004   0.000022  -0.000460   0.000002
    11  H   -0.000524   0.000011   0.000040  -0.000050   0.000391  -0.000011
    12  H   -0.031953   0.005072  -0.009967  -0.000465   0.008226   0.000140
    13  H    0.600300  -0.009376   0.002687  -0.001013  -0.011074   0.000036
    14  H   -0.009376   0.602802  -0.026119  -0.008794   0.002737  -0.000316
    15  H    0.002687  -0.026119   0.596216   0.003086  -0.001177   0.004465
    16  H   -0.001013  -0.008794   0.003086   0.650765  -0.010486   0.000490
    17  H   -0.011074   0.002737  -0.001177  -0.010486   0.660040  -0.000057
    18  H    0.000036  -0.000316   0.004465   0.000490  -0.000057   0.567065
    19  H    0.000030  -0.000358  -0.000036  -0.001565   0.000362   0.007595
    20  H    0.000002   0.000000  -0.000080  -0.000522   0.000021  -0.035556
              19         20
     1  C   -0.056682   0.008705
     2  C   -0.004165  -0.000446
     3  C    0.400027  -0.039338
     4  C   -0.003249   0.000311
     5  C    0.009974  -0.000311
     6  C    0.007111  -0.000077
     7  C    0.002041   0.000058
     8  C   -0.032321   0.412516
     9  H   -0.000191   0.000000
    10  H    0.000071  -0.000003
    11  H    0.000002   0.000006
    12  H    0.000359  -0.000052
    13  H    0.000030   0.000002
    14  H   -0.000358   0.000000
    15  H   -0.000036  -0.000080
    16  H   -0.001565  -0.000522
    17  H    0.000362   0.000021
    18  H    0.007595  -0.035556
    19  H    0.590882  -0.010936
    20  H   -0.010936   0.556462
 Mulliken charges:
               1
     1  C    0.041419
     2  C    0.030210
     3  C   -0.147371
     4  C   -0.177094
     5  C   -0.192504
     6  C   -0.164225
     7  C   -0.247481
     8  C   -0.258622
     9  H    0.099775
    10  H    0.109092
    11  H    0.104595
    12  H    0.086632
    13  H    0.092174
    14  H    0.086224
    15  H    0.088450
    16  H    0.081047
    17  H    0.068656
    18  H    0.098731
    19  H    0.091050
    20  H    0.109241
 Sum of Mulliken charges =  -0.00000
 Mulliken charges with hydrogens summed into heavy atoms:
               1
     1  C    0.122466
     2  C    0.098866
     3  C   -0.056321
     4  C    0.001712
     5  C   -0.017829
     6  C   -0.064450
     7  C   -0.033794
     8  C   -0.050650
 Electronic spatial extent (au):  <R**2>=           1041.4150
 Charge=             -0.0000 electrons
 Dipole moment (field-independent basis, Debye):
    X=              0.4039    Y=             -0.0914    Z=             -0.3558  Tot=              0.5459
 Quadrupole moment (field-independent basis, Debye-Ang):
   XX=            -49.5792   YY=            -53.7196   ZZ=            -49.1831
   XY=              0.0723   XZ=              0.3609   YZ=              0.8284
 Traceless Quadrupole moment (field-independent basis, Debye-Ang):
   XX=              1.2481   YY=             -2.8923   ZZ=              1.6442
   XY=              0.0723   XZ=              0.3609   YZ=              0.8284
 Octapole moment (field-independent basis, Debye-Ang**2):
  XXX=              2.4791  YYY=              3.0509  ZZZ=             16.9680  XYY=             -1.2407
  XXY=             -1.4378  XXZ=              3.0295  XZZ=              1.1818  YZZ=             -1.0423
  YYZ=             13.3878  XYZ=              0.2516
 Hexadecapole moment (field-independent basis, Debye-Ang**3):
 XXXX=           -470.6349 YYYY=           -832.8467 ZZZZ=           -214.9293 XXXY=            -38.2208
 XXXZ=             -9.4069 YYYX=            -39.7065 YYYZ=              2.9357 ZZZX=             -8.7287
 ZZZY=             -6.3899 XXYY=           -192.1677 XXZZ=           -115.6277 YYZZ=           -164.2318
 XXYZ=             -0.8560 YYXZ=             -6.5991 ZZXY=             -9.8111
 N-N= 3.603732312208D+02 E-N=-1.443432774780D+03  KE= 3.103866729016D+02
 1\1\GINC-BHC0011\SP\RB3LYP\def2TZVP\C8H12\DHANAWAY\10-Jun-2022\0\\# sp
  B3LYP/Def2TZVP NoSymm\\int_initalOptXYZ_aligned_AlignedSp\\0,1\C,0,0.
 501394,0.702303,-0.890572\C,0,0.413696,-0.866022,-0.669198\C,0,-0.7406
 9,1.459194,-0.536916\C,0,1.206375,-0.679643,0.64337\C,0,1.663721,0.708
 094,0.135199\C,0,-0.904926,-1.561148,-0.700754\C,0,-1.489172,-2.185997
 ,0.314785\C,0,-0.897392,2.352493,0.43269\H,0,-1.409279,-1.555615,-1.66
 5259\H,0,-2.445142,-2.680178,0.197203\H,0,-1.036474,-2.232292,1.297857
 \H,0,0.544503,-0.586641,1.504557\H,0,1.975685,-1.417749,0.86985\H,0,2.
 630536,0.661102,-0.366971\H,0,1.695404,1.519942,0.859462\H,0,0.785493,
 0.971528,-1.912058\H,0,1.062743,-1.327694,-1.420929\H,0,-0.096563,2.62
 8473,1.107134\H,0,-1.596028,1.240692,-1.171956\H,0,-1.84728,2.849156,0
 .584508\\Version=ES64L-G16RevA.03\HF=-312.1168025\RMSD=8.006e-09\Dipol
 e=0.1589013,-0.0359576,-0.1399659\Quadrupole=0.927934,-2.1503446,1.222
 4106,0.0537591,0.2682993,0.6158878\PG=C01 [X(C8H12)]\\@


 If fifty million people say a stupid thing,
 it is still a stupid thing.
                   -- Anatole France
 Job cpu time:       0 days  0 hours 12 minutes 38.4 seconds.
 Elapsed time:       0 days  0 hours  1 minutes  4.3 seconds.
 File lengths (MBytes):  RWF=     60 Int=      0 D2E=      0 Chk=     32 Scr=      1
 Normal termination of Gaussian 16 at Fri Jun 10 22:16:08 2022.
