 Entering Gaussian System, Link 0=g16
 Input=ts_initalOptXYZ_aligned_sp.gjf
 Output=ts_initalOptXYZ_aligned_sp.out
 Initial command:
 /software/gaussian/g16-a03/l1.exe "/local_scratch/11174381/Gau-16671.inp" -scrdir="/local_scratch/11174381/"
 Entering Link 1 = /software/gaussian/g16-a03/l1.exe PID=     16672.
  
 Copyright (c) 1988,1990,1992,1993,1995,1998,2003,2009,2016,
            Gaussian, Inc.  All Rights Reserved.
  
 This is part of the Gaussian(R) 16 program.  It is based on
 the Gaussian(R) 09 system (copyright 2009, Gaussian, Inc.),
 the Gaussian(R) 03 system (copyright 2003, Gaussian, Inc.),
 the Gaussian(R) 98 system (copyright 1998, Gaussian, Inc.),
 the Gaussian(R) 94 system (copyright 1995, Gaussian, Inc.),
 the Gaussian 92(TM) system (copyright 1992, Gaussian, Inc.),
 the Gaussian 90(TM) system (copyright 1990, Gaussian, Inc.),
 the Gaussian 88(TM) system (copyright 1988, Gaussian, Inc.),
 the Gaussian 86(TM) system (copyright 1986, Carnegie Mellon
 University), and the Gaussian 82(TM) system (copyright 1983,
 Carnegie Mellon University). Gaussian is a federally registered
 trademark of Gaussian, Inc.
  
 This software contains proprietary and confidential information,
 including trade secrets, belonging to Gaussian, Inc.
  
 This software is provided under written license and may be
 used, copied, transmitted, or stored only in accord with that
 written license.
  
 The following legend is applicable only to US Government
 contracts under FAR:
  
                    RESTRICTED RIGHTS LEGEND
  
 Use, reproduction and disclosure by the US Government is
 subject to restrictions as set forth in subparagraphs (a)
 and (c) of the Commercial Computer Software - Restricted
 Rights clause in FAR 52.227-19.
  
 Gaussian, Inc.
 340 Quinnipiac St., Bldg. 40, Wallingford CT 06492
  
  
 ---------------------------------------------------------------
 Warning -- This program may not be used in any manner that
 competes with the business of Gaussian, Inc. or will provide
 assistance to any competitor of Gaussian, Inc.  The licensee
 of this program is prohibited from giving any competitor of
 Gaussian, Inc. access to this program.  By using this program,
 the user acknowledges that Gaussian, Inc. is engaged in the
 business of creating and licensing software in the field of
 computational chemistry and represents and warrants to the
 licensee that it is not a competitor of Gaussian, Inc. and that
 it will not use this program in any manner prohibited above.
 ---------------------------------------------------------------
  

 Cite this work as:
 Gaussian 16, Revision A.03,
 M. J. Frisch, G. W. Trucks, H. B. Schlegel, G. E. Scuseria, 
 M. A. Robb, J. R. Cheeseman, G. Scalmani, V. Barone, 
 G. A. Petersson, H. Nakatsuji, X. Li, M. Caricato, A. V. Marenich, 
 J. Bloino, B. G. Janesko, R. Gomperts, B. Mennucci, H. P. Hratchian, 
 J. V. Ortiz, A. F. Izmaylov, J. L. Sonnenberg, D. Williams-Young, 
 F. Ding, F. Lipparini, F. Egidi, J. Goings, B. Peng, A. Petrone, 
 T. Henderson, D. Ranasinghe, V. G. Zakrzewski, J. Gao, N. Rega, 
 G. Zheng, W. Liang, M. Hada, M. Ehara, K. Toyota, R. Fukuda, 
 J. Hasegawa, M. Ishida, T. Nakajima, Y. Honda, O. Kitao, H. Nakai, 
 T. Vreven, K. Throssell, J. A. Montgomery, Jr., J. E. Peralta, 
 F. Ogliaro, M. J. Bearpark, J. J. Heyd, E. N. Brothers, K. N. Kudin, 
 V. N. Staroverov, T. A. Keith, R. Kobayashi, J. Normand, 
 K. Raghavachari, A. P. Rendell, J. C. Burant, S. S. Iyengar, 
 J. Tomasi, M. Cossi, J. M. Millam, M. Klene, C. Adamo, R. Cammi, 
 J. W. Ochterski, R. L. Martin, K. Morokuma, O. Farkas, 
 J. B. Foresman, and D. J. Fox, Gaussian, Inc., Wallingford CT, 2016.
 
 ******************************************
 Gaussian 16:  ES64L-G16RevA.03 25-Dec-2016
                10-Jun-2022 
 ******************************************
 %nprocshared=12
 Will use up to   12 processors via shared memory.
 %chk=checkpoint.chk
 %mem=12GB
 --------------------------
 # sp B3LYP/Def2TZVP NoSymm
 --------------------------
 1/38=1,172=1/1;
 2/12=2,15=1,17=6,18=5,40=1/2;
 3/5=44,7=101,11=2,25=1,30=1,74=-5/1,2,3;
 4//1;
 5/5=2,38=5/2;
 6/7=2,8=2,9=2,10=2,28=1/1;
 99/5=1,9=1/99;
 ---------------------------------
 ts_initalOptXYZ_aligned_AlignedSp
 ---------------------------------
 Symbolic Z-matrix:
 Charge =  0 Multiplicity = 1
 6                     0.65472  -1.093     0.65083 
 6                     0.65473   1.09299   0.65083 
 6                    -0.68632  -1.4552    0.56679 
 6                     1.52584   0.76959  -0.55699 
 6                     1.52583  -0.7696   -0.55699 
 6                    -0.68631   1.4552    0.56679 
 6                    -1.4959    1.22078  -0.52183 
 6                    -1.49591  -1.22077  -0.52183 
 1                    -1.08431  -1.1175   -1.51494 
 1                    -2.55017  -1.458    -0.47588 
 1                    -1.17256  -1.72379   1.50056 
 1                     1.17515  -1.33861   1.56927 
 1                     2.52619  -1.18943  -0.43613 
 1                     1.11563  -1.19298  -1.47567 
 1                     2.5262    1.18941  -0.43613 
 1                     1.11564   1.19297  -1.47567 
 1                     1.17516   1.33861   1.56927 
 1                    -1.17255   1.7238    1.50056 
 1                    -1.0843    1.1175   -1.51494 
 1                    -2.55016   1.45802  -0.47589 
 
                          Input orientation:                          
 ---------------------------------------------------------------------
 Center     Atomic      Atomic             Coordinates (Angstroms)
 Number     Number       Type             X           Y           Z
 ---------------------------------------------------------------------
      1          6           0        0.654722   -1.092996    0.650832
      2          6           0        0.654729    1.092992    0.650833
      3          6           0       -0.686321   -1.455198    0.566787
      4          6           0        1.525842    0.769594   -0.556985
      5          6           0        1.525834   -0.769603   -0.556987
      6          6           0       -0.686313    1.455203    0.566786
      7          6           0       -1.495902    1.220775   -0.521834
      8          6           0       -1.495911   -1.220768   -0.521832
      9          1           0       -1.084305   -1.117496   -1.514941
     10          1           0       -2.550173   -1.458000   -0.475884
     11          1           0       -1.172560   -1.723793    1.500563
     12          1           0        1.175151   -1.338612    1.569265
     13          1           0        2.526189   -1.189428   -0.436131
     14          1           0        1.115630   -1.192976   -1.475672
     15          1           0        2.526200    1.189411   -0.436125
     16          1           0        1.115644    1.192973   -1.475670
     17          1           0        1.175159    1.338605    1.569267
     18          1           0       -1.172552    1.723800    1.500561
     19          1           0       -1.084295    1.117500   -1.514942
     20          1           0       -2.550163    1.458015   -0.475888
 ---------------------------------------------------------------------
                    Distance matrix (angstroms):
                    1          2          3          4          5
     1  C    0.000000
     2  C    2.185988   0.000000
     3  C    1.391636   2.880755   0.000000
     4  C    2.384725   1.523893   3.332601   0.000000
     5  C    1.523892   2.384725   2.574206   1.539197   0.000000
     6  C    2.880756   1.391637   2.910401   2.574209   3.332600
     7  C    3.369550   2.452894   3.000225   3.055444   3.618526
     8  C    2.452894   3.369552   1.376766   3.618531   3.055442
     9  H    2.777659   3.549799   2.146165   3.360306   2.802058
    10  H    3.416734   4.248347   2.135677   4.645713   4.134526
    11  H    2.111612   3.463424   1.086512   4.210921   3.524957
    12  H    1.083832   2.650859   2.117459   3.014707   2.228833
    13  H    2.166374   3.145361   3.375900   2.202968   1.091590
    14  H    2.178176   3.155963   2.736316   2.205434   1.091556
    15  H    3.145360   2.166374   4.280196   1.091590   2.202970
    16  H    3.155965   2.178177   3.798884   1.091556   2.205434
    17  H    2.650860   1.083833   3.503628   2.228834   3.014709
    18  H    3.463425   2.111614   3.348788   3.524959   4.210920
    19  H    3.549796   2.777658   3.333280   2.802059   3.360299
    20  H    4.248346   3.416735   3.612186   4.134527   4.645709
                    6          7          8          9         10
     6  C    0.000000
     7  C    1.376766   0.000000
     8  C    3.000226   2.441543   0.000000
     9  H    3.333281   2.573555   1.079977   0.000000
    10  H    3.612186   2.879138   1.081600   1.828757   0.000000
    11  H    3.348790   3.586798   2.108950   3.077117   2.423800
    12  H    3.503629   4.249433   3.394281   3.829668   4.251462
    13  H    4.280197   4.689738   4.023135   3.768909   5.083617
    14  H    3.798879   3.681861   2.780419   2.201580   3.808927
    15  H    3.375902   4.023137   4.689743   4.418304   5.725376
    16  H    2.736319   2.780422   3.681871   3.190546   4.633081
    17  H    2.117461   3.394283   4.249435   4.544221   5.087410
    18  H    1.086512   2.108950   3.586797   4.144153   3.990993
    19  H    2.146165   1.079977   2.573556   2.234996   3.140325
    20  H    2.135676   1.081601   2.879138   3.140323   2.916015
                   11         12         13         14         15
    11  H    0.000000
    12  H    2.380091   0.000000
    13  H    4.209165   2.422638   0.000000
    14  H    3.791511   3.048999   1.752237   0.000000
    15  H    5.091006   3.498260   2.378839   2.957386   0.000000
    16  H    4.754089   3.960315   2.957383   2.385949   1.752237
    17  H    3.859376   2.677217   3.498264   3.960316   2.422637
    18  H    3.447593   3.859378   5.091008   4.754085   4.209167
    19  H    4.144153   4.544218   4.418297   3.190535   3.768911
    20  H    3.990996   5.087410   5.725372   4.633072   5.083620
                   16         17         18         19         20
    16  H    0.000000
    17  H    3.048999   0.000000
    18  H    3.791513   2.380093   0.000000
    19  H    2.201584   3.829669   3.077117   0.000000
    20  H    3.808931   4.251463   2.423800   1.828757   0.000000
 Symmetry turned off by external request.
 Stoichiometry    C8H12
 Framework group  C1[X(C8H12)]
 Deg. of freedom    54
 Full point group                 C1      NOp   1
 Rotational constants (GHZ):           2.4921688           2.3101024           1.5833667
 Standard basis: def2TZVP (5D, 7F)
   320 basis functions,   504 primitive gaussians,   360 cartesian basis functions
    30 alpha electrons       30 beta electrons
       nuclear repulsion energy       368.2317442540 Hartrees.
 NAtoms=   20 NActive=   20 NUniq=   20 SFac= 1.00D+00 NAtFMM=   60 NAOKFM=F Big=F
 Integral buffers will be    131072 words long.
 Raffenetti 2 integral format.
 Two-electron integral symmetry is turned off.
 One-electron integrals computed using PRISM.
   1 Symmetry operations used in ECPInt.
 ECPInt:  NShTT=    9316 NPrTT=   27240 LenC2=    9239 LenP2D=   22136.
 LDataN:  DoStor=T MaxTD1= 6 Len=  172
 NBasis=   320 RedAO= T EigKep=  2.55D-05  NBF=   320
 NBsUse=   320 1.00D-06 EigRej= -1.00D+00 NBFU=   320
 ExpMin= 9.52D-02 ExpMax= 1.36D+04 ExpMxC= 4.63D+02 IAcc=3 IRadAn=         5 AccDes= 0.00D+00
 Harris functional with IExCor=  402 and IRadAn=       5 diagonalized for initial guess.
 HarFok:  IExCor=  402 AccDes= 0.00D+00 IRadAn=         5 IDoV= 1 UseB2=F ITyADJ=14
 ICtDFT=  3500011 ScaDFX=  1.000000  1.000000  1.000000  1.000000
 FoFCou: FMM=F IPFlag=           0 FMFlag=      100000 FMFlg1=           0
         NFxFlg=           0 DoJE=T BraDBF=F KetDBF=T FulRan=T
         wScrn=  0.000000 ICntrl=       500 IOpCl=  0 I1Cent=   200000004 NGrid=           0
         NMat0=    1 NMatS0=      1 NMatT0=    0 NMatD0=    1 NMtDS0=    0 NMtDT0=    0
 Symmetry not used in FoFCou.
 Requested convergence on RMS density matrix=1.00D-08 within 128 cycles.
 Requested convergence on MAX density matrix=1.00D-06.
 Requested convergence on             energy=1.00D-06.
 No special actions if energy rises.
 Integral accuracy reduced to 1.0D-05 until final iterations.
 Initial convergence to 1.0D-05 achieved.  Increase integral accuracy.
 SCF Done:  E(RB3LYP) =  -312.079787613     A.U. after   14 cycles
            NFock= 14  Conv=0.39D-08     -V/T= 2.0056

 **********************************************************************

            Population analysis using the SCF density.

 **********************************************************************

 Alpha  occ. eigenvalues --  -10.18167 -10.18167 -10.17162 -10.17143 -10.17028
 Alpha  occ. eigenvalues --  -10.17028 -10.16205 -10.16203  -0.83629  -0.77663
 Alpha  occ. eigenvalues --   -0.75856  -0.67516  -0.66398  -0.60185  -0.54911
 Alpha  occ. eigenvalues --   -0.50575  -0.50224  -0.46844  -0.46297  -0.43209
 Alpha  occ. eigenvalues --   -0.40280  -0.40237  -0.37798  -0.37211  -0.36331
 Alpha  occ. eigenvalues --   -0.33362  -0.32190  -0.31997  -0.24083  -0.21179
 Alpha virt. eigenvalues --   -0.03807   0.00481   0.03418   0.04141   0.06652
 Alpha virt. eigenvalues --    0.06911   0.07926   0.09342   0.10097   0.10843
 Alpha virt. eigenvalues --    0.11357   0.13379   0.14249   0.14622   0.14867
 Alpha virt. eigenvalues --    0.16858   0.18057   0.19033   0.20337   0.20542
 Alpha virt. eigenvalues --    0.23367   0.23377   0.24289   0.25076   0.25895
 Alpha virt. eigenvalues --    0.26688   0.27020   0.28779   0.29641   0.31902
 Alpha virt. eigenvalues --    0.32784   0.33007   0.33888   0.35893   0.36294
 Alpha virt. eigenvalues --    0.39201   0.39565   0.40674   0.40917   0.41214
 Alpha virt. eigenvalues --    0.42921   0.43287   0.44702   0.44745   0.44998
 Alpha virt. eigenvalues --    0.45118   0.45794   0.47074   0.47289   0.48221
 Alpha virt. eigenvalues --    0.48904   0.50098   0.50876   0.51422   0.55373
 Alpha virt. eigenvalues --    0.56413   0.57079   0.58737   0.60521   0.62567
 Alpha virt. eigenvalues --    0.64791   0.66099   0.66375   0.66711   0.70299
 Alpha virt. eigenvalues --    0.72456   0.76844   0.76852   0.80170   0.81316
 Alpha virt. eigenvalues --    0.85157   0.86646   0.87668   0.91188   0.92058
 Alpha virt. eigenvalues --    0.92586   0.94277   0.95341   0.98317   0.98771
 Alpha virt. eigenvalues --    0.99100   1.02221   1.03345   1.04327   1.06393
 Alpha virt. eigenvalues --    1.08314   1.08759   1.10020   1.11468   1.15121
 Alpha virt. eigenvalues --    1.17216   1.17285   1.18005   1.19955   1.22334
 Alpha virt. eigenvalues --    1.22927   1.23398   1.24788   1.29487   1.30485
 Alpha virt. eigenvalues --    1.34556   1.36211   1.37734   1.40627   1.44216
 Alpha virt. eigenvalues --    1.45843   1.49199   1.49385   1.49684   1.50642
 Alpha virt. eigenvalues --    1.52056   1.54029   1.54533   1.57970   1.58340
 Alpha virt. eigenvalues --    1.59716   1.60428   1.64127   1.65120   1.67063
 Alpha virt. eigenvalues --    1.67102   1.68334   1.70902   1.74101   1.74214
 Alpha virt. eigenvalues --    1.75361   1.75736   1.79426   1.79601   1.81503
 Alpha virt. eigenvalues --    1.83563   1.87378   1.88327   1.90818   1.92948
 Alpha virt. eigenvalues --    1.93201   1.96172   1.96717   2.00255   2.00926
 Alpha virt. eigenvalues --    2.05758   2.06554   2.09623   2.12288   2.13541
 Alpha virt. eigenvalues --    2.18577   2.20736   2.24055   2.28271   2.30130
 Alpha virt. eigenvalues --    2.30935   2.33758   2.35286   2.36209   2.39142
 Alpha virt. eigenvalues --    2.40003   2.42631   2.45638   2.47314   2.48146
 Alpha virt. eigenvalues --    2.49248   2.50954   2.53418   2.53548   2.54087
 Alpha virt. eigenvalues --    2.58113   2.60864   2.61667   2.62936   2.63551
 Alpha virt. eigenvalues --    2.64210   2.66588   2.67955   2.68820   2.70073
 Alpha virt. eigenvalues --    2.70899   2.72795   2.73784   2.75888   2.76873
 Alpha virt. eigenvalues --    2.77093   2.79779   2.80354   2.80905   2.82545
 Alpha virt. eigenvalues --    2.86761   2.88155   2.89332   2.91458   2.93371
 Alpha virt. eigenvalues --    2.95569   2.96059   2.97267   3.00446   3.00878
 Alpha virt. eigenvalues --    3.01422   3.05249   3.06794   3.07294   3.09045
 Alpha virt. eigenvalues --    3.12198   3.12959   3.14628   3.16336   3.16431
 Alpha virt. eigenvalues --    3.20494   3.23441   3.23476   3.24612   3.26025
 Alpha virt. eigenvalues --    3.27129   3.27632   3.28072   3.28212   3.31411
 Alpha virt. eigenvalues --    3.32852   3.34512   3.36642   3.38868   3.38975
 Alpha virt. eigenvalues --    3.42515   3.44170   3.47224   3.47927   3.48592
 Alpha virt. eigenvalues --    3.49670   3.51969   3.53135   3.54897   3.57242
 Alpha virt. eigenvalues --    3.58320   3.58765   3.60863   3.66056   3.68063
 Alpha virt. eigenvalues --    3.69005   3.70370   3.75253   3.76721   3.79328
 Alpha virt. eigenvalues --    3.81740   3.86073   3.88807   3.89691   3.98413
 Alpha virt. eigenvalues --    4.01807   4.03360   4.03815   4.04400   4.06220
 Alpha virt. eigenvalues --    4.06662   4.08318   4.10650   4.13336   4.17852
 Alpha virt. eigenvalues --    4.20287   4.21272   4.25108   4.26784   4.29744
 Alpha virt. eigenvalues --    4.33350   4.33494   4.39610   4.44901   4.47868
 Alpha virt. eigenvalues --    4.55045   4.58104   4.59826   4.64515   4.68812
 Alpha virt. eigenvalues --    4.69884   4.77857   4.78625   4.84711   4.84983
 Alpha virt. eigenvalues --    4.95643   4.98628   5.01521   5.03985   5.15121
 Alpha virt. eigenvalues --    5.16920   5.35003  22.13744  22.37158  22.41579
 Alpha virt. eigenvalues --   22.41920  22.56995  22.67579  22.76091  22.96620
          Condensed to atoms (all electrons):
               1          2          3          4          5          6
     1  C    5.078419   0.152001   0.513279  -0.127006   0.278944  -0.011414
     2  C    0.152001   5.078419  -0.011415   0.278944  -0.127007   0.513279
     3  C    0.513279  -0.011415   4.980543  -0.012293  -0.016091  -0.129354
     4  C   -0.127006   0.278944  -0.012293   4.956677   0.379737  -0.016091
     5  C    0.278944  -0.127007  -0.016091   0.379737   4.956678  -0.012293
     6  C   -0.011414   0.513279  -0.129354  -0.016091  -0.012293   4.980541
     7  C   -0.034152  -0.077870  -0.030474   0.015233   0.007302   0.495641
     8  C   -0.077869  -0.034152   0.495640   0.007302   0.015234  -0.030474
     9  H   -0.003657   0.003463  -0.041537  -0.006590   0.001215  -0.003747
    10  H    0.009602   0.000065  -0.043769   0.000300  -0.000943   0.002158
    11  H   -0.046493  -0.001226   0.410433  -0.001413   0.009167  -0.000053
    12  H    0.404638  -0.006159  -0.050152   0.004346  -0.039526   0.001925
    13  H   -0.032037   0.013196   0.006480  -0.035985   0.389555  -0.000942
    14  H   -0.033487   0.011282  -0.012033  -0.045934   0.396689   0.004134
    15  H    0.013196  -0.032036  -0.000942   0.389554  -0.035984   0.006480
    16  H    0.011282  -0.033487   0.004134   0.396689  -0.045934  -0.012033
    17  H   -0.006159   0.404637   0.001925  -0.039526   0.004346  -0.050152
    18  H   -0.001226  -0.046493  -0.000053   0.009167  -0.001413   0.410434
    19  H    0.003463  -0.003657  -0.003747   0.001215  -0.006590  -0.041537
    20  H    0.000065   0.009602   0.002158  -0.000943   0.000300  -0.043769
               7          8          9         10         11         12
     1  C   -0.034152  -0.077869  -0.003657   0.009602  -0.046493   0.404638
     2  C   -0.077870  -0.034152   0.003463   0.000065  -0.001226  -0.006159
     3  C   -0.030474   0.495640  -0.041537  -0.043769   0.410433  -0.050152
     4  C    0.015233   0.007302  -0.006590   0.000300  -0.001413   0.004346
     5  C    0.007302   0.015234   0.001215  -0.000943   0.009167  -0.039526
     6  C    0.495641  -0.030474  -0.003747   0.002158  -0.000053   0.001925
     7  C    5.031356   0.118927  -0.025732   0.001341  -0.001558   0.000159
     8  C    0.118927   5.031356   0.414910   0.411920  -0.042163   0.010483
     9  H   -0.025732   0.414910   0.563251  -0.030255   0.006776  -0.000501
    10  H    0.001341   0.411920  -0.030255   0.543357  -0.008639  -0.000253
    11  H   -0.001558  -0.042163   0.006776  -0.008639   0.598211  -0.010967
    12  H    0.000159   0.010483  -0.000501  -0.000253  -0.010967   0.593274
    13  H   -0.000227  -0.000971   0.000361  -0.000009  -0.000286  -0.009723
    14  H   -0.006540   0.003270   0.004676   0.000254   0.000004   0.005100
    15  H   -0.000971  -0.000227   0.000176   0.000003   0.000045   0.000213
    16  H    0.003270  -0.006540   0.001905  -0.000039   0.000085  -0.000879
    17  H    0.010483   0.000159  -0.000052  -0.000003   0.000077  -0.004522
    18  H   -0.042163  -0.001558  -0.000052   0.000148  -0.000349   0.000077
    19  H    0.414910  -0.025732  -0.001545   0.001059  -0.000052  -0.000052
    20  H    0.411920   0.001341   0.001059  -0.002102   0.000148  -0.000003
              13         14         15         16         17         18
     1  C   -0.032037  -0.033487   0.013196   0.011282  -0.006159  -0.001226
     2  C    0.013196   0.011282  -0.032036  -0.033487   0.404637  -0.046493
     3  C    0.006480  -0.012033  -0.000942   0.004134   0.001925  -0.000053
     4  C   -0.035985  -0.045934   0.389554   0.396689  -0.039526   0.009167
     5  C    0.389555   0.396689  -0.035984  -0.045934   0.004346  -0.001413
     6  C   -0.000942   0.004134   0.006480  -0.012033  -0.050152   0.410434
     7  C   -0.000227  -0.006540  -0.000971   0.003270   0.010483  -0.042163
     8  C   -0.000971   0.003270  -0.000227  -0.006540   0.000159  -0.001558
     9  H    0.000361   0.004676   0.000176   0.001905  -0.000052  -0.000052
    10  H   -0.000009   0.000254   0.000003  -0.000039  -0.000003   0.000148
    11  H   -0.000286   0.000004   0.000045   0.000085   0.000077  -0.000349
    12  H   -0.009723   0.005100   0.000213  -0.000879  -0.004522   0.000077
    13  H    0.613536  -0.024470  -0.012638   0.006804   0.000212   0.000045
    14  H   -0.024470   0.609549   0.006804  -0.009353  -0.000879   0.000085
    15  H   -0.012638   0.006804   0.613535  -0.024470  -0.009723  -0.000286
    16  H    0.006804  -0.009353  -0.024470   0.609550   0.005100   0.000004
    17  H    0.000212  -0.000879  -0.009723   0.005100   0.593274  -0.010967
    18  H    0.000045   0.000085  -0.000286   0.000004  -0.010967   0.598211
    19  H    0.000176   0.001905   0.000361   0.004676  -0.000501   0.006776
    20  H    0.000003  -0.000039  -0.000009   0.000254  -0.000253  -0.008639
              19         20
     1  C    0.003463   0.000065
     2  C   -0.003657   0.009602
     3  C   -0.003747   0.002158
     4  C    0.001215  -0.000943
     5  C   -0.006590   0.000300
     6  C   -0.041537  -0.043769
     7  C    0.414910   0.411920
     8  C   -0.025732   0.001341
     9  H   -0.001545   0.001059
    10  H    0.001059  -0.002102
    11  H   -0.000052   0.000148
    12  H   -0.000052  -0.000003
    13  H    0.000176   0.000003
    14  H    0.001905  -0.000039
    15  H    0.000361  -0.000009
    16  H    0.004676   0.000254
    17  H   -0.000501  -0.000253
    18  H    0.006776  -0.008639
    19  H    0.563251  -0.030255
    20  H   -0.030255   0.543357
 Mulliken charges:
               1
     1  C   -0.091387
     2  C   -0.091388
     3  C   -0.062731
     4  C   -0.153383
     5  C   -0.153384
     6  C   -0.062732
     7  C   -0.290857
     8  C   -0.290857
     9  H    0.115877
    10  H    0.115805
    11  H    0.088252
    12  H    0.102522
    13  H    0.086919
    14  H    0.088984
    15  H    0.086920
    16  H    0.088984
    17  H    0.102522
    18  H    0.088252
    19  H    0.115877
    20  H    0.115805
 Sum of Mulliken charges =  -0.00000
 Mulliken charges with hydrogens summed into heavy atoms:
               1
     1  C    0.011135
     2  C    0.011134
     3  C    0.025520
     4  C    0.022520
     5  C    0.022519
     6  C    0.025520
     7  C   -0.059174
     8  C   -0.059174
 Electronic spatial extent (au):  <R**2>=            911.6408
 Charge=             -0.0000 electrons
 Dipole moment (field-independent basis, Debye):
    X=              0.4405    Y=             -0.0000    Z=              0.1124  Tot=              0.4546
 Quadrupole moment (field-independent basis, Debye-Ang):
   XX=            -47.8927   YY=            -56.1163   ZZ=            -48.4951
   XY=             -0.0000   XZ=              0.4474   YZ=             -0.0000
 Traceless Quadrupole moment (field-independent basis, Debye-Ang):
   XX=              2.9420   YY=             -5.2817   ZZ=              2.3396
   XY=             -0.0000   XZ=              0.4474   YZ=             -0.0000
 Octapole moment (field-independent basis, Debye-Ang**2):
  XXX=             -1.0038  YYY=             -0.0000  ZZZ=              1.2981  XYY=              2.0215
  XXY=              0.0000  XXZ=              2.4363  XZZ=             -0.2412  YZZ=             -0.0000
  YYZ=              2.7978  XYZ=             -0.0000
 Hexadecapole moment (field-independent basis, Debye-Ang**3):
 XXXX=           -533.4427 YYYY=           -561.4372 ZZZZ=           -217.8707 XXXY=             -0.0001
 XXXZ=              3.3119 YYYX=             -0.0003 YYYZ=              0.0000 ZZZX=              1.2246
 ZZZY=             -0.0000 XXYY=           -174.3177 XXZZ=           -131.7574 YYZZ=           -118.4511
 XXYZ=             -0.0000 YYXZ=             -2.9248 ZZXY=             -0.0000
 N-N= 3.682317442540D+02 E-N=-1.459185596926D+03  KE= 3.103512400582D+02
 1\1\GINC-BHC0108\SP\RB3LYP\def2TZVP\C8H12\DHANAWAY\10-Jun-2022\0\\# sp
  B3LYP/Def2TZVP NoSymm\\ts_initalOptXYZ_aligned_AlignedSp\\0,1\C,0,0.6
 54722,-1.092996,0.650832\C,0,0.654729,1.092992,0.650833\C,0,-0.686321,
 -1.455198,0.566787\C,0,1.525842,0.769594,-0.556985\C,0,1.525834,-0.769
 603,-0.556987\C,0,-0.686313,1.455203,0.566786\C,0,-1.495902,1.220775,-
 0.521834\C,0,-1.495911,-1.220768,-0.521832\H,0,-1.084305,-1.117496,-1.
 514941\H,0,-2.550173,-1.458,-0.475884\H,0,-1.17256,-1.723793,1.500563\
 H,0,1.175151,-1.338612,1.569265\H,0,2.526189,-1.189428,-0.436131\H,0,1
 .11563,-1.192976,-1.475672\H,0,2.5262,1.189411,-0.436125\H,0,1.115644,
 1.192973,-1.47567\H,0,1.175159,1.338605,1.569267\H,0,-1.172552,1.7238,
 1.500561\H,0,-1.084295,1.1175,-1.514942\H,0,-2.550163,1.458015,-0.4758
 88\\Version=ES64L-G16RevA.03\HF=-312.0797876\RMSD=3.936e-09\Dipole=0.1
 733036,-0.0000011,0.0442178\Quadrupole=2.1873324,-3.9267818,1.7394495,
 -0.0000179,0.3326631,-0.0000014\PG=C01 [X(C8H12)]\\@


 We're simply so accustomed to the marvels of everyday thought
 that we never wonder about it.
 -- Marvin Minsky in "Why people think computers are smart"
 Job cpu time:       0 days  0 hours 14 minutes 53.5 seconds.
 Elapsed time:       0 days  0 hours  1 minutes 15.0 seconds.
 File lengths (MBytes):  RWF=     60 Int=      0 D2E=      0 Chk=     32 Scr=      1
 Normal termination of Gaussian 16 at Fri Jun 10 22:16:19 2022.
