 Entering Gaussian System, Link 0=g16
 Input=ts_zmat_field_N50.gjf
 Output=ts_zmat_field_N50.out
 Initial command:
 /software/gaussian/g16-a03/l1.exe "/local_scratch/11172217/Gau-16831.inp" -scrdir="/local_scratch/11172217/"
 Entering Link 1 = /software/gaussian/g16-a03/l1.exe PID=     16832.
  
 Copyright (c) 1988,1990,1992,1993,1995,1998,2003,2009,2016,
            Gaussian, Inc.  All Rights Reserved.
  
 This is part of the Gaussian(R) 16 program.  It is based on
 the Gaussian(R) 09 system (copyright 2009, Gaussian, Inc.),
 the Gaussian(R) 03 system (copyright 2003, Gaussian, Inc.),
 the Gaussian(R) 98 system (copyright 1998, Gaussian, Inc.),
 the Gaussian(R) 94 system (copyright 1995, Gaussian, Inc.),
 the Gaussian 92(TM) system (copyright 1992, Gaussian, Inc.),
 the Gaussian 90(TM) system (copyright 1990, Gaussian, Inc.),
 the Gaussian 88(TM) system (copyright 1988, Gaussian, Inc.),
 the Gaussian 86(TM) system (copyright 1986, Carnegie Mellon
 University), and the Gaussian 82(TM) system (copyright 1983,
 Carnegie Mellon University). Gaussian is a federally registered
 trademark of Gaussian, Inc.
  
 This software contains proprietary and confidential information,
 including trade secrets, belonging to Gaussian, Inc.
  
 This software is provided under written license and may be
 used, copied, transmitted, or stored only in accord with that
 written license.
  
 The following legend is applicable only to US Government
 contracts under FAR:
  
                    RESTRICTED RIGHTS LEGEND
  
 Use, reproduction and disclosure by the US Government is
 subject to restrictions as set forth in subparagraphs (a)
 and (c) of the Commercial Computer Software - Restricted
 Rights clause in FAR 52.227-19.
  
 Gaussian, Inc.
 340 Quinnipiac St., Bldg. 40, Wallingford CT 06492
  
  
 ---------------------------------------------------------------
 Warning -- This program may not be used in any manner that
 competes with the business of Gaussian, Inc. or will provide
 assistance to any competitor of Gaussian, Inc.  The licensee
 of this program is prohibited from giving any competitor of
 Gaussian, Inc. access to this program.  By using this program,
 the user acknowledges that Gaussian, Inc. is engaged in the
 business of creating and licensing software in the field of
 computational chemistry and represents and warrants to the
 licensee that it is not a competitor of Gaussian, Inc. and that
 it will not use this program in any manner prohibited above.
 ---------------------------------------------------------------
  

 Cite this work as:
 Gaussian 16, Revision A.03,
 M. J. Frisch, G. W. Trucks, H. B. Schlegel, G. E. Scuseria, 
 M. A. Robb, J. R. Cheeseman, G. Scalmani, V. Barone, 
 G. A. Petersson, H. Nakatsuji, X. Li, M. Caricato, A. V. Marenich, 
 J. Bloino, B. G. Janesko, R. Gomperts, B. Mennucci, H. P. Hratchian, 
 J. V. Ortiz, A. F. Izmaylov, J. L. Sonnenberg, D. Williams-Young, 
 F. Ding, F. Lipparini, F. Egidi, J. Goings, B. Peng, A. Petrone, 
 T. Henderson, D. Ranasinghe, V. G. Zakrzewski, J. Gao, N. Rega, 
 G. Zheng, W. Liang, M. Hada, M. Ehara, K. Toyota, R. Fukuda, 
 J. Hasegawa, M. Ishida, T. Nakajima, Y. Honda, O. Kitao, H. Nakai, 
 T. Vreven, K. Throssell, J. A. Montgomery, Jr., J. E. Peralta, 
 F. Ogliaro, M. J. Bearpark, J. J. Heyd, E. N. Brothers, K. N. Kudin, 
 V. N. Staroverov, T. A. Keith, R. Kobayashi, J. Normand, 
 K. Raghavachari, A. P. Rendell, J. C. Burant, S. S. Iyengar, 
 J. Tomasi, M. Cossi, J. M. Millam, M. Klene, C. Adamo, R. Cammi, 
 J. W. Ochterski, R. L. Martin, K. Morokuma, O. Farkas, 
 J. B. Foresman, and D. J. Fox, Gaussian, Inc., Wallingford CT, 2016.
 
 ******************************************
 Gaussian 16:  ES64L-G16RevA.03 25-Dec-2016
                10-Jun-2022 
 ******************************************
 %nprocshared=12
 Will use up to   12 processors via shared memory.
 %chk=checkpoint.chk
 %mem=12GB
 ----------------------------------------------------------------------
 # Opt=(TS, CalcFC, noeigentest, Z-matrix, MaxStep=10) geom=allcheckpoi
 nt guess=read Field=read NoSymm B3LYP/Def2TZVP freq=noraman pop=none
 ----------------------------------------------------------------------
 1/5=1,8=10,10=4,11=1,18=40,26=3,29=7,38=1/1,3;
 2/12=2,15=1,29=3,40=1/2;
 3/5=44,7=101,11=2,14=-6,25=1,30=1,71=2,74=-5,116=-2,140=1/1,2,3;
 4/5=1/1;
 5/5=2,38=6/2;
 8/6=4,10=90,11=11/1;
 11/6=1,8=1,9=11,15=111,16=1,31=1/1,2,10;
 10/6=1,13=1,31=1/2;
 7/10=1,18=20,25=1,30=1/1,2,3,16;
 1/5=1,8=10,10=4,11=1,18=40,26=3/3(2);
 2/15=1,29=3/2;
 99//99;
 2/15=1,29=3/2;
 3/5=44,7=101,11=2,14=-2,25=1,30=1,71=1,74=-5/1,2,3;
 4/5=5,16=3,69=1/1;
 5/5=2,38=5/2;
 7/30=1/1,2,3,16;
 1/5=1,8=10,11=1,18=40,26=3/3(-5);
 2/15=1,29=3/2;
 99/9=1/99;
 Structure from the checkpoint file:  "checkpoint.chk"
 -----------------
 ts_zmat_initalOpt
 -----------------
 Charge =  0 Multiplicity = 1
 Z-Matrix found in chk file.
 C
 C,1,R2
 S,1,R3,2,A3
 C,1,R4,2,A4,3,D4,0
 O,3,R5,1,A5,2,D5,0
 H,2,R6,1,A6,3,D6,0
 C,2,R7,1,A7,6,D7,0
 C,4,R8,1,A8,2,D8,0
 H,4,R9,1,A9,8,D9,0
 H,7,R10,2,A10,1,D10,0
 C,7,R11,2,A11,10,D11,0
 H,8,R12,4,A12,1,D12,0
 H,11,R13,7,A13,2,D13,0
 C,1,R14,2,A14,3,D14,0
 C,14,R15,1,A15,2,D15,0
 H,14,R16,1,A16,15,D16,0
 H,14,R17,1,A17,15,D17,0
 C,15,R18,14,A18,1,D18,0
 H,15,R19,14,A19,18,D19,0
 H,18,R20,15,A20,14,D20,0
 H,18,R21,15,A21,20,D21,0
      Variables:
 R2=1.39299017
 R3=1.78196252
 R4=1.39648961
 R5=1.53218788
 R6=1.08182585
 R7=1.39014939
 R8=1.38772964
 R9=1.08421183
 R10=1.08322512
 R11=1.39092588
 R12=1.08321779
 R13=1.0827792
 R14=3.85192904
 R15=1.38524757
 R16=1.08026208
 R17=1.08051589
 R18=1.37430999
 R19=1.08430779
 R20=1.08203513
 R21=1.08198959
 A3=121.29637439
 A4=120.13573405
 A5=106.12551603
 A6=119.1269877
 A7=119.61706421
 A8=119.81836699
 A9=120.01895611
 A10=119.48048415
 A11=120.47640606
 A12=119.61411
 A13=120.1783061
 A14=83.39959765
 A15=85.44406809
 A16=135.80033052
 A17=63.37395869
 A18=119.43337205
 A19=118.60495142
 A20=121.37951321
 A21=120.81531497
 D4=178.54717864
 D5=-3.72421092
 D6=-0.02994524
 D7=-178.94066784
 D8=0.14027485
 D9=180.04321114
 D10=179.86917516
 D11=-179.51743891
 D12=-179.87801047
 D13=179.74050018
 D14=-32.82746144
 D15=-156.97386057
 D16=-131.53394018
 D17=127.36838965
 D18=26.8691636
 D19=-160.73469543
 D20=-168.6247094
 D21=-165.24927682
 Recover connectivity data from disk.

 GradGradGradGradGradGradGradGradGradGradGradGradGradGradGradGradGradGrad
 Berny optimization.
 Initialization pass.
                       ----------------------------
                       !    Initial Parameters    !
                       ! (Angstroms and Degrees)  !
 ----------------------                            ----------------------
 !      Name          Value   Derivative information (Atomic Units)     !
 ------------------------------------------------------------------------
 !       R2          1.393    calculate D2E/DX2 analytically            !
 !       R3          1.782    calculate D2E/DX2 analytically            !
 !       R4          1.3965   calculate D2E/DX2 analytically            !
 !       R5          1.5322   calculate D2E/DX2 analytically            !
 !       R6          1.0818   calculate D2E/DX2 analytically            !
 !       R7          1.3901   calculate D2E/DX2 analytically            !
 !       R8          1.3877   calculate D2E/DX2 analytically            !
 !       R9          1.0842   calculate D2E/DX2 analytically            !
 !       R10         1.0832   calculate D2E/DX2 analytically            !
 !       R11         1.3909   calculate D2E/DX2 analytically            !
 !       R12         1.0832   calculate D2E/DX2 analytically            !
 !       R13         1.0828   calculate D2E/DX2 analytically            !
 !       R14         3.8519   calculate D2E/DX2 analytically            !
 !       R15         1.3852   calculate D2E/DX2 analytically            !
 !       R16         1.0803   calculate D2E/DX2 analytically            !
 !       R17         1.0805   calculate D2E/DX2 analytically            !
 !       R18         1.3743   calculate D2E/DX2 analytically            !
 !       R19         1.0843   calculate D2E/DX2 analytically            !
 !       R20         1.082    calculate D2E/DX2 analytically            !
 !       R21         1.082    calculate D2E/DX2 analytically            !
 !       A3        121.2964   calculate D2E/DX2 analytically            !
 !       A4        120.1357   calculate D2E/DX2 analytically            !
 !       A5        106.1255   calculate D2E/DX2 analytically            !
 !       A6        119.127    calculate D2E/DX2 analytically            !
 !       A7        119.6171   calculate D2E/DX2 analytically            !
 !       A8        119.8184   calculate D2E/DX2 analytically            !
 !       A9        120.019    calculate D2E/DX2 analytically            !
 !       A10       119.4805   calculate D2E/DX2 analytically            !
 !       A11       120.4764   calculate D2E/DX2 analytically            !
 !       A12       119.6141   calculate D2E/DX2 analytically            !
 !       A13       120.1783   calculate D2E/DX2 analytically            !
 !       A14        83.3996   calculate D2E/DX2 analytically            !
 !       A15        85.4441   calculate D2E/DX2 analytically            !
 !       A16       135.8003   calculate D2E/DX2 analytically            !
 !       A17        63.374    calculate D2E/DX2 analytically            !
 !       A18       119.4334   calculate D2E/DX2 analytically            !
 !       A19       118.605    calculate D2E/DX2 analytically            !
 !       A20       121.3795   calculate D2E/DX2 analytically            !
 !       A21       120.8153   calculate D2E/DX2 analytically            !
 !       D4        178.5472   calculate D2E/DX2 analytically            !
 !       D5         -3.7242   calculate D2E/DX2 analytically            !
 !       D6         -0.0299   calculate D2E/DX2 analytically            !
 !       D7       -178.9407   calculate D2E/DX2 analytically            !
 !       D8          0.1403   calculate D2E/DX2 analytically            !
 !       D9        180.0432   calculate D2E/DX2 analytically            !
 !       D10       179.8692   calculate D2E/DX2 analytically            !
 !       D11      -179.5174   calculate D2E/DX2 analytically            !
 !       D12      -179.878    calculate D2E/DX2 analytically            !
 !       D13       179.7405   calculate D2E/DX2 analytically            !
 !       D14       -32.8275   calculate D2E/DX2 analytically            !
 !       D15      -156.9739   calculate D2E/DX2 analytically            !
 !       D16      -131.5339   calculate D2E/DX2 analytically            !
 !       D17       127.3684   calculate D2E/DX2 analytically            !
 !       D18        26.8692   calculate D2E/DX2 analytically            !
 !       D19      -160.7347   calculate D2E/DX2 analytically            !
 !       D20      -168.6247   calculate D2E/DX2 analytically            !
 !       D21      -165.2493   calculate D2E/DX2 analytically            !
 ------------------------------------------------------------------------
 Trust Radius=1.00D-01 FncErr=1.00D-07 GrdErr=1.00D-06 EigMax=2.50D+02 EigMin=1.00D-04
 Number of steps in this run=     67 maximum allowed number of steps=    114.
 Search for a saddle point of order  1.
 GradGradGradGradGradGradGradGradGradGradGradGradGradGradGradGradGradGrad

 ---------------------------------------------------------------------------------------------------
                            Z-MATRIX (ANGSTROMS AND DEGREES)
   CD    Cent   Atom    N1       Length/X        N2       Alpha/Y        N3        Beta/Z          J
 ---------------------------------------------------------------------------------------------------
      1      1  C 
      2      2  C        1   1.392990(     1)
      3      3  S        1   1.781963(     2)      2  121.296(    21)
      4      4  C        1   1.396490(     3)      2  120.136(    22)      3  178.547(    40)      0
      5      5  O        3   1.532188(     4)      1  106.126(    23)      2   -3.724(    41)      0
      6      6  H        2   1.081826(     5)      1  119.127(    24)      3   -0.030(    42)      0
      7      7  C        2   1.390149(     6)      1  119.617(    25)      6 -178.941(    43)      0
      8      8  C        4   1.387730(     7)      1  119.818(    26)      2    0.140(    44)      0
      9      9  H        4   1.084212(     8)      1  120.019(    27)      8  180.043(    45)      0
     10     10  H        7   1.083225(     9)      2  119.480(    28)      1  179.869(    46)      0
     11     11  C        7   1.390926(    10)      2  120.476(    29)     10 -179.517(    47)      0
     12     12  H        8   1.083218(    11)      4  119.614(    30)      1 -179.878(    48)      0
     13     13  H       11   1.082779(    12)      7  120.178(    31)      2  179.741(    49)      0
     14     14  C        1   3.851929(    13)      2   83.400(    32)      3  -32.827(    50)      0
     15     15  C       14   1.385248(    14)      1   85.444(    33)      2 -156.974(    51)      0
     16     16  H       14   1.080262(    15)      1  135.800(    34)     15 -131.534(    52)      0
     17     17  H       14   1.080516(    16)      1   63.374(    35)     15  127.368(    53)      0
     18     18  C       15   1.374310(    17)     14  119.433(    36)      1   26.869(    54)      0
     19     19  H       15   1.084308(    18)     14  118.605(    37)     18 -160.735(    55)      0
     20     20  H       18   1.082035(    19)     15  121.380(    38)     14 -168.625(    56)      0
     21     21  H       18   1.081990(    20)     15  120.815(    39)     20 -165.249(    57)      0
 ---------------------------------------------------------------------------------------------------
                         Z-Matrix orientation:                         
 ---------------------------------------------------------------------
 Center     Atomic      Atomic             Coordinates (Angstroms)
 Number     Number       Type             X           Y           Z
 ---------------------------------------------------------------------
      1          6           0        0.000000    0.000000    0.000000
      2          6           0        0.000000    0.000000    1.392990
      3         16           0        1.522672    0.000000   -0.925667
      4          6           0       -1.207350   -0.030621   -0.701108
      5          8           0        2.649293    0.095606    0.108347
      6          1           0        0.945021   -0.000494    1.919566
      7          6           0       -1.208328   -0.021711    2.080003
      8          6           0       -2.408289   -0.058130   -0.006284
      9          1           0       -1.205067   -0.033570   -1.785313
     10          1           0       -1.205709   -0.023818    3.163223
     11          6           0       -2.413700   -0.050730    1.386526
     12          1           0       -3.342803   -0.083846   -0.553444
     13          1           0       -3.351971   -0.071794    1.926541
     14          6           0        3.215349    2.074333    0.442757
     15          6           0        2.953439    2.548142   -0.832320
     16          1           0        4.225882    1.876376    0.769256
     17          1           0        2.471319    2.162212    1.221352
     18          6           0        1.657427    2.578404   -1.288569
     19          1           0        3.766105    2.586008   -1.549162
     20          1           0        1.430895    2.766763   -2.329724
     21          1           0        0.828100    2.651655   -0.597517
 ---------------------------------------------------------------------
                    Distance matrix (angstroms):
                    1          2          3          4          5
     1  C    0.000000
     2  C    1.392990   0.000000
     3  S    1.781963   2.773933   0.000000
     4  C    1.396490   2.417411   2.739413   0.000000
     5  O    2.653230   2.945879   1.532188   3.942695   0.000000
     6  H    2.139579   1.081826   2.903279   3.391392   2.488833
     7  C    2.405606   1.390149   4.061144   2.781125   4.333870
     8  C    2.408999   2.785894   4.037463   1.387730   5.061216
     9  H    2.154218   3.399254   2.860189   1.084212   4.296362
    10  H    3.385304   2.141968   4.915654   3.864337   4.920119
    11  C    2.784058   2.414242   4.565505   2.411203   5.223893
    12  H    3.389345   3.869104   4.880413   2.141214   6.031201
    13  H    3.866836   3.394928   5.648220   3.391995   6.272879
    14  C    3.851929   3.942622   3.006758   5.029863   2.085092
    15  C    3.988557   4.490861   2.923839   4.896876   2.644294
    16  H    4.687283   4.665609   3.701472   5.942946   2.468517
    17  H    3.503467   3.288166   3.191361   4.694355   2.354000
    18  C    3.325002   4.072590   2.607301   3.919064   3.016530
    19  H    4.823991   5.433898   3.479824   5.683414   3.193228
    20  H    3.889737   4.853971   3.103993   4.175893   3.816250
    21  H    2.841487   3.417476   2.760686   3.368737   3.216889
                    6          7          8          9         10
     6  H    0.000000
     7  C    2.159422   0.000000
     8  C    3.867416   2.407037   0.000000
     9  H    4.283702   3.865336   2.147858   0.000000
    10  H    2.484526   1.083225   3.390155   4.948546   0.000000
    11  C    3.401127   1.390926   1.392840   3.394356   2.148632
    12  H    4.950571   3.390411   1.083218   2.467782   4.287701
    13  H    4.297589   2.149712   2.150937   4.288183   2.477524
    14  C    3.411782   5.161676   6.031114   5.380300   5.599011
    15  C    4.254663   5.692634   6.018565   4.986643   6.314891
    16  H    3.950937   5.903510   6.953848   6.298327   6.232495
    17  H    2.737587   4.364242   5.499781   5.232333   4.697885
    18  C    4.177363   5.130344   5.012546   3.906793   5.898097
    19  H    5.165325   6.687005   6.891668   5.624101   7.330532
    20  H    5.094138   5.846946   5.302616   3.884140   6.701603
    21  H    3.658315   4.296864   4.262242   3.571423   5.043580
                   11         12         13         14         15
    11  C    0.000000
    12  H    2.151234   0.000000
    13  H    1.082779   2.480030   0.000000
    14  C    6.090385   6.975637   7.066623   0.000000
    15  C    6.362672   6.829920   7.364345   1.385248   0.000000
    16  H    6.941096   7.929502   7.909395   1.080262   2.153003
    17  H    5.365427   6.480640   6.276844   1.080516   2.144516
    18  C    5.535571   5.712292   6.515715   2.383001   1.374310
    19  H    7.332165   7.658731   8.355323   2.129057   1.084308
    20  H    6.043980   5.836895   7.003499   3.369033   2.146662
    21  H    4.663537   4.988120   5.591157   2.667289   2.140775
                   16         17         18         19         20
    16  H    0.000000
    17  H    1.834281   0.000000
    18  C    3.365182   2.671206   0.000000
    19  H    2.467800   3.087366   2.124733   0.000000
    20  H    4.267132   3.749414   1.082035   2.468837   0.000000
    21  H    3.743535   2.499602   1.081990   3.088983   1.837703
                   21
    21  H    0.000000
 Symmetry turned off by external request.
 Stoichiometry    C9H10OS
 Framework group  C1[X(C9H10OS)]
 Deg. of freedom    57
 Full point group                 C1      NOp   1
 Rotational constants (GHZ):           2.0071654           0.5915805           0.5628705
 Standard basis: def2TZVP (5D, 7F)
 The following finite field(s) will be applied:
 An electric field of             -0.0048  0.0002  0.0013
   407 basis functions,   659 primitive gaussians,   462 cartesian basis functions
    44 alpha electrons       44 beta electrons
       nuclear repulsion energy       669.8841242898 Hartrees.
 NAtoms=   21 NActive=   21 NUniq=   21 SFac= 1.00D+00 NAtFMM=   60 NAOKFM=F Big=F
 Integral buffers will be    131072 words long.
 Raffenetti 2 integral format.
 Two-electron integral symmetry is turned off.
 One-electron integrals computed using PRISM.
   1 Symmetry operations used in ECPInt.
 ECPInt:  NShTT=   13366 NPrTT=   41614 LenC2=   12669 LenP2D=   29825.
 LDataN:  DoStor=T MaxTD1= 6 Len=  172
 NBasis=   407 RedAO= T EigKep=  8.38D-06  NBF=   407
 NBsUse=   407 1.00D-06 EigRej= -1.00D+00 NBFU=   407
 The nuclear repulsion energy is now       669.4184349218 hartrees.
 Initial guess from the checkpoint file:  "checkpoint.chk"
 B after Tr=     0.000000   -0.000000    0.000000
         Rot=    1.000000    0.000000    0.000000    0.000000 Ang=   0.00 deg.
 Requested convergence on RMS density matrix=1.00D-08 within 128 cycles.
 Requested convergence on MAX density matrix=1.00D-06.
 Requested convergence on             energy=1.00D-06.
 No special actions if energy rises.
 SCF Done:  E(RB3LYP) =  -822.500986388     A.U. after   12 cycles
            NFock= 12  Conv=0.24D-08     -V/T= 2.0035
 DoSCS=F DFT=T ScalE2(SS,OS)=  1.000000  1.000000
 Range of M.O.s used for correlation:     1   407
 NBasis=   407 NAE=    44 NBE=    44 NFC=     0 NFV=     0
 NROrb=    407 NOA=    44 NOB=    44 NVA=   363 NVB=   363

 **** Warning!!: The largest alpha MO coefficient is  0.65342913D+02

   1 Symmetry operations used in ECPInt.
 ECPInt:  NShTT=   13366 NPrTT=   41614 LenC2=   12669 LenP2D=   29825.
 LDataN:  DoStor=T MaxTD1= 7 Len=  274
 Symmetrizing basis deriv contribution to polar:
 IMax=3 JMax=2 DiffMx= 0.00D+00
 G2DrvN: will do    22 centers at a time, making    1 passes.
 Calling FoFCou, ICntrl=  3107 FMM=F I1Cent=   0 AccDes= 0.00D+00.
 End of G2Drv F.D. properties file   721 does not exist.
 End of G2Drv F.D. properties file   722 does not exist.
 End of G2Drv F.D. properties file   788 does not exist.
          IDoAtm=111111111111111111111
          Differentiating once with respect to nuclear coordinates.
 CalDSu exits because no D1Ps are significant.
          There are    66 degrees of freedom in the 1st order CPHF.  IDoFFX=6 NUNeed=     0.
     60 vectors produced by pass  0 Test12= 2.42D-14 1.52D-09 XBig12= 1.68D-01 1.34D-01.
 AX will form    60 AO Fock derivatives at one time.
     60 vectors produced by pass  1 Test12= 2.42D-14 1.52D-09 XBig12= 8.59D-02 8.06D-02.
     60 vectors produced by pass  2 Test12= 2.42D-14 1.52D-09 XBig12= 1.12D-03 4.88D-03.
     60 vectors produced by pass  3 Test12= 2.42D-14 1.52D-09 XBig12= 6.66D-06 2.60D-04.
     60 vectors produced by pass  4 Test12= 2.42D-14 1.52D-09 XBig12= 1.83D-08 9.98D-06.
     59 vectors produced by pass  5 Test12= 2.42D-14 1.52D-09 XBig12= 3.76D-11 5.51D-07.
     22 vectors produced by pass  6 Test12= 2.42D-14 1.52D-09 XBig12= 5.40D-14 2.68D-08.
 InvSVY:  IOpt=1 It=  1 EMax= 7.22D-16
 Solved reduced A of dimension   381 with    66 vectors.
 End of Minotr F.D. properties file   721 does not exist.
 End of Minotr F.D. properties file   722 does not exist.
 End of Minotr F.D. properties file   788 does not exist.
   1 Symmetry operations used in ECPInt.
 ECPInt:  NShTT=   13366 NPrTT=   41614 LenC2=   12669 LenP2D=   29825.
 LDataN:  DoStor=T MaxTD1= 8 Len=  415
 Calling FoFJK, ICntrl=    100147 FMM=F ISym2X=0 I1Cent= 0 IOpClX= 0 NMat=1 NMatS=1 NMatT=0.
 -------------------------------------------------------------------
 Center     Atomic                   Forces (Hartrees/Bohr)
 Number     Number              X              Y              Z
 -------------------------------------------------------------------
      1        6           0.001389436    0.000681058   -0.000713389
      2        6          -0.000756443   -0.000147440    0.000598640
      3       16           0.000690518   -0.001177375   -0.000013160
      4        6          -0.000858401   -0.000033746    0.000236512
      5        8          -0.000960276    0.000626851    0.000265417
      6        1           0.000144536   -0.000004770   -0.000133104
      7        6           0.000206171    0.000024592   -0.000114187
      8        6           0.000367678    0.000022663   -0.000090971
      9        1           0.000191210   -0.000015776    0.000018972
     10        1           0.000104555   -0.000017993    0.000158185
     11        6          -0.000198345    0.000023602    0.000101004
     12        1          -0.000232963   -0.000018554   -0.000220111
     13        1          -0.000307189   -0.000026600    0.000223484
     14        6           0.000206374   -0.000793030    0.000398188
     15        6          -0.000688441   -0.000118616   -0.001407345
     16        1           0.000012935   -0.000072818   -0.000054772
     17        1          -0.000095845    0.000050121    0.000058209
     18        6           0.000745804    0.000997542    0.000431967
     19        1          -0.000040820    0.000114305    0.000172159
     20        1           0.000140165   -0.000086292   -0.000082996
     21        1          -0.000060658   -0.000027722    0.000167298
 -------------------------------------------------------------------
 Cartesian Forces:  Max     0.001407345 RMS     0.000465979
 -----------------------------------------------------------------------------------------------
                       Internal Coordinate Forces (Hartree/Bohr or radian)
  Cent   Atom   N1       Length/X         N2         Alpha/Y        N3         Beta/Z          J
 -----------------------------------------------------------------------------------------------
      1  C 
      2  C        1   0.000834(     1)
      3  S        1  -0.000362(     2)      2  -0.002695(    21)
      4  C        1   0.000489(     3)      2   0.000488(    22)      3  -0.000093(    40)     0
      5  O        3  -0.000488(     4)      1  -0.002480(    23)      2  -0.001789(    41)     0
      6  H        2   0.000061(     5)      1  -0.000382(    24)      3  -0.000010(    42)     0
      7  C        2   0.000351(     6)      1   0.002286(    25)      6  -0.000002(    43)     0
      8  C        4  -0.000272(     7)      1   0.000677(    26)      2   0.000039(    44)     0
      9  H        4  -0.000019(     8)      1  -0.000391(    27)      8   0.000036(    45)     0
     10  H        7   0.000158(     9)      2  -0.000213(    28)      1  -0.000048(    46)     0
     11  C        7   0.000276(    10)      2   0.001484(    29)     10  -0.000013(    47)     0
     12  H        8   0.000313(    11)      4  -0.000148(    30)      1   0.000021(    48)     0
     13  H       11   0.000378(    12)      7  -0.000082(    31)      2  -0.000035(    49)     0
     14  C        1   0.000181(    13)      2   0.000966(    32)      3   0.003178(    50)     0
     15  C       14   0.000944(    14)      1   0.002486(    33)      2   0.001433(    51)     0
     16  H       14   0.000009(    15)      1  -0.000120(    34)     15   0.000100(    52)     0
     17  H       14   0.000112(    16)      1   0.000009(    35)     15  -0.000092(    53)     0
     18  C       15  -0.000930(    17)     14   0.000471(    36)      1   0.001754(    54)     0
     19  H       15  -0.000140(    18)     14  -0.000104(    37)     18  -0.000267(    55)     0
     20  H       18   0.000035(    19)     15  -0.000299(    38)     14   0.000116(    56)     0
     21  H       18   0.000151(    20)     15  -0.000182(    39)     20  -0.000069(    57)     0
 -----------------------------------------------------------------------------------------------
 Internal  Forces:  Max     0.003178334 RMS     0.000951899

 GradGradGradGradGradGradGradGradGradGradGradGradGradGradGradGradGradGrad
 Berny optimization.
 Search for a saddle point.
 Step number   1 out of a maximum of   67
 All quantities printed in internal units (Hartrees-Bohrs-Radians)
 Swapping is turned off.
 Second derivative matrix not updated -- analytic derivatives used.
 ITU=  0
     Eigenvalues ---   -0.14291   0.00859   0.01264   0.02825   0.03161
     Eigenvalues ---    0.03388   0.03664   0.03776   0.04230   0.05787
     Eigenvalues ---    0.06203   0.06843   0.08954   0.10872   0.11477
     Eigenvalues ---    0.11908   0.13768   0.15909   0.16195   0.16819
     Eigenvalues ---    0.18137   0.19359   0.20988   0.22427   0.22834
     Eigenvalues ---    0.23055   0.23278   0.23669   0.28828   0.30219
     Eigenvalues ---    0.33687   0.34239   0.34822   0.35261   0.35283
     Eigenvalues ---    0.35535   0.35661   0.36011   0.36137   0.36607
     Eigenvalues ---    0.36734   0.38186   0.39491   0.41866   0.42579
     Eigenvalues ---    0.44645   0.47086   0.48564   0.49765   0.52838
     Eigenvalues ---    0.55736   0.57957   1.41473   2.44755   2.68684
     Eigenvalues ---    3.51404  24.02177
 Eigenvectors required to have negative eigenvalues:
                          A15       D5        D15       D17       R5
   1                    0.46144  -0.35068   0.34130  -0.29508   0.26451
                          D14       D18       R15       A17       D21
   1                    0.25469   0.24275   0.23820   0.23735  -0.20962
 RFO step:  Lambda0=1.007884839D-04 Lambda=-1.45216884D-04.
 Linear search not attempted -- option 19 set.
 Variable       Old X    -DE/DX   Delta X   Delta X   Delta X     New X
                                 (Linear)    (Quad)   (Total)
    R2        2.63237   0.00083   0.00000   0.00133   0.00133   2.63370
    R3        3.36742  -0.00036   0.00000   0.00042   0.00042   3.36784
    R4        2.63898   0.00049   0.00000   0.00093   0.00093   2.63992
    R5        2.89542  -0.00049   0.00000  -0.00694  -0.00694   2.88847
    R6        2.04435   0.00006   0.00000   0.00020   0.00020   2.04456
    R7        2.62700   0.00035   0.00000  -0.00041  -0.00041   2.62659
    R8        2.62243  -0.00027   0.00000  -0.00014  -0.00014   2.62229
    R9        2.04886  -0.00002   0.00000   0.00005   0.00005   2.04892
   R10        2.04700   0.00016   0.00000   0.00047   0.00047   2.04747
   R11        2.62847   0.00028   0.00000   0.00079   0.00079   2.62926
   R12        2.04698   0.00031   0.00000   0.00089   0.00089   2.04788
   R13        2.04616   0.00038   0.00000   0.00098   0.00098   2.04713
   R14        7.27909   0.00018   0.00000   0.07567   0.07567   7.35476
   R15        2.61774   0.00094   0.00000  -0.00341  -0.00341   2.61433
   R16        2.04140   0.00001   0.00000  -0.00003  -0.00003   2.04136
   R17        2.04188   0.00011   0.00000   0.00003   0.00003   2.04190
   R18        2.59707  -0.00093   0.00000   0.00199   0.00199   2.59906
   R19        2.04904  -0.00014   0.00000  -0.00042  -0.00042   2.04863
   R20        2.04475   0.00004   0.00000  -0.00000  -0.00000   2.04475
   R21        2.04466   0.00015   0.00000   0.00054   0.00054   2.04520
    A3        2.11702  -0.00270   0.00000  -0.00241  -0.00241   2.11461
    A4        2.09676   0.00049   0.00000  -0.00207  -0.00207   2.09470
    A5        1.85224  -0.00248   0.00000  -0.00202  -0.00202   1.85022
    A6        2.07916  -0.00038   0.00000  -0.00245  -0.00245   2.07670
    A7        2.08771   0.00229   0.00000   0.00119   0.00119   2.08890
    A8        2.09123   0.00068   0.00000   0.00109   0.00109   2.09231
    A9        2.09473  -0.00039   0.00000  -0.00185  -0.00185   2.09288
   A10        2.08533  -0.00021   0.00000  -0.00111  -0.00111   2.08422
   A11        2.10271   0.00148   0.00000   0.00044   0.00044   2.10315
   A12        2.08766  -0.00015   0.00000  -0.00097  -0.00097   2.08669
   A13        2.09751  -0.00008   0.00000   0.00027   0.00027   2.09777
   A14        1.45560   0.00097   0.00000  -0.00599  -0.00599   1.44961
   A15        1.49128   0.00249   0.00000  -0.01387  -0.01387   1.47741
   A16        2.37016  -0.00012   0.00000  -0.00745  -0.00745   2.36271
   A17        1.10608   0.00001   0.00000   0.00817   0.00817   1.11426
   A18        2.08451   0.00047   0.00000   0.00073   0.00073   2.08523
   A19        2.07005  -0.00010   0.00000   0.00082   0.00082   2.07086
   A20        2.11847  -0.00030   0.00000  -0.00105  -0.00105   2.11742
   A21        2.10863  -0.00018   0.00000  -0.00118  -0.00118   2.10744
    D4        3.11624  -0.00009   0.00000   0.00318   0.00318   3.11941
    D5       -0.06500  -0.00179   0.00000   0.03897   0.03897  -0.02603
    D6       -0.00052  -0.00001   0.00000  -0.00409  -0.00409  -0.00461
    D7       -3.12310  -0.00000   0.00000   0.00206   0.00206  -3.12104
    D8        0.00245   0.00004   0.00000  -0.00002  -0.00002   0.00243
    D9        3.14235   0.00004   0.00000   0.00162   0.00162   3.14397
   D10        3.13931  -0.00005   0.00000  -0.00133  -0.00133   3.13798
   D11       -3.13317  -0.00001   0.00000  -0.00022  -0.00022  -3.13339
   D12       -3.13946   0.00002   0.00000   0.00082   0.00082  -3.13865
   D13        3.13706  -0.00003   0.00000  -0.00049  -0.00049   3.13657
   D14       -0.57295   0.00318   0.00000   0.02427   0.02427  -0.54867
   D15       -2.73971   0.00143   0.00000   0.01241   0.01241  -2.72730
   D16       -2.29570   0.00010   0.00000   0.02152   0.02152  -2.27418
   D17        2.22300  -0.00009   0.00000   0.00788   0.00788   2.23088
   D18        0.46896   0.00175   0.00000   0.01390   0.01390   0.48285
   D19       -2.80535  -0.00027   0.00000  -0.00850  -0.00850  -2.81385
   D20       -2.94306   0.00012   0.00000  -0.00848  -0.00848  -2.95153
   D21       -2.88414  -0.00007   0.00000   0.00435   0.00435  -2.87980
         Item               Value     Threshold  Converged?
 Maximum Force            0.003178     0.000450     NO 
 RMS     Force            0.000952     0.000300     NO 
 Maximum Displacement     0.075667     0.001800     NO 
 RMS     Displacement     0.012813     0.001200     NO 
 Predicted change in Energy=-2.280696D-05
 GradGradGradGradGradGradGradGradGradGradGradGradGradGradGradGradGradGrad

 ---------------------------------------------------------------------------------------------------
                            Z-MATRIX (ANGSTROMS AND DEGREES)
   CD    Cent   Atom    N1       Length/X        N2       Alpha/Y        N3        Beta/Z          J
 ---------------------------------------------------------------------------------------------------
      1      1  C 
      2      2  C        1   1.393695(     1)
      3      3  S        1   1.782186(     2)      2  121.158(    21)
      4      4  C        1   1.396983(     3)      2  120.017(    22)      3  178.729(    40)      0
      5      5  O        3   1.528515(     4)      1  106.010(    23)      2   -1.491(    41)      0
      6      6  H        2   1.081933(     5)      1  118.986(    24)      3   -0.264(    42)      0
      7      7  C        2   1.389930(     6)      1  119.685(    25)      6 -178.823(    43)      0
      8      8  C        4   1.387656(     7)      1  119.881(    26)      2    0.139(    44)      0
      9      9  H        4   1.084240(     8)      1  119.913(    27)      8  180.136(    45)      0
     10     10  H        7   1.083473(     9)      2  119.417(    28)      1  179.793(    46)      0
     11     11  C        7   1.391344(    10)      2  120.501(    29)     10 -179.530(    47)      0
     12     12  H        8   1.083691(    11)      4  119.558(    30)      1 -179.831(    48)      0
     13     13  H       11   1.083296(    12)      7  120.194(    31)      2  179.712(    49)      0
     14     14  C        1   3.891970(    13)      2   83.056(    32)      3  -31.437(    50)      0
     15     15  C       14   1.383444(    14)      1   84.649(    33)      2 -156.263(    51)      0
     16     16  H       14   1.080244(    15)      1  135.373(    34)     15 -130.301(    52)      0
     17     17  H       14   1.080529(    16)      1   63.842(    35)     15  127.820(    53)      0
     18     18  C       15   1.375363(    17)     14  119.475(    36)      1   27.665(    54)      0
     19     19  H       15   1.084086(    18)     14  118.652(    37)     18 -161.222(    55)      0
     20     20  H       18   1.082033(    19)     15  121.319(    38)     14 -169.110(    56)      0
     21     21  H       18   1.082273(    20)     15  120.747(    39)     20 -165.000(    57)      0
 ---------------------------------------------------------------------------------------------------
                         Z-Matrix orientation:                         
 ---------------------------------------------------------------------
 Center     Atomic      Atomic             Coordinates (Angstroms)
 Number     Number       Type             X           Y           Z
 ---------------------------------------------------------------------
      1          6           0        0.000000    0.000000    0.000000
      2          6           0        0.000000    0.000000    1.393695
      3         16           0        1.525093    0.000000   -0.922106
      4          6           0       -1.209314   -0.026827   -0.698858
      5          8           0        2.645768    0.038233    0.116634
      6          1           0        0.946395   -0.004364    1.918001
      7          6           0       -1.207361   -0.019246    2.082038
      8          6           0       -2.409590   -0.050526   -0.002894
      9          1           0       -1.207246   -0.031301   -1.783087
     10          1           0       -1.202239   -0.022578    3.165494
     11          6           0       -2.414312   -0.043987    1.390306
     12          1           0       -3.344574   -0.074059   -0.550284
     13          1           0       -3.352330   -0.063617    1.931848
     14          6           0        3.296338    2.014994    0.470513
     15          6           0        3.027949    2.500789   -0.796724
     16          1           0        4.304535    1.778791    0.778203
     17          1           0        2.564007    2.108730    1.259466
     18          6           0        1.725324    2.572210   -1.232258
     19          1           0        3.830625    2.524782   -1.524995
     20          1           0        1.489017    2.779206   -2.267683
     21          1           0        0.910120    2.664049   -0.526337
 ---------------------------------------------------------------------
                    Distance matrix (angstroms):
                    1          2          3          4          5
     1  C    0.000000
     2  C    1.393695   0.000000
     3  S    1.782186   2.772877   0.000000
     4  C    1.396983   2.417010   2.743636   0.000000
     5  O    2.648614   2.938101   1.528515   3.940929   0.000000
     6  H    2.138787   1.081933   2.898469   3.390507   2.476814
     7  C    2.406859   1.389930   4.060980   2.780907   4.325820
     8  C    2.410121   2.785523   4.040944   1.387656   5.057550
     9  H    2.153561   3.398584   2.864951   1.084240   4.296452
    10  H    3.386184   2.141298   4.913993   3.864361   4.909827
    11  C    2.786358   2.414715   4.568161   2.411829   5.218564
    12  H    3.390350   3.869201   4.884403   2.140944   6.028399
    13  H    3.869651   3.395847   5.651403   3.393300   6.267580
    14  C    3.891970   3.972193   3.022731   5.083047   2.110938
    15  C    4.007143   4.496705   2.920316   4.934858   2.654142
    16  H    4.722152   4.698080   3.712203   5.987028   2.493737
    17  H    3.550651   3.322482   3.207077   4.757476   2.366370
    18  C    3.333386   4.060620   2.598567   3.956211   3.014593
    19  H    4.834648   5.437551   3.471812   5.709132   3.206518
    20  H    3.883754   4.831858   3.088020   4.197145   3.812608
    21  H    2.864002   3.407638   2.762604   3.429661   3.212600
                    6          7          8          9         10
     6  H    0.000000
     7  C    2.160045   0.000000
     8  C    3.867118   2.406922   0.000000
     9  H    4.282167   3.865144   2.148276   0.000000
    10  H    2.484592   1.083473   3.390746   4.948592   0.000000
    11  C    3.402115   1.391344   1.393223   3.395231   2.149622
    12  H    4.950728   3.391137   1.083691   2.467752   4.289436
    13  H    4.299156   2.150679   2.152245   4.289892   2.479206
    14  C    3.419834   5.197928   6.086716   5.435836   5.625995
    15  C    4.240093   5.707512   6.058565   5.032025   6.321474
    16  H    3.969369   5.942552   7.002570   6.341638   6.266470
    17  H    2.741441   4.407734   5.567100   5.297094   4.728638
    18  C    4.143621   5.128434   5.048524   3.960006   5.885895
    19  H    5.154569   6.698064   6.920208   5.655114   7.336173
    20  H    5.055953   5.832827   5.323137   3.924745   6.679241
    21  H    3.618913   4.299699   4.320114   3.650695   5.030868
                   11         12         13         14         15
    11  C    0.000000
    12  H    2.152250   0.000000
    13  H    1.083296   2.482166   0.000000
    14  C    6.139785   7.036184   7.117649   0.000000
    15  C    6.393527   6.877472   7.397922   1.383444   0.000000
    16  H    6.988569   7.981654   7.959457   1.080244   2.152057
    17  H    5.425400   6.553708   6.338315   1.080529   2.144031
    18  C    5.555080   5.759487   6.537715   2.382856   1.375363
    19  H    7.355052   7.693342   8.381194   2.127768   1.084086
    20  H    6.048742   5.869769   7.011159   3.368701   2.146986
    21  H    4.696682   5.059667   5.625950   2.666275   2.141253
                   16         17         18         19         20
    16  H    0.000000
    17  H    1.835732   0.000000
    18  C    3.365085   2.669623   0.000000
    19  H    2.466944   3.087174   2.126085   0.000000
    20  H    4.266778   3.747789   1.082033   2.469705   0.000000
    21  H    3.742668   2.496560   1.082273   3.089670   1.838660
                   21
    21  H    0.000000
 Symmetry turned off by external request.
 Stoichiometry    C9H10OS
 Framework group  C1[X(C9H10OS)]
 Deg. of freedom    57
 Full point group                 C1      NOp   1
 Rotational constants (GHZ):           2.0231426           0.5873121           0.5584888
 Standard basis: def2TZVP (5D, 7F)
 The following finite field(s) will be applied:
 An electric field of             -0.0048  0.0002  0.0013
   407 basis functions,   659 primitive gaussians,   462 cartesian basis functions
    44 alpha electrons       44 beta electrons
       nuclear repulsion energy       669.2130336300 Hartrees.
 NAtoms=   21 NActive=   21 NUniq=   21 SFac= 1.00D+00 NAtFMM=   60 NAOKFM=F Big=F
 Integral buffers will be    131072 words long.
 Raffenetti 2 integral format.
 Two-electron integral symmetry is turned off.
 One-electron integrals computed using PRISM.
   1 Symmetry operations used in ECPInt.
 ECPInt:  NShTT=   13366 NPrTT=   41614 LenC2=   12661 LenP2D=   29799.
 LDataN:  DoStor=T MaxTD1= 6 Len=  172
 NBasis=   407 RedAO= T EigKep=  8.41D-06  NBF=   407
 NBsUse=   407 1.00D-06 EigRej= -1.00D+00 NBFU=   407
 The nuclear repulsion energy is now       668.7340509461 hartrees.
 Initial guess from the checkpoint file:  "checkpoint.chk"
 B after Tr=     0.016889   -0.004635    0.008334
         Rot=    0.999942   -0.006514    0.000313    0.008516 Ang=  -1.23 deg.
 ExpMin= 9.52D-02 ExpMax= 6.07D+04 ExpMxC= 2.07D+03 IAcc=2 IRadAn=         4 AccDes= 0.00D+00
 Harris functional with IExCor=  402 and IRadAn=       4 diagonalized for initial guess.
 HarFok:  IExCor=  402 AccDes= 0.00D+00 IRadAn=         4 IDoV= 1 UseB2=F ITyADJ=14
 ICtDFT=  3500011 ScaDFX=  1.000000  1.000000  1.000000  1.000000
 FoFCou: FMM=F IPFlag=           0 FMFlag=      100000 FMFlg1=           0
         NFxFlg=           0 DoJE=T BraDBF=F KetDBF=T FulRan=T
         wScrn=  0.000000 ICntrl=       500 IOpCl=  0 I1Cent=   200000004 NGrid=           0
         NMat0=    1 NMatS0=      1 NMatT0=    0 NMatD0=    1 NMtDS0=    0 NMtDT0=    0
 Symmetry not used in FoFCou.
 Requested convergence on RMS density matrix=1.00D-08 within 128 cycles.
 Requested convergence on MAX density matrix=1.00D-06.
 Requested convergence on             energy=1.00D-06.
 No special actions if energy rises.
 Integral accuracy reduced to 1.0D-05 until final iterations.
 Initial convergence to 1.0D-05 achieved.  Increase integral accuracy.
 SCF Done:  E(RB3LYP) =  -822.501009880     A.U. after   13 cycles
            NFock= 13  Conv=0.28D-08     -V/T= 2.0035
   1 Symmetry operations used in ECPInt.
 ECPInt:  NShTT=   13366 NPrTT=   41614 LenC2=   12661 LenP2D=   29799.
 LDataN:  DoStor=T MaxTD1= 7 Len=  274
 Calling FoFJK, ICntrl=      2127 FMM=F ISym2X=0 I1Cent= 0 IOpClX= 0 NMat=1 NMatS=1 NMatT=0.
 -------------------------------------------------------------------
 Center     Atomic                   Forces (Hartrees/Bohr)
 Number     Number              X              Y              Z
 -------------------------------------------------------------------
      1        6           0.000326933    0.001435365    0.000001553
      2        6          -0.000341592   -0.000370265    0.000006851
      3       16          -0.000008889   -0.001013660   -0.000081803
      4        6           0.000004530    0.000004156   -0.000000681
      5        8           0.000024453   -0.000014682    0.000140923
      6        1           0.000000193    0.000001223    0.000000483
      7        6           0.000011732    0.000000928    0.000005769
      8        6          -0.000008310   -0.000003988    0.000008880
      9        1           0.000003210    0.000001613    0.000002226
     10        1          -0.000000469    0.000000489    0.000000481
     11        6          -0.000000577    0.000000040   -0.000011134
     12        1          -0.000000651   -0.000000704    0.000000025
     13        1          -0.000000442    0.000000205    0.000000358
     14        6           0.000069046   -0.000070532   -0.000040833
     15        6          -0.000051699    0.000015252   -0.000020671
     16        1          -0.000000593    0.000002581    0.000026296
     17        1          -0.000011001   -0.000022129   -0.000002190
     18        6          -0.000027076    0.000007781   -0.000043765
     19        1           0.000002977    0.000003242    0.000004558
     20        1           0.000001321    0.000016328    0.000002829
     21        1           0.000006904    0.000006754   -0.000000153
 -------------------------------------------------------------------
 Cartesian Forces:  Max     0.001435365 RMS     0.000235555
 -----------------------------------------------------------------------------------------------
                       Internal Coordinate Forces (Hartree/Bohr or radian)
  Cent   Atom   N1       Length/X         N2         Alpha/Y        N3         Beta/Z          J
 -----------------------------------------------------------------------------------------------
      1  C 
      2  C        1   0.000003(     1)
      3  S        1  -0.000017(     2)      2  -0.000448(    21)
      4  C        1  -0.000004(     3)      2  -0.000028(    22)      3  -0.000009(    40)     0
      5  O        3   0.000113(     4)      1  -0.000250(    23)      2   0.000050(    41)     0
      6  H        2   0.000000(     5)      1   0.000001(    24)      3  -0.000002(    42)     0
      7  C        2  -0.000011(     6)      1  -0.000021(    25)      6  -0.000004(    43)     0
      8  C        4   0.000012(     7)      1  -0.000009(    26)      2  -0.000013(    44)     0
      9  H        4  -0.000002(     8)      1  -0.000007(    27)      8  -0.000003(    45)     0
     10  H        7   0.000000(     9)      2   0.000001(    28)      1   0.000000(    46)     0
     11  C        7   0.000006(    10)      2  -0.000023(    29)     10  -0.000001(    47)     0
     12  H        8   0.000001(    11)      4   0.000001(    30)      1   0.000001(    48)     0
     13  H       11   0.000001(    12)      7  -0.000000(    31)      2   0.000000(    49)     0
     14  C        1  -0.000039(    13)      2   0.000421(    32)      3   0.000229(    50)     0
     15  C       14   0.000083(    14)      1   0.000047(    33)      2   0.000098(    51)     0
     16  H       14   0.000006(    15)      1  -0.000002(    34)     15  -0.000037(    52)     0
     17  H       14   0.000004(    16)      1  -0.000044(    35)     15   0.000021(    53)     0
     18  C       15   0.000032(    17)     14   0.000110(    36)      1   0.000040(    54)     0
     19  H       15  -0.000001(    18)     14  -0.000008(    37)     18  -0.000009(    55)     0
     20  H       18   0.000000(    19)     15  -0.000003(    38)     14  -0.000016(    56)     0
     21  H       18  -0.000005(    20)     15  -0.000009(    39)     20   0.000013(    57)     0
 -----------------------------------------------------------------------------------------------
 Internal  Forces:  Max     0.000447949 RMS     0.000098285

 GradGradGradGradGradGradGradGradGradGradGradGradGradGradGradGradGradGrad
 Berny optimization.
 Search for a saddle point.
 Step number   2 out of a maximum of   67
 All quantities printed in internal units (Hartrees-Bohrs-Radians)
 Swapping is turned off.
 Update second derivatives using D2CorN and points    1    2
 ITU=  0  0
     Eigenvalues ---   -0.14247   0.00826   0.01267   0.02825   0.03161
     Eigenvalues ---    0.03385   0.03664   0.03776   0.04228   0.05788
     Eigenvalues ---    0.06204   0.06843   0.08954   0.10872   0.11476
     Eigenvalues ---    0.11908   0.13766   0.15909   0.16192   0.16817
     Eigenvalues ---    0.18137   0.19356   0.20988   0.22427   0.22833
     Eigenvalues ---    0.23054   0.23277   0.23669   0.28828   0.30219
     Eigenvalues ---    0.33687   0.34239   0.34822   0.35261   0.35283
     Eigenvalues ---    0.35535   0.35661   0.36011   0.36137   0.36606
     Eigenvalues ---    0.36734   0.38186   0.39493   0.41867   0.42579
     Eigenvalues ---    0.44646   0.47086   0.48563   0.49765   0.52836
     Eigenvalues ---    0.55735   0.57955   1.41461   2.44753   2.68684
     Eigenvalues ---    3.51404  24.02177
 Eigenvectors required to have negative eigenvalues:
                          A15       D5        D15       D17       R5
   1                    0.46108  -0.34923   0.34248  -0.29535   0.26435
                          D14       D18       A17       R15       D21
   1                    0.25577   0.24379   0.23839   0.23821  -0.21016
 RFO step:  Lambda0=1.752829579D-07 Lambda=-8.25007024D-07.
 Linear search not attempted -- option 19 set.
 Variable       Old X    -DE/DX   Delta X   Delta X   Delta X     New X
                                 (Linear)    (Quad)   (Total)
    R2        2.63370   0.00000   0.00000   0.00001   0.00001   2.63371
    R3        3.36784  -0.00002   0.00000   0.00010   0.00010   3.36794
    R4        2.63992  -0.00000   0.00000  -0.00003  -0.00003   2.63988
    R5        2.88847   0.00011   0.00000   0.00007   0.00007   2.88854
    R6        2.04456   0.00000   0.00000  -0.00000  -0.00000   2.04455
    R7        2.62659  -0.00001   0.00000  -0.00003  -0.00003   2.62656
    R8        2.62229   0.00001   0.00000   0.00003   0.00003   2.62232
    R9        2.04892  -0.00000   0.00000  -0.00001  -0.00001   2.04891
   R10        2.04747   0.00000   0.00000   0.00000   0.00000   2.04747
   R11        2.62926   0.00001   0.00000   0.00003   0.00003   2.62929
   R12        2.04788   0.00000   0.00000   0.00000   0.00000   2.04788
   R13        2.04713   0.00000   0.00000   0.00000   0.00000   2.04714
   R14        7.35476  -0.00004   0.00000   0.00388   0.00388   7.35864
   R15        2.61433   0.00008   0.00000  -0.00006  -0.00006   2.61427
   R16        2.04136   0.00001   0.00000   0.00001   0.00001   2.04138
   R17        2.04190   0.00000   0.00000   0.00000   0.00000   2.04191
   R18        2.59906   0.00003   0.00000   0.00019   0.00019   2.59925
   R19        2.04863  -0.00000   0.00000   0.00001   0.00001   2.04864
   R20        2.04475   0.00000   0.00000   0.00000   0.00000   2.04475
   R21        2.04520  -0.00000   0.00000   0.00000   0.00000   2.04520
    A3        2.11461  -0.00045   0.00000  -0.00003  -0.00003   2.11458
    A4        2.09470  -0.00003   0.00000   0.00003   0.00003   2.09472
    A5        1.85022  -0.00025   0.00000  -0.00015  -0.00015   1.85007
    A6        2.07670   0.00000   0.00000  -0.00000  -0.00000   2.07670
    A7        2.08890  -0.00002   0.00000  -0.00001  -0.00001   2.08890
    A8        2.09231  -0.00001   0.00000  -0.00001  -0.00001   2.09230
    A9        2.09288  -0.00001   0.00000  -0.00001  -0.00001   2.09287
   A10        2.08422   0.00000   0.00000   0.00002   0.00002   2.08424
   A11        2.10315  -0.00002   0.00000  -0.00001  -0.00001   2.10313
   A12        2.08669   0.00000   0.00000   0.00000   0.00000   2.08669
   A13        2.09777  -0.00000   0.00000  -0.00001  -0.00001   2.09776
   A14        1.44961   0.00042   0.00000  -0.00050  -0.00050   1.44911
   A15        1.47741   0.00005   0.00000  -0.00070  -0.00070   1.47671
   A16        2.36271  -0.00000   0.00000   0.00012   0.00012   2.36283
   A17        1.11426  -0.00004   0.00000   0.00042   0.00042   1.11468
   A18        2.08523   0.00011   0.00000   0.00015   0.00015   2.08538
   A19        2.07086  -0.00001   0.00000  -0.00006  -0.00006   2.07080
   A20        2.11742  -0.00000   0.00000  -0.00007  -0.00007   2.11735
   A21        2.10744  -0.00001   0.00000  -0.00009  -0.00009   2.10735
    D4        3.11941  -0.00001   0.00000   0.00046   0.00046   3.11988
    D5       -0.02603   0.00005   0.00000   0.00353   0.00353  -0.02250
    D6       -0.00461  -0.00000   0.00000  -0.00046  -0.00046  -0.00507
    D7       -3.12104  -0.00000   0.00000   0.00018   0.00018  -3.12086
    D8        0.00243  -0.00001   0.00000  -0.00017  -0.00017   0.00226
    D9        3.14397  -0.00000   0.00000   0.00014   0.00014   3.14411
   D10        3.13798   0.00000   0.00000  -0.00004  -0.00004   3.13793
   D11       -3.13339  -0.00000   0.00000  -0.00006  -0.00006  -3.13345
   D12       -3.13865   0.00000   0.00000   0.00012   0.00012  -3.13853
   D13        3.13657   0.00000   0.00000  -0.00002  -0.00002   3.13655
   D14       -0.54867   0.00023   0.00000   0.00247   0.00247  -0.54621
   D15       -2.72730   0.00010   0.00000   0.00231   0.00231  -2.72499
   D16       -2.27418  -0.00004   0.00000   0.00036   0.00036  -2.27382
   D17        2.23088   0.00002   0.00000   0.00021   0.00021   2.23109
   D18        0.48285   0.00004   0.00000   0.00010   0.00010   0.48296
   D19       -2.81385  -0.00001   0.00000  -0.00001  -0.00001  -2.81387
   D20       -2.95153  -0.00002   0.00000  -0.00046  -0.00046  -2.95199
   D21       -2.87980   0.00001   0.00000   0.00102   0.00102  -2.87877
         Item               Value     Threshold  Converged?
 Maximum Force            0.000448     0.000450     YES
 RMS     Force            0.000098     0.000300     YES
 Maximum Displacement     0.003879     0.001800     NO 
 RMS     Displacement     0.000858     0.001200     YES
 Predicted change in Energy=-3.248619D-07
 GradGradGradGradGradGradGradGradGradGradGradGradGradGradGradGradGradGrad

 ---------------------------------------------------------------------------------------------------
                            Z-MATRIX (ANGSTROMS AND DEGREES)
   CD    Cent   Atom    N1       Length/X        N2       Alpha/Y        N3        Beta/Z          J
 ---------------------------------------------------------------------------------------------------
      1      1  C 
      2      2  C        1   1.393702(     1)
      3      3  S        1   1.782239(     2)      2  121.156(    21)
      4      4  C        1   1.396966(     3)      2  120.019(    22)      3  178.756(    40)      0
      5      5  O        3   1.528549(     4)      1  106.001(    23)      2   -1.289(    41)      0
      6      6  H        2   1.081931(     5)      1  118.986(    24)      3   -0.291(    42)      0
      7      7  C        2   1.389916(     6)      1  119.685(    25)      6 -178.812(    43)      0
      8      8  C        4   1.387672(     7)      1  119.880(    26)      2    0.130(    44)      0
      9      9  H        4   1.084238(     8)      1  119.913(    27)      8  180.144(    45)      0
     10     10  H        7   1.083473(     9)      2  119.418(    28)      1  179.790(    46)      0
     11     11  C        7   1.391359(    10)      2  120.501(    29)     10 -179.533(    47)      0
     12     12  H        8   1.083691(    11)      4  119.558(    30)      1 -179.825(    48)      0
     13     13  H       11   1.083298(    12)      7  120.193(    31)      2  179.711(    49)      0
     14     14  C        1   3.894023(    13)      2   83.028(    32)      3  -31.295(    50)      0
     15     15  C       14   1.383410(    14)      1   84.609(    33)      2 -156.130(    51)      0
     16     16  H       14   1.080251(    15)      1  135.380(    34)     15 -130.280(    52)      0
     17     17  H       14   1.080530(    16)      1   63.866(    35)     15  127.832(    53)      0
     18     18  C       15   1.375462(    17)     14  119.484(    36)      1   27.671(    54)      0
     19     19  H       15   1.084091(    18)     14  118.648(    37)     18 -161.223(    55)      0
     20     20  H       18   1.082034(    19)     15  121.315(    38)     14 -169.137(    56)      0
     21     21  H       18   1.082275(    20)     15  120.742(    39)     20 -164.941(    57)      0
 ---------------------------------------------------------------------------------------------------
                         Z-Matrix orientation:                         
 ---------------------------------------------------------------------
 Center     Atomic      Atomic             Coordinates (Angstroms)
 Number     Number       Type             X           Y           Z
 ---------------------------------------------------------------------
      1          6           0        0.000000    0.000000    0.000000
      2          6           0        0.000000    0.000000    1.393702
      3         16           0        1.525167    0.000000   -0.922086
      4          6           0       -1.209293   -0.026266   -0.698880
      5          8           0        2.645745    0.033050    0.116988
      6          1           0        0.946393   -0.004802    1.918003
      7          6           0       -1.207358   -0.018908    2.082030
      8          6           0       -2.409597   -0.049613   -0.002921
      9          1           0       -1.207190   -0.030710   -1.783107
     10          1           0       -1.202261   -0.022281    3.165486
     11          6           0       -2.414318   -0.043188    1.390266
     12          1           0       -3.344585   -0.072820   -0.550319
     13          1           0       -3.352346   -0.062576    1.931802
     14          6           0        3.302840    2.007791    0.472688
     15          6           0        3.033742    2.496442   -0.793262
     16          1           0        4.310862    1.768779    0.778804
     17          1           0        2.571682    2.101495    1.262735
     18          6           0        1.730654    2.571353   -1.227135
     19          1           0        3.835543    2.520156   -1.522513
     20          1           0        1.493607    2.781173   -2.261824
     21          1           0        0.916588    2.664080   -0.520016
 ---------------------------------------------------------------------
                    Distance matrix (angstroms):
                    1          2          3          4          5
     1  C    0.000000
     2  C    1.393702   0.000000
     3  S    1.782239   2.772906   0.000000
     4  C    1.396966   2.417019   2.743681   0.000000
     5  O    2.648537   2.937867   1.528549   3.940873   0.000000
     6  H    2.138789   1.081931   2.898466   3.390504   2.476466
     7  C    2.406849   1.389916   4.061005   2.780921   4.325563
     8  C    2.410109   2.785529   4.041002   1.387672   5.057440
     9  H    2.153537   3.398583   2.864974   1.084238   4.296456
    10  H    3.386182   2.141296   4.914022   3.864375   4.909537
    11  C    2.786330   2.414706   4.568192   2.411826   5.218361
    12  H    3.390340   3.869208   4.884465   2.140960   6.028314
    13  H    3.869625   3.395835   5.651436   3.393300   6.267360
    14  C    3.894023   3.973442   3.022705   5.086188   2.111374
    15  C    4.008126   4.496512   2.919695   4.937237   2.654693
    16  H    4.724262   4.700023   3.712372   5.989813   2.494668
    17  H    3.553074   3.323700   3.207011   4.761415   2.365731
    18  C    3.333598   4.059040   2.597525   3.958530   3.014471
    19  H    4.835351   5.437544   3.471244   5.710780   3.207690
    20  H    3.883508   4.829974   3.087202   4.198830   3.812918
    21  H    2.864938   3.405844   2.762128   3.433558   3.212176
                    6          7          8          9         10
     6  H    0.000000
     7  C    2.160034   0.000000
     8  C    3.867121   2.406937   0.000000
     9  H    4.282149   3.865155   2.148302   0.000000
    10  H    2.484600   1.083473   3.390754   4.948603   0.000000
    11  C    3.402111   1.391359   1.393210   3.395234   2.149633
    12  H    4.950731   3.391152   1.083691   2.467792   4.289442
    13  H    4.299150   2.150686   2.152231   4.289903   2.479206
    14  C    3.419401   5.199940   6.090243   5.439161   5.627459
    15  C    4.238420   5.707996   6.061103   5.035056   6.321343
    16  H    3.970266   5.945164   7.005870   6.344324   6.268866
    17  H    2.739968   4.410045   5.571561   5.301257   4.730068
    18  C    4.140474   5.127566   5.050726   3.963680   5.884220
    19  H    5.153615   6.698539   6.922041   5.657206   7.336266
    20  H    5.052924   5.831357   5.324565   3.928124   6.677032
    21  H    3.614935   4.298862   4.323774   3.656189   5.028815
                   11         12         13         14         15
    11  C    0.000000
    12  H    2.152242   0.000000
    13  H    1.083298   2.482155   0.000000
    14  C    6.142830   7.040153   7.120881   0.000000
    15  C    6.395223   6.880638   7.399775   1.383410   0.000000
    16  H    6.991792   7.985232   7.962916   1.080251   2.152190
    17  H    5.429192   6.558737   6.342316   1.080530   2.143969
    18  C    5.555844   5.762619   6.538605   2.383017   1.375462
    19  H    7.356343   7.695643   8.382634   2.127703   1.084091
    20  H    6.048690   5.872191   7.011182   3.368828   2.147035
    21  H    4.698235   5.064497   5.627598   2.666529   2.141287
                   16         17         18         19         20
    16  H    0.000000
    17  H    1.835657   0.000000
    18  C    3.365322   2.669746   0.000000
    19  H    2.467095   3.087106   2.126130   0.000000
    20  H    4.267000   3.747895   1.082034   2.469691   0.000000
    21  H    3.742940   2.496806   1.082275   3.089663   1.838628
                   21
    21  H    0.000000
 Symmetry turned off by external request.
 Stoichiometry    C9H10OS
 Framework group  C1[X(C9H10OS)]
 Deg. of freedom    57
 Full point group                 C1      NOp   1
 Rotational constants (GHZ):           2.0246077           0.5870908           0.5582380
 Standard basis: def2TZVP (5D, 7F)
 The following finite field(s) will be applied:
 An electric field of             -0.0048  0.0002  0.0013
   407 basis functions,   659 primitive gaussians,   462 cartesian basis functions
    44 alpha electrons       44 beta electrons
       nuclear repulsion energy       669.1916891802 Hartrees.
 NAtoms=   21 NActive=   21 NUniq=   21 SFac= 1.00D+00 NAtFMM=   60 NAOKFM=F Big=F
 Integral buffers will be    131072 words long.
 Raffenetti 2 integral format.
 Two-electron integral symmetry is turned off.
 One-electron integrals computed using PRISM.
   1 Symmetry operations used in ECPInt.
 ECPInt:  NShTT=   13366 NPrTT=   41614 LenC2=   12660 LenP2D=   29796.
 LDataN:  DoStor=T MaxTD1= 6 Len=  172
 NBasis=   407 RedAO= T EigKep=  8.42D-06  NBF=   407
 NBsUse=   407 1.00D-06 EigRej= -1.00D+00 NBFU=   407
 The nuclear repulsion energy is now       668.7116243657 hartrees.
 Initial guess from the checkpoint file:  "checkpoint.chk"
 B after Tr=     0.001105   -0.000504    0.000303
         Rot=    0.999999   -0.000654    0.000012    0.000797 Ang=  -0.12 deg.
 Requested convergence on RMS density matrix=1.00D-08 within 128 cycles.
 Requested convergence on MAX density matrix=1.00D-06.
 Requested convergence on             energy=1.00D-06.
 No special actions if energy rises.
 SCF Done:  E(RB3LYP) =  -822.501010258     A.U. after    8 cycles
            NFock=  8  Conv=0.84D-08     -V/T= 2.0035
   1 Symmetry operations used in ECPInt.
 ECPInt:  NShTT=   13366 NPrTT=   41614 LenC2=   12660 LenP2D=   29796.
 LDataN:  DoStor=T MaxTD1= 7 Len=  274
 Calling FoFJK, ICntrl=      2127 FMM=F ISym2X=0 I1Cent= 0 IOpClX= 0 NMat=1 NMatS=1 NMatT=0.
 -------------------------------------------------------------------
 Center     Atomic                   Forces (Hartrees/Bohr)
 Number     Number              X              Y              Z
 -------------------------------------------------------------------
      1        6           0.000340723    0.001507772    0.000000711
      2        6          -0.000339473   -0.000394358    0.000000317
      3       16           0.000007475   -0.001098571   -0.000003036
      4        6           0.000001350    0.000000016   -0.000000046
      5        8          -0.000005171   -0.000011315    0.000012661
      6        1          -0.000000034    0.000000460   -0.000000028
      7        6           0.000001548    0.000000016    0.000000925
      8        6          -0.000001312   -0.000000210    0.000001436
      9        1           0.000000487    0.000000116    0.000000352
     10        1          -0.000000091    0.000000066    0.000000023
     11        6          -0.000000037    0.000000024   -0.000001842
     12        1          -0.000000018   -0.000000028    0.000000115
     13        1           0.000000022    0.000000029    0.000000003
     14        6           0.000001201    0.000000204   -0.000011251
     15        6           0.000002212    0.000000683    0.000004359
     16        1           0.000000070   -0.000001522   -0.000000081
     17        1          -0.000002596   -0.000005698   -0.000001224
     18        6          -0.000007867   -0.000000986   -0.000004612
     19        1           0.000000035   -0.000000025    0.000000311
     20        1           0.000000221    0.000001408    0.000000433
     21        1           0.000001256    0.000001919    0.000000473
 -------------------------------------------------------------------
 Cartesian Forces:  Max     0.001507772 RMS     0.000247776
 -----------------------------------------------------------------------------------------------
                       Internal Coordinate Forces (Hartree/Bohr or radian)
  Cent   Atom   N1       Length/X         N2         Alpha/Y        N3         Beta/Z          J
 -----------------------------------------------------------------------------------------------
      1  C 
      2  C        1  -0.000001(     1)
      3  S        1  -0.000003(     2)      2  -0.000069(    21)
      4  C        1  -0.000001(     3)      2  -0.000005(    22)      3  -0.000001(    40)     0
      5  O        3   0.000005(     4)      1  -0.000037(    23)      2   0.000032(    41)     0
      6  H        2  -0.000000(     5)      1  -0.000000(    24)      3   0.000000(    42)     0
      7  C        2  -0.000002(     6)      1  -0.000004(    25)      6  -0.000000(    43)     0
      8  C        4   0.000002(     7)      1  -0.000002(    26)      2  -0.000001(    44)     0
      9  H        4  -0.000000(     8)      1  -0.000001(    27)      8  -0.000000(    45)     0
     10  H        7   0.000000(     9)      2   0.000000(    28)      1  -0.000000(    46)     0
     11  C        7   0.000001(    10)      2  -0.000004(    29)     10  -0.000000(    47)     0
     12  H        8  -0.000000(    11)      4   0.000000(    30)      1   0.000000(    48)     0
     13  H       11  -0.000000(    12)      7  -0.000000(    31)      2   0.000000(    49)     0
     14  C        1  -0.000008(    13)      2   0.000071(    32)      3   0.000005(    50)     0
     15  C       14   0.000001(    14)      1   0.000002(    33)      2   0.000018(    51)     0
     16  H       14   0.000000(    15)      1  -0.000003(    34)     15   0.000001(    52)     0
     17  H       14   0.000000(    16)      1  -0.000012(    35)     15   0.000005(    53)     0
     18  C       15   0.000007(    17)     14   0.000005(    36)      1   0.000007(    54)     0
     19  H       15  -0.000000(    18)     14  -0.000000(    37)     18  -0.000000(    55)     0
     20  H       18  -0.000000(    19)     15  -0.000000(    38)     14   0.000001(    56)     0
     21  H       18  -0.000000(    20)     15  -0.000002(    39)     20   0.000003(    57)     0
 -----------------------------------------------------------------------------------------------
 Internal  Forces:  Max     0.000071092 RMS     0.000015086

 GradGradGradGradGradGradGradGradGradGradGradGradGradGradGradGradGradGrad
 Berny optimization.
 Search for a saddle point.
 Step number   3 out of a maximum of   67
 All quantities printed in internal units (Hartrees-Bohrs-Radians)
 Swapping is turned off.
 Update second derivatives using D2CorN and points    1    2    3
 ITU=  0  0  0
     Eigenvalues ---   -0.14239   0.00711   0.01272   0.02824   0.03157
     Eigenvalues ---    0.03386   0.03663   0.03776   0.04221   0.05788
     Eigenvalues ---    0.06206   0.06843   0.08954   0.10872   0.11479
     Eigenvalues ---    0.11908   0.13765   0.15908   0.16190   0.16814
     Eigenvalues ---    0.18137   0.19353   0.20988   0.22428   0.22833
     Eigenvalues ---    0.23055   0.23277   0.23669   0.28828   0.30219
     Eigenvalues ---    0.33686   0.34238   0.34821   0.35261   0.35283
     Eigenvalues ---    0.35535   0.35661   0.36011   0.36136   0.36606
     Eigenvalues ---    0.36734   0.38185   0.39492   0.41867   0.42579
     Eigenvalues ---    0.44645   0.47086   0.48562   0.49765   0.52833
     Eigenvalues ---    0.55732   0.57950   1.41406   2.44720   2.68684
     Eigenvalues ---    3.51404  24.02177
 Eigenvectors required to have negative eigenvalues:
                          A15       D5        D15       D17       R5
   1                    0.46093  -0.35041   0.34157  -0.29542   0.26418
                          D14       D18       A17       R15       D21
   1                    0.25484   0.24404   0.23879   0.23825  -0.21076
 RFO step:  Lambda0=5.893929789D-11 Lambda=-2.29332115D-08.
 Linear search not attempted -- option 19 set.
 Variable       Old X    -DE/DX   Delta X   Delta X   Delta X     New X
                                 (Linear)    (Quad)   (Total)
    R2        2.63371  -0.00000   0.00000   0.00000   0.00000   2.63372
    R3        3.36794  -0.00000   0.00000  -0.00002  -0.00002   3.36793
    R4        2.63988  -0.00000   0.00000  -0.00000  -0.00000   2.63988
    R5        2.88854   0.00000   0.00000   0.00001   0.00001   2.88855
    R6        2.04455  -0.00000   0.00000  -0.00000  -0.00000   2.04455
    R7        2.62656  -0.00000   0.00000  -0.00000  -0.00000   2.62656
    R8        2.62232   0.00000   0.00000   0.00000   0.00000   2.62232
    R9        2.04891  -0.00000   0.00000  -0.00000  -0.00000   2.04891
   R10        2.04747   0.00000   0.00000   0.00000   0.00000   2.04747
   R11        2.62929   0.00000   0.00000   0.00000   0.00000   2.62929
   R12        2.04788  -0.00000   0.00000  -0.00000  -0.00000   2.04788
   R13        2.04714  -0.00000   0.00000  -0.00000  -0.00000   2.04714
   R14        7.35864  -0.00001   0.00000   0.00034   0.00034   7.35898
   R15        2.61427   0.00000   0.00000   0.00000   0.00000   2.61427
   R16        2.04138   0.00000   0.00000   0.00000   0.00000   2.04138
   R17        2.04191   0.00000   0.00000  -0.00000  -0.00000   2.04190
   R18        2.59925   0.00001   0.00000   0.00001   0.00001   2.59925
   R19        2.04864  -0.00000   0.00000   0.00000   0.00000   2.04864
   R20        2.04475  -0.00000   0.00000  -0.00000  -0.00000   2.04475
   R21        2.04520  -0.00000   0.00000   0.00000   0.00000   2.04520
    A3        2.11458  -0.00007   0.00000   0.00004   0.00004   2.11462
    A4        2.09472  -0.00000   0.00000  -0.00001  -0.00001   2.09472
    A5        1.85007  -0.00004   0.00000  -0.00002  -0.00002   1.85005
    A6        2.07670  -0.00000   0.00000   0.00000   0.00000   2.07670
    A7        2.08890  -0.00000   0.00000   0.00001   0.00001   2.08890
    A8        2.09230  -0.00000   0.00000   0.00000   0.00000   2.09230
    A9        2.09287  -0.00000   0.00000  -0.00001  -0.00001   2.09286
   A10        2.08424   0.00000   0.00000   0.00000   0.00000   2.08424
   A11        2.10313  -0.00000   0.00000  -0.00000  -0.00000   2.10313
   A12        2.08669   0.00000   0.00000  -0.00000  -0.00000   2.08669
   A13        2.09776  -0.00000   0.00000  -0.00000  -0.00000   2.09776
   A14        1.44911   0.00007   0.00000  -0.00022  -0.00022   1.44889
   A15        1.47671   0.00000   0.00000  -0.00004  -0.00004   1.47668
   A16        2.36283  -0.00000   0.00000  -0.00003  -0.00003   2.36281
   A17        1.11468  -0.00001   0.00000   0.00008   0.00008   1.11476
   A18        2.08538   0.00000   0.00000  -0.00001  -0.00001   2.08538
   A19        2.07080  -0.00000   0.00000   0.00000   0.00000   2.07080
   A20        2.11735  -0.00000   0.00000  -0.00000  -0.00000   2.11735
   A21        2.10735  -0.00000   0.00000  -0.00001  -0.00001   2.10733
    D4        3.11988  -0.00000   0.00000   0.00015   0.00015   3.12003
    D5       -0.02250   0.00003   0.00000   0.00088   0.00088  -0.02162
    D6       -0.00507   0.00000   0.00000  -0.00016  -0.00016  -0.00524
    D7       -3.12086  -0.00000   0.00000   0.00005   0.00005  -3.12081
    D8        0.00226  -0.00000   0.00000  -0.00003  -0.00003   0.00224
    D9        3.14411  -0.00000   0.00000   0.00002   0.00002   3.14413
   D10        3.13793  -0.00000   0.00000  -0.00001  -0.00001   3.13792
   D11       -3.13345  -0.00000   0.00000  -0.00002  -0.00002  -3.13347
   D12       -3.13853   0.00000   0.00000   0.00002   0.00002  -3.13851
   D13        3.13655   0.00000   0.00000   0.00000   0.00000   3.13655
   D14       -0.54621   0.00001   0.00000   0.00060   0.00060  -0.54560
   D15       -2.72499   0.00002   0.00000   0.00072   0.00072  -2.72426
   D16       -2.27382   0.00000   0.00000   0.00006   0.00006  -2.27376
   D17        2.23109   0.00001   0.00000  -0.00002  -0.00002   2.23107
   D18        0.48296   0.00001   0.00000   0.00004   0.00004   0.48299
   D19       -2.81387  -0.00000   0.00000   0.00002   0.00002  -2.81385
   D20       -2.95199   0.00000   0.00000  -0.00001  -0.00001  -2.95201
   D21       -2.87877   0.00000   0.00000   0.00006   0.00006  -2.87871
         Item               Value     Threshold  Converged?
 Maximum Force            0.000071     0.000450     YES
 RMS     Force            0.000015     0.000300     YES
 Maximum Displacement     0.000875     0.001800     YES
 RMS     Displacement     0.000182     0.001200     YES
 Predicted change in Energy=-1.143714D-08
 Optimization completed.
    -- Stationary point found.
                       ----------------------------
                       !   Optimized Parameters   !
                       ! (Angstroms and Degrees)  !
 ----------------------                            ----------------------
 !      Name          Value   Derivative information (Atomic Units)     !
 ------------------------------------------------------------------------
 !       R2          1.3937   -DE/DX =    0.0                           !
 !       R3          1.7822   -DE/DX =    0.0                           !
 !       R4          1.397    -DE/DX =    0.0                           !
 !       R5          1.5285   -DE/DX =    0.0                           !
 !       R6          1.0819   -DE/DX =    0.0                           !
 !       R7          1.3899   -DE/DX =    0.0                           !
 !       R8          1.3877   -DE/DX =    0.0                           !
 !       R9          1.0842   -DE/DX =    0.0                           !
 !       R10         1.0835   -DE/DX =    0.0                           !
 !       R11         1.3914   -DE/DX =    0.0                           !
 !       R12         1.0837   -DE/DX =    0.0                           !
 !       R13         1.0833   -DE/DX =    0.0                           !
 !       R14         3.894    -DE/DX =    0.0                           !
 !       R15         1.3834   -DE/DX =    0.0                           !
 !       R16         1.0803   -DE/DX =    0.0                           !
 !       R17         1.0805   -DE/DX =    0.0                           !
 !       R18         1.3755   -DE/DX =    0.0                           !
 !       R19         1.0841   -DE/DX =    0.0                           !
 !       R20         1.082    -DE/DX =    0.0                           !
 !       R21         1.0823   -DE/DX =    0.0                           !
 !       A3        121.1563   -DE/DX =   -0.0001                        !
 !       A4        120.0188   -DE/DX =    0.0                           !
 !       A5        106.0011   -DE/DX =    0.0                           !
 !       A6        118.9861   -DE/DX =    0.0                           !
 !       A7        119.6849   -DE/DX =    0.0                           !
 !       A8        119.8798   -DE/DX =    0.0                           !
 !       A9        119.9125   -DE/DX =    0.0                           !
 !       A10       119.4181   -DE/DX =    0.0                           !
 !       A11       120.5006   -DE/DX =    0.0                           !
 !       A12       119.5584   -DE/DX =    0.0                           !
 !       A13       120.1929   -DE/DX =    0.0                           !
 !       A14        83.0278   -DE/DX =    0.0001                        !
 !       A15        84.6094   -DE/DX =    0.0                           !
 !       A16       135.3805   -DE/DX =    0.0                           !
 !       A17        63.8663   -DE/DX =    0.0                           !
 !       A18       119.4837   -DE/DX =    0.0                           !
 !       A19       118.6481   -DE/DX =    0.0                           !
 !       A20       121.3151   -DE/DX =    0.0                           !
 !       A21       120.742    -DE/DX =    0.0                           !
 !       D4        178.7557   -DE/DX =    0.0                           !
 !       D5         -1.2889   -DE/DX =    0.0                           !
 !       D6         -0.2907   -DE/DX =    0.0                           !
 !       D7       -178.8121   -DE/DX =    0.0                           !
 !       D8          0.1296   -DE/DX =    0.0                           !
 !       D9        180.1441   -DE/DX =    0.0                           !
 !       D10       179.7904   -DE/DX =    0.0                           !
 !       D11      -179.5333   -DE/DX =    0.0                           !
 !       D12      -179.8246   -DE/DX =    0.0                           !
 !       D13       179.711    -DE/DX =    0.0                           !
 !       D14       -31.2954   -DE/DX =    0.0                           !
 !       D15      -156.1302   -DE/DX =    0.0                           !
 !       D16      -130.2804   -DE/DX =    0.0                           !
 !       D17       127.832    -DE/DX =    0.0                           !
 !       D18        27.6713   -DE/DX =    0.0                           !
 !       D19      -161.2227   -DE/DX =    0.0                           !
 !       D20      -169.1367   -DE/DX =    0.0                           !
 !       D21      -164.9415   -DE/DX =    0.0                           !
 ------------------------------------------------------------------------
 GradGradGradGradGradGradGradGradGradGradGradGradGradGradGradGradGradGrad

 ---------------------------------------------------------------------------------------------------
                            Z-MATRIX (ANGSTROMS AND DEGREES)
   CD    Cent   Atom    N1       Length/X        N2       Alpha/Y        N3        Beta/Z          J
[...]
 0675,0.00011305,0.00002872,-0.00003727,-0.00396229,-0.00007321,-0.0001
 5913,-0.03462806,0.00108118,-0.00031964,0.00778672,0.00003963,0.000033
 08,-0.00129768,0.00000958,0.00062470,0.02485378,0.00315456,0.00008425,
 0.00029167,-0.00166866,0.00004391,-0.01249866,-0.00042346,0.00008472,-
 0.00059676,0.00014491,0.00000659,0.00072552,0.00005495,-0.00005514,0.0
 0022008,0.00009368,-0.00001383,0.00087582,-0.00173968,0.00086310,-0.33
 248398,-0.00334493,-0.00003500,0.00070324,-0.00000264,-0.00000498,-0.0
 0006849,0.00134469,-0.00098969,0.35449636,-0.01385056,-0.00023399,-0.0
 3168351,-0.06015572,-0.00103630,0.02507524,-0.00279693,-0.00036959,0.0
 0197690,0.02910308,0.00059040,0.02885557,0.00084558,0.00032677,0.00107
 478,-0.00232772,-0.00015617,0.00326100,-0.27621447,-0.00451421,-0.1192
 5889,-0.12645873,-0.00185307,0.03193420,-0.00444227,-0.00018803,0.0031
 8244,0.00462250,-0.00007448,0.00256217,0.71178495,-0.00025904,-0.00503
 840,-0.00071269,-0.00121937,0.00521676,0.00036179,-0.00004374,-0.00076
 724,-0.00005483,0.00062508,0.00400054,0.00056600,0.00012277,0.00008338
 ,0.00008020,0.00000131,0.00727994,0.00014884,-0.00501860,-0.05362321,-
 0.00241449,-0.00174190,-0.05175367,-0.00062918,-0.00026887,0.00781065,
 0.00003435,0.00020910,0.00106404,0.00009632,0.01242352,0.11493275,-0.0
 3276903,-0.00063743,-0.04997138,-0.02297579,-0.00094754,0.06205908,0.0
 0218661,0.00051195,-0.00225500,0.07755389,0.00172833,-0.02889207,0.000
 66989,0.00023537,0.00107650,0.00369627,0.00032178,-0.00099977,-0.05457
 681,-0.00079428,-0.17821367,-0.03248800,-0.00249095,-0.32297064,0.0020
 7771,0.00018731,0.00098202,-0.02851694,-0.00069735,-0.01188085,-0.0351
 4451,0.00091603,0.66870464,-0.00355858,-0.00028951,0.00400153,0.000154
 20,0.00002343,0.00089414,0.00049205,-0.00016203,-0.00107667,-0.0200879
 1,-0.00047172,-0.01599937,-0.00082662,0.00004135,-0.00004924,-0.000042
 85,0.00001994,-0.00006225,0.00181861,-0.00011590,0.00024718,-0.2611289
 0,-0.00562488,-0.11837621,0.00110185,0.00012435,0.00019876,-0.00001099
 ,-0.00001393,0.00019934,0.00320781,0.00010098,0.00184565,0.27803608,-0
 .00014781,0.00798094,0.00009048,0.00001698,-0.00092841,0.00000469,0.00
 001158,0.00037844,-0.00002175,-0.00047136,0.00105873,-0.00023338,0.000
 08987,-0.00027979,-0.00000852,0.00000606,-0.00113849,-0.00001971,-0.00
 002071,0.00769217,-0.00003090,-0.00570876,-0.03247749,-0.00311251,0.00
 010459,-0.00379056,0.00004357,-0.00002265,0.00024884,-0.00000186,-0.00
 008880,0.00023858,-0.00010872,0.00620761,0.02418774,0.00345654,0.00003
 634,-0.00061235,0.00085393,0.00003223,-0.00069126,-0.00000642,0.000008
 84,0.00051664,0.01461051,0.00031353,0.01118108,0.00042380,0.00000348,0
 .00004685,-0.00004738,0.00000288,0.00007164,0.00143561,-0.00001878,-0.
 00577776,-0.11862687,-0.00305786,-0.12901459,-0.00055338,0.00000906,0.
 00096135,-0.00142177,-0.00002585,-0.00067467,-0.02936012,-0.00074793,-
 0.01049667,0.12870015,0.00338142,0.13342223,0.00023532,0.00003040,-0.0
 0097110,-0.00324250,-0.00019283,-0.00429596,-0.00001221,-0.00003456,-0
 .00014621,0.00181498,-0.00016021,-0.00015396,-0.00008613,0.00000618,0.
 00024098,-0.00080334,-0.00003979,0.00086619,-0.01940576,-0.00043596,0.
 01690718,0.00285189,0.00006823,-0.00187999,-0.00002309,-0.00000094,-0.
 00017399,0.00103972,0.00008761,-0.00038767,-0.26319122,-0.00485914,0.1
 1776817,0.00082495,0.00009607,0.00056718,0.27995724,0.00007293,-0.0014
 8049,-0.00005308,-0.00019866,0.00780179,-0.00011306,-0.00006233,-0.000
 41327,-0.00005669,-0.00029445,0.00770570,-0.00004235,0.00003540,-0.000
 25131,0.00010735,0.00001142,0.00031177,0.00005618,-0.00034697,-0.00023
 369,0.00041716,0.00029489,-0.00066557,-0.00025767,0.00001346,0.0002580
 5,-0.00001046,0.00007442,-0.00340696,-0.00002978,-0.00498668,-0.029280
 32,0.00245676,0.00007382,-0.00320338,0.00004741,0.00535657,0.02286312,
 -0.00095032,-0.00001084,-0.00086903,-0.00308990,-0.00003962,-0.0007167
 0,-0.00018499,0.00005171,0.00007130,-0.00129409,-0.00010466,-0.0056698
 6,0.00011928,-0.00002417,0.00012060,-0.00064069,-0.00000998,0.00036321
 ,-0.01448828,-0.00032780,0.01162338,0.02954596,0.00065344,-0.01063992,
 0.00139573,0.00003542,-0.00064309,0.00064406,0.00001168,0.00089198,0.1
 1782057,0.00232660,-0.12744624,-0.00054645,0.00000091,0.00111145,-0.12
 834447,-0.00254088,0.13179664,0.00170790,-0.00284729,-0.00022423,-0.00
 020902,0.00056047,-0.00037248,-0.01565719,-0.01068962,-0.01458687,-0.0
 0059771,0.00032758,0.00018832,-0.00191074,0.02359508,0.00982435,-0.000
 23435,-0.00056719,0.00029648,-0.00046541,0.00022058,0.00011763,0.00043
 142,0.00032081,-0.00015940,0.00004781,-0.00012265,0.00004277,-0.000055
 12,-0.00002224,0.00005879,-0.00003596,-0.00006741,0.00050669,-0.000021
 29,-0.00004123,-0.00001110,0.00001426,-0.00003571,0.00003020,0.6448683
 9,0.00592344,-0.00069259,0.00170523,-0.00142471,0.00039923,0.00031868,
 -0.03745741,-0.02186365,-0.02924697,0.00053503,0.00036495,-0.00076330,
 0.04119522,0.02860748,0.03033023,-0.00072340,-0.00010472,0.00068734,0.
 00029331,0.00029190,-0.00012672,0.00057593,-0.00036591,0.00093239,-0.0
 0003202,0.00017677,0.00005672,-0.00002143,0.00001584,0.00005900,-0.000
 80241,-0.00010261,0.00011008,0.00005603,0.00000806,-0.00007384,0.00001
 025,0.00004801,0.00001620,-0.13649047,0.12936915,-0.00440286,0.0035783
 2,0.00175897,0.00075342,-0.00094060,-0.00074110,0.00707436,0.00727156,
 0.00161075,0.00127908,-0.00039546,0.00013041,-0.00857705,-0.00791113,-
 0.02156419,0.00004882,0.00071047,-0.00023621,-0.00019654,-0.00049273,-
 0.00012554,-0.00059618,0.00003405,0.00048861,-0.00007296,-0.00008300,-
 0.00002448,0.00007978,0.00004220,-0.00009730,0.00036887,0.00010877,-0.
 00054988,0.00003579,0.00001953,0.00001273,-0.00000642,-0.00000852,-0.0
 0003086,0.00162721,-0.10477105,0.67760645,0.00533718,-0.00198787,-0.00
 106623,-0.00076714,0.00041283,0.00107087,-0.02050791,-0.03237234,-0.00
 876837,-0.00078740,0.00052337,-0.00037825,0.01672579,0.02591255,0.0098
 0025,-0.00027247,-0.00005722,0.00024819,0.00041162,0.00030359,-0.00023
 943,0.00064680,-0.00013918,-0.00010126,-0.00003176,0.00004982,-0.00002
 068,-0.00002416,0.00000041,0.00007539,-0.00066462,-0.00005317,0.000438
 47,-0.00002397,-0.00001763,-0.00005369,-0.00003048,0.00001209,0.000022
 60,-0.11826904,-0.00079456,-0.01752455,0.70162685,-0.00059921,-0.00077
 636,0.00043694,-0.00007019,-0.00008431,-0.00002293,-0.00064513,-0.0108
 3562,0.00859703,-0.00020023,-0.00022413,0.00031022,-0.01737040,-0.0310
 7154,-0.00446194,0.00006950,-0.00012398,-0.00015320,-0.00013525,0.0001
 9384,0.00003956,0.00006172,-0.00008637,-0.00022238,0.00006578,0.000109
 65,-0.00000848,-0.00002105,-0.00001261,0.00002605,0.00006133,0.0000286
 2,0.00014047,-0.00004555,-0.00002207,0.,-0.00002677,-0.00001085,0.0000
 1319,0.03374066,-0.07170040,0.09639449,-0.03867802,0.19061250,0.008070
 60,-0.00271222,-0.00243829,-0.00148000,0.00105352,0.00164045,-0.029852
 74,-0.02831613,-0.01187747,-0.00209355,0.00065546,-0.00029883,0.025130
 13,0.03629961,0.01786841,-0.00020677,-0.00054438,0.00029918,0.00041786
 ,0.00055515,-0.00021473,0.00105345,-0.00008642,-0.00036223,0.00008701,
 0.00001760,-0.00000353,-0.00009529,-0.00003685,0.00018312,-0.00115840,
 -0.00013102,0.00099783,-0.00010240,-0.00002566,-0.00007424,-0.00004874
 ,-0.00001876,0.00005979,-0.05035365,0.07060691,-0.33510989,-0.02915324
 ,-0.12583662,0.65353229,0.00021815,-0.00015561,0.00003960,0.00008264,-
 0.00000883,0.00003425,0.00011943,0.00010862,0.00019182,-0.00000412,0.0
 0001674,-0.00004714,-0.00053985,-0.00025176,-0.00007248,-0.00006839,0.
 00005341,-0.00004490,-0.00002447,-0.00000651,-0.00001505,0.00001937,0.
 00001978,-0.00003276,-0.00000641,-0.00000489,-0.00000295,-0.00000188,0
 .00000444,-0.00000180,0.00003717,0.00000531,0.00001975,0.00000624,-0.0
 0000156,-0.00000245,-0.00000212,-0.00000251,-0.00000054,-0.31337106,0.
 06620982,-0.07524691,0.00062804,0.00050392,0.00184342,0.32373550,0.000
 70073,-0.00079095,-0.00062098,0.00019953,0.00026810,0.00008073,-0.0015
 9769,-0.00208622,-0.00050024,-0.00045673,0.00013831,0.00006703,-0.0072
 6305,0.00095169,-0.00274192,-0.00001413,-0.00012289,-0.00001738,-0.000
 21108,0.00005608,0.00002407,0.00015841,0.00012866,-0.00027530,0.000009
 61,-0.00007362,-0.00000167,-0.00001462,0.00000414,0.00001302,0.0000709
 5,-0.00001724,0.00025709,-0.00001631,-0.00001258,-0.00000202,-0.000001
 74,-0.00002395,0.00000968,0.06453583,-0.05214903,0.02215181,0.01331365
 ,0.00411678,0.00130878,-0.07098905,0.04640082,0.00031200,-0.00017528,-
 0.00017969,0.00001508,0.00017958,-0.00000369,-0.00044721,-0.00026798,-
 0.00054184,-0.00017560,0.00000665,-0.00001357,-0.00149141,0.00002747,-
 0.00050522,0.00005595,-0.00014621,0.00006027,-0.00010050,0.00003862,0.
 00004955,0.00009676,0.00003086,-0.00009219,0.00001280,-0.00001891,0.00
 001418,-0.00000276,-0.00000558,0.00000358,0.00001926,-0.00001127,0.000
 10879,0.00000060,0.00000414,-0.00000062,0.00000724,-0.00001042,0.00000
 445,-0.07016458,0.02362182,-0.07761628,-0.02737471,0.00504804,-0.00313
 667,0.08033005,-0.02572778,0.07653584,-0.00011377,0.00031180,0.0000030
 6,-0.00013545,-0.00010496,0.00009768,0.00122090,0.00019202,0.00048670,
 -0.00000905,-0.00004930,0.00000236,0.00010076,-0.00506010,-0.00445106,
 -0.00000367,-0.00020540,0.00002973,0.00000128,-0.00004104,0.00005196,0
 .00001214,-0.00001048,0.00001021,0.00000721,-0.00000696,0.00000432,0.0
 0000715,0.00001765,-0.00001227,-0.00002658,0.00000571,-0.00000659,0.00
 000251,-0.00000326,0.00000214,0.00001155,-0.00000038,-0.00000198,-0.19
 191276,0.02561493,0.14237618,0.00747219,-0.00143191,-0.00197328,-0.012
 69469,0.00181971,0.02044411,0.19483592,-0.00043818,0.00090548,-0.00010
 520,-0.00065524,-0.00018595,-0.00023089,0.00265036,0.00086971,0.001852
 68,-0.00005170,-0.00018139,0.00012207,-0.00135275,-0.01261215,-0.00883
 383,-0.00021187,-0.00032656,0.00019518,0.00031696,-0.00010071,0.000105
 31,0.00003378,-0.00001990,0.00008273,0.00003057,-0.00000558,0.00001908
 ,-0.00001294,0.00001588,-0.00000486,-0.00014325,-0.00001963,-0.0000768
 7,0.00000120,0.00001300,0.00000954,0.00003580,0.00001669,0.00000300,0.
 02488523,-0.02987491,-0.01900932,-0.00510915,0.00299422,0.01652127,0.0
 0408769,0.00342515,-0.00404359,-0.02161401,0.03399099,-0.00012974,0.00
 022457,-0.00001753,-0.00001168,0.00000842,-0.00011585,0.00034190,-0.00
 057206,-0.00014429,-0.00010350,-0.00002032,-0.00003587,-0.00085715,-0.
 00223922,-0.00085276,0.00010784,0.00005239,0.00019065,-0.00002322,0.00
 001959,0.00002728,0.00005102,-0.00002031,-0.00003750,0.00000372,-0.000
 00911,0.00000291,0.00001503,-0.00000875,-0.00000732,-0.00000943,0.0000
 0466,0.00004692,0.00000502,0.00000816,-0.00000178,0.00000764,-0.000002
 30,0.00000013,0.14115814,-0.01108986,-0.20615252,0.02281914,-0.0026997
 9,-0.01609472,-0.00635120,0.00212105,0.00883720,-0.15444212,0.01253890
 ,0.21563945,-0.00541658,-0.00171694,0.00246234,0.00106053,-0.00053399,
 -0.00129196,0.01008412,0.01862606,0.01248816,0.00058323,-0.00074382,0.
 00033514,-0.02194178,-0.02254713,-0.01848112,0.00016472,-0.00000882,-0
 .00012018,-0.00084064,0.00013079,0.00019829,-0.00021791,0.00001526,-0.
 00004046,-0.00000549,0.00011945,0.00004493,0.00005394,0.00000978,-0.00
 009968,0.00065004,0.00009204,-0.00005050,0.00007670,0.00000317,0.00002
 561,0.00005066,-0.00002208,-0.00002446,-0.00833817,0.03833442,-0.04162
 792,-0.36349684,0.01848008,-0.04891973,0.00104068,0.00049530,0.0001829
 3,-0.00027705,-0.00460893,0.00062741,0.68785740,-0.00742789,0.00123279
 ,0.00281946,0.00143061,-0.00013923,-0.00222641,0.02226748,0.01768401,0
 .00878692,0.00289209,-0.00026146,0.00004318,-0.01393374,-0.01880006,-0
 .00824322,0.00018448,0.00023654,-0.00026290,-0.00062353,-0.00027349,0.
 00042165,-0.00128963,0.00014643,0.00080279,-0.00001636,-0.00008590,0.0
 0004707,0.00005663,0.00000808,-0.00013280,0.00122115,0.00004259,-0.001
 15701,0.00009268,0.00004842,0.00006947,0.00003450,-0.00004053,-0.00003
 828,0.01118131,0.01639893,-0.00766922,0.04367184,-0.05184666,0.0319753
 1,0.00166479,0.00384784,0.00272053,-0.00172603,-0.00465510,-0.00090885
 ,-0.09243006,0.10577754,-0.00033643,0.00306339,0.00078749,0.00051557,0
 .00007268,-0.00054779,0.00572886,-0.00814611,-0.00593750,0.00066542,-0
 .00009019,-0.00005611,-0.01182604,0.00090399,-0.00707349,-0.00011870,0
 .00029222,0.00000962,-0.00024340,-0.00031103,0.00022841,0.00000141,-0.
 00040238,-0.00025151,-0.00003133,0.00023454,0.00004256,0.00002518,0.00
 002100,-0.00008209,0.00066507,0.00003234,-0.00015849,0.00007718,0.0000
 2542,0.00001821,0.00003315,0.00006636,-0.00001791,-0.03722277,0.018158
 29,-0.02145902,-0.08173155,0.01016726,-0.12798243,-0.00043503,0.004723
 64,-0.00437482,-0.00192275,-0.00206706,0.00147387,0.02145031,-0.070001
 82,0.65558142,-0.00014693,0.00007036,-0.00007004,0.00002350,-0.0000260
 9,-0.00011527,-0.00040286,0.00012264,-0.00012980,0.00004392,-0.0000419
 2,0.00004395,0.00049757,0.00012527,0.00047381,-0.00000059,-0.00000348,
 0.00001975,0.00001181,-0.00002255,-0.00002113,0.00003370,-0.00001052,0
 .00000686,-0.00000466,0.00001529,0.00001194,0.00000158,0.00000040,0.00
 000151,-0.00000604,0.00000477,0.00000018,-0.00000137,0.00000426,-0.000
 00064,-0.00000040,0.00000514,0.00000279,0.00830727,0.00012510,-0.00628
 571,-0.20716348,-0.00358242,0.13634776,0.00060024,-0.00093579,-0.00000
 431,0.00095945,0.00161253,-0.00198559,-0.02093049,0.00100171,0.0212169
 1,0.22051730,-0.00038028,0.00021651,0.00004968,0.00005445,-0.00011859,
 -0.00001385,-0.00001947,0.00078279,0.00003241,0.00000517,-0.00004381,-
 0.00002248,0.00043904,0.00019185,0.00010593,-0.00001305,0.00002933,0.0
 0003732,0.00004190,-0.00004034,-0.00003283,-0.00000546,-0.00001462,0.0
 0003494,-0.00001901,-0.00000295,-0.00000072,0.00001429,0.00000175,-0.0
 0001676,-0.00001765,0.00001805,-0.00002838,0.00001672,0.00000024,0.000
 00139,0.00001268,0.00000809,-0.00000722,-0.00713697,0.00323535,0.00776
 332,0.00155204,-0.04080171,0.00513264,-0.00091727,-0.00348187,-0.00118
 789,0.00178780,0.00513905,0.00238713,0.00177184,0.00288582,-0.00265779
 ,0.00181674,0.02915930,-0.00009241,0.00004553,0.00004921,-0.00007122,0
 .00001965,-0.00007509,0.00048785,0.00003557,0.00001075,0.00002764,-0.0
 0002712,0.00001825,-0.00050275,-0.00018896,0.00041764,-0.00001265,-0.0
 0006115,0.00003188,0.00002112,-0.00000514,0.00002549,0.00001365,-0.000
 00948,0.00000973,-0.00000028,0.00000643,0.00000704,-0.00000513,-0.0000
 0278,-0.00000039,0.00000807,0.00000163,-0.00001446,0.00000575,0.000001
 79,0.00000362,0.00000878,0.00000309,-0.00000061,0.02305003,-0.00050357
 ,-0.01983272,0.13766091,0.00896214,-0.18115306,-0.00048512,-0.00123143
 ,0.00099468,-0.00113432,0.00377040,-0.00315523,-0.00972839,0.00055733,
 0.01010980,-0.14689836,-0.01173817,0.19153337,-0.00025945,-0.00019872,
 0.00013053,-0.00010849,-0.00016506,-0.00002043,0.00009450,0.00122238,0
 .00090117,0.00019909,-0.00002330,0.00007030,-0.00022803,-0.00061992,-0
 .00029847,-0.00002857,0.00003048,-0.00001019,0.00018782,-0.00000633,-0
 .00006788,-0.00011390,0.00006160,0.00010864,-0.00002939,-0.00009946,-0
 .00004429,0.00000064,0.00000336,-0.00000361,-0.00006353,0.00000997,-0.
 00013063,-0.00001257,-0.00000511,0.00000419,-0.00000246,-0.00000514,-0
 .00000836,-0.00574923,0.00106973,-0.00073884,-0.00037921,0.00744601,-0
 .02962630,-0.00001307,0.00059411,-0.00141732,0.00005583,-0.00012977,-0
 .00024208,-0.06913744,0.01143219,-0.05330560,0.00126129,-0.00061622,0.
 00027221,0.06724683,-0.00008086,-0.00073519,-0.00045000,-0.00018891,-0
 .00016159,0.00020689,-0.00062839,0.00118782,0.00368912,-0.00006770,0.0
 0003481,0.00021255,0.00298804,-0.00082465,0.00150703,0.00002360,-0.000
 03409,-0.00003259,0.00023421,0.00004516,-0.00015468,-0.00009120,0.0001
 3816,0.00011768,-0.00006392,-0.00016030,-0.00005456,-0.00000060,-0.000
 00234,0.00001699,-0.00028000,-0.00001074,-0.00007467,-0.00003453,-0.00
 000150,0.00000437,-0.00000961,-0.00001447,-0.00000873,-0.00092063,0.00
 519096,0.00141742,0.00077083,0.00496624,-0.00141862,-0.00023030,-0.000
 51549,-0.00017307,-0.00022318,-0.00014416,0.00034203,0.01538863,-0.044
 08559,0.05842956,-0.00044025,-0.00442787,-0.00071876,-0.01520924,0.036
 34461,0.00022165,-0.00011944,-0.00011923,-0.00009031,0.00006542,0.0001
 6858,0.00006602,0.00051103,0.00056634,-0.00014917,0.00004835,-0.000139
 89,0.00073266,-0.00068064,0.00087632,0.00001797,-0.00004493,0.00001708
 ,0.00003181,0.00002697,0.00003678,0.00002781,0.00000806,0.00002051,0.0
 0002131,0.00000542,0.00005688,-0.00000369,-0.00000997,0.00000719,-0.00
 003551,-0.00000067,-0.00000363,0.00000690,0.00000744,0.00000063,0.0000
 0308,-0.00000563,0.00000398,-0.00260659,0.00018330,0.00061738,0.001901
 83,0.00186673,-0.00505937,0.00010424,0.00022972,-0.00026476,0.00009151
 ,-0.00015119,0.00039153,-0.05815193,0.05459312,-0.31891908,-0.00029397
 ,-0.00065241,0.00076532,0.06388427,-0.05970721,0.33401553,0.00045585,-
 0.00066399,-0.00024070,0.00000623,0.00004569,-0.00003703,0.00004266,-0
 .00107729,-0.00025108,0.00021994,0.00011539,-0.00005589,0.00012688,0.0
 0072085,0.00014963,-0.00001726,0.00005062,-0.00002308,0.00005488,-0.00
 000492,0.00001160,-0.00019410,0.00009863,0.00013446,-0.00000010,-0.000
 05597,-0.00002628,-0.00000047,0.00000438,-0.00000561,-0.00001676,-0.00
 006932,-0.00010447,-0.00000596,-0.00001131,0.00000419,-0.00000086,0.00
 000476,-0.00000667,0.00145000,-0.00219678,0.00163243,-0.02042998,0.002
 37713,0.02211385,0.00023862,-0.00039765,-0.00029840,0.00048612,0.00067
 366,-0.00098115,-0.21101963,0.02031576,0.13679453,-0.00360084,0.001612
 73,-0.00262540,0.00707934,-0.00093601,-0.00577991,0.22512544,0.0019425
 5,-0.00015606,-0.00088643,-0.00012516,0.00051870,0.00063567,-0.0000718
 2,-0.01286626,-0.00534254,-0.00066424,0.00044472,-0.00022504,0.0020505
 5,0.00269967,0.00357430,0.00004754,-0.00010377,0.00002626,-0.00009758,
 -0.00001223,0.00011010,0.00004287,-0.00002931,-0.00018790,0.00000958,-
 0.00006309,-0.00002091,-0.00001127,-0.00000106,-0.00000925,0.00005049,
 -0.00010283,0.00014803,0.00001625,-0.00000089,0.00000633,0.00002325,0.
 00001158,-0.00000965,-0.00042614,-0.00725282,0.00178910,-0.00731390,0.
 00457474,-0.00499958,-0.00010622,-0.00006374,0.00009026,0.00072738,0.0
 0075587,-0.00013633,0.02914495,-0.02812098,-0.01251430,0.00015880,0.00
 726362,0.00108300,-0.00479154,0.00321021,0.00382655,-0.02060635,0.0292
 9394,0.00003751,0.00068009,0.00024747,-0.00020186,-0.00014093,0.000313
 48,0.00005200,0.00029232,0.00000789,-0.00011915,0.00011410,-0.00007687
 ,0.00001653,-0.00004677,0.00003807,-0.00001228,0.00005584,-0.00002117,
 0.00030242,-0.00003750,-0.00008575,-0.00014363,0.00002575,0.00013198,-
 0.00001185,-0.00008276,-0.00007545,0.00000740,0.00000847,-0.00000808,-
 0.00015379,0.00002454,-0.00012301,-0.00000540,-0.00002452,-0.00000249,
 -0.00000110,-0.00000471,-0.00001269,-0.00119894,-0.00021088,0.00131469
 ,-0.00762567,0.00140323,0.00922438,0.00017520,0.00013212,0.00012083,0.
 00034439,-0.00069733,0.00000542,0.14072120,-0.01219634,-0.18139114,-0.
 00232066,0.00081373,0.00025478,0.02054270,-0.00315075,-0.01303809,-0.1
 5040503,0.01304232,0.18317576\\-0.00034071,-0.00150778,-0.00000069,0.0
 0033952,0.00039437,-0.00000035,-0.00000754,0.00109864,0.00000299,-0.00
 000126,-0.00000002,-0.00000003,0.00000520,0.00001121,-0.00001258,0.000
 00001,-0.00000046,0.00000003,-0.00000142,0.,-0.00000085,0.00000130,0.0
 0000021,-0.00000158,-0.00000050,-0.00000012,-0.00000032,0.00000007,-0.
 00000007,0.,0.,-0.00000002,0.00000189,-0.00000002,0.00000002,-0.000000
 12,-0.00000010,-0.00000003,0.00000004,-0.00000121,-0.00000016,0.000011
 18,-0.00000234,-0.00000068,-0.00000450,0.00000003,0.00000150,0.0000001
 1,0.00000254,0.00000569,0.00000129,0.00000784,0.00000106,0.00000456,-0
 .00000003,0.00000001,-0.00000027,-0.00000019,-0.00000144,-0.00000028,-
 0.00000118,-0.00000193,-0.00000053\\\@


 YOU ARE IN A MAZE OF TWISTY LITTLE PASSAGES.
 Job cpu time:       0 days  3 hours 21 minutes  6.9 seconds.
 Elapsed time:       0 days  0 hours 16 minutes 46.1 seconds.
 File lengths (MBytes):  RWF=    290 Int=      0 D2E=      0 Chk=     32 Scr=      1
 Normal termination of Gaussian 16 at Fri Jun 10 12:52:44 2022.
