 Entering Gaussian System, Link 0=g16
 Input=int_initalOptXYZ_aligned_sp.gjf
 Output=int_initalOptXYZ_aligned_sp.out
 Initial command:
 /software/gaussian/g16-a03/l1.exe "/local_scratch/11171390/Gau-20022.inp" -scrdir="/local_scratch/11171390/"
 Entering Link 1 = /software/gaussian/g16-a03/l1.exe PID=     20023.
  
 Copyright (c) 1988,1990,1992,1993,1995,1998,2003,2009,2016,
            Gaussian, Inc.  All Rights Reserved.
  
 This is part of the Gaussian(R) 16 program.  It is based on
 the Gaussian(R) 09 system (copyright 2009, Gaussian, Inc.),
 the Gaussian(R) 03 system (copyright 2003, Gaussian, Inc.),
 the Gaussian(R) 98 system (copyright 1998, Gaussian, Inc.),
 the Gaussian(R) 94 system (copyright 1995, Gaussian, Inc.),
 the Gaussian 92(TM) system (copyright 1992, Gaussian, Inc.),
 the Gaussian 90(TM) system (copyright 1990, Gaussian, Inc.),
 the Gaussian 88(TM) system (copyright 1988, Gaussian, Inc.),
 the Gaussian 86(TM) system (copyright 1986, Carnegie Mellon
 University), and the Gaussian 82(TM) system (copyright 1983,
 Carnegie Mellon University). Gaussian is a federally registered
 trademark of Gaussian, Inc.
  
 This software contains proprietary and confidential information,
 including trade secrets, belonging to Gaussian, Inc.
  
 This software is provided under written license and may be
 used, copied, transmitted, or stored only in accord with that
 written license.
  
 The following legend is applicable only to US Government
 contracts under FAR:
  
                    RESTRICTED RIGHTS LEGEND
  
 Use, reproduction and disclosure by the US Government is
 subject to restrictions as set forth in subparagraphs (a)
 and (c) of the Commercial Computer Software - Restricted
 Rights clause in FAR 52.227-19.
  
 Gaussian, Inc.
 340 Quinnipiac St., Bldg. 40, Wallingford CT 06492
  
  
 ---------------------------------------------------------------
 Warning -- This program may not be used in any manner that
 competes with the business of Gaussian, Inc. or will provide
 assistance to any competitor of Gaussian, Inc.  The licensee
 of this program is prohibited from giving any competitor of
 Gaussian, Inc. access to this program.  By using this program,
 the user acknowledges that Gaussian, Inc. is engaged in the
 business of creating and licensing software in the field of
 computational chemistry and represents and warrants to the
 licensee that it is not a competitor of Gaussian, Inc. and that
 it will not use this program in any manner prohibited above.
 ---------------------------------------------------------------
  

 Cite this work as:
 Gaussian 16, Revision A.03,
 M. J. Frisch, G. W. Trucks, H. B. Schlegel, G. E. Scuseria, 
 M. A. Robb, J. R. Cheeseman, G. Scalmani, V. Barone, 
 G. A. Petersson, H. Nakatsuji, X. Li, M. Caricato, A. V. Marenich, 
 J. Bloino, B. G. Janesko, R. Gomperts, B. Mennucci, H. P. Hratchian, 
 J. V. Ortiz, A. F. Izmaylov, J. L. Sonnenberg, D. Williams-Young, 
 F. Ding, F. Lipparini, F. Egidi, J. Goings, B. Peng, A. Petrone, 
 T. Henderson, D. Ranasinghe, V. G. Zakrzewski, J. Gao, N. Rega, 
 G. Zheng, W. Liang, M. Hada, M. Ehara, K. Toyota, R. Fukuda, 
 J. Hasegawa, M. Ishida, T. Nakajima, Y. Honda, O. Kitao, H. Nakai, 
 T. Vreven, K. Throssell, J. A. Montgomery, Jr., J. E. Peralta, 
 F. Ogliaro, M. J. Bearpark, J. J. Heyd, E. N. Brothers, K. N. Kudin, 
 V. N. Staroverov, T. A. Keith, R. Kobayashi, J. Normand, 
 K. Raghavachari, A. P. Rendell, J. C. Burant, S. S. Iyengar, 
 J. Tomasi, M. Cossi, J. M. Millam, M. Klene, C. Adamo, R. Cammi, 
 J. W. Ochterski, R. L. Martin, K. Morokuma, O. Farkas, 
 J. B. Foresman, and D. J. Fox, Gaussian, Inc., Wallingford CT, 2016.
 
 ******************************************
 Gaussian 16:  ES64L-G16RevA.03 25-Dec-2016
                10-Jun-2022 
 ******************************************
 %nprocshared=12
 Will use up to   12 processors via shared memory.
 %chk=checkpoint.chk
 %mem=12GB
 --------------------------
 # sp B3LYP/Def2TZVP NoSymm
 --------------------------
 1/38=1,172=1/1;
 2/12=2,15=1,17=6,18=5,40=1/2;
 3/5=44,7=101,11=2,25=1,30=1,74=-5/1,2,3;
 4//1;
 5/5=2,38=5/2;
 6/7=2,8=2,9=2,10=2,28=1/1;
 99/5=1,9=1/99;
 ----------------------------------
 int_initalOptXYZ_aligned_AlignedSp
 ----------------------------------
 Symbolic Z-matrix:
 Charge =  0 Multiplicity = 1
 6                     1.84627   0.58775   1.26701 
 6                     0.49539  -0.06312   1.11104 
 6                     2.11192  -0.48846  -0.84492 
 6                     2.68542   0.36177   0.25854 
 6                    -0.13476   0.45651  -0.22764 
 6                     0.8326    0.20255  -1.38216 
 1                     0.35227  -0.41677  -2.13808 
 1                     1.08603   1.15564  -1.84859 
 1                     2.82036  -0.63865  -1.65944 
 1                    -0.17418   0.15407   1.93912 
 6                     1.69118  -1.84789  -0.23015 
 1                     1.21327  -2.45759  -0.99989 
 1                     2.57481  -2.39022   0.10821 
 6                     0.71956  -1.59021   0.94848 
 1                    -0.2355   -2.09536   0.78903 
 1                     1.12671  -1.97633   1.88345 
 1                     3.69549   0.74983   0.21691 
 1                     2.08661   1.18044   2.14004 
 7                    -0.43868   1.95703   0.06124 
 8                     0.07809   2.73237  -0.67488 
 6                    -1.5277   -0.14024  -0.46025 
 8                    -1.89291  -0.65682  -1.48512 
 8                    -2.31052   0.00191   0.61885 
 6                    -3.66123  -0.47356   0.48748 
 1                    -4.13849  -0.25715   1.43893 
 1                    -4.16868   0.04605  -0.32413 
 1                    -3.6703   -1.54428   0.28713 
 
                          Input orientation:                          
 ---------------------------------------------------------------------
 Center     Atomic      Atomic             Coordinates (Angstroms)
 Number     Number       Type             X           Y           Z
 ---------------------------------------------------------------------
      1          6           0        1.846268    0.587749    1.267007
      2          6           0        0.495392   -0.063121    1.111041
      3          6           0        2.111915   -0.488455   -0.844917
      4          6           0        2.685421    0.361770    0.258538
      5          6           0       -0.134758    0.456505   -0.227639
      6          6           0        0.832595    0.202551   -1.382157
      7          1           0        0.352270   -0.416767   -2.138078
      8          1           0        1.086028    1.155642   -1.848588
      9          1           0        2.820358   -0.638650   -1.659442
     10          1           0       -0.174183    0.154071    1.939121
     11          6           0        1.691179   -1.847885   -0.230152
     12          1           0        1.213271   -2.457589   -0.999894
     13          1           0        2.574813   -2.390224    0.108214
     14          6           0        0.719560   -1.590205    0.948481
     15          1           0       -0.235502   -2.095355    0.789027
     16          1           0        1.126713   -1.976326    1.883452
     17          1           0        3.695488    0.749826    0.216909
     18          1           0        2.086609    1.180435    2.140037
     19          7           0       -0.438677    1.957033    0.061241
     20          8           0        0.078088    2.732374   -0.674883
     21          6           0       -1.527699   -0.140238   -0.460246
     22          8           0       -1.892908   -0.656823   -1.485119
     23          8           0       -2.310520    0.001911    0.618845
     24          6           0       -3.661227   -0.473555    0.487484
     25          1           0       -4.138489   -0.257149    1.438932
     26          1           0       -4.168677    0.046049   -0.324134
     27          1           0       -3.670300   -1.544282    0.287127
 ---------------------------------------------------------------------
                    Distance matrix (angstroms):
                    1          2          3          4          5
     1  C    0.000000
     2  C    1.507589   0.000000
     3  C    2.385164   2.572903   0.000000
     4  C    1.331260   2.388205   1.506454   0.000000
     5  C    2.485087   1.568172   2.514264   2.863346   0.000000
     6  C    2.862513   2.529886   1.550089   2.479959   1.527474
     7  H    3.851712   3.271441   2.184892   3.434164   2.156288
     8  H    3.256900   3.254787   2.182397   2.761932   2.146296
     9  H    3.319188   3.662278   1.089909   2.167417   3.461522
    10  H    2.173025   1.086839   3.659228   3.323377   2.188120
    11  C    2.863189   2.532605   1.550163   2.471823   2.940113
    12  H    3.848845   3.271830   2.170039   3.420477   3.302348
    13  H    3.277484   3.277966   2.177030   2.758315   3.944419
    14  C    2.472734   1.551987   2.523645   2.854967   2.510406
    15  H    3.429472   2.183546   3.280589   3.853657   2.748772
    16  H    2.733541   2.157670   3.260120   3.246014   3.459289
    17  H    2.132742   3.420668   2.273437   1.082846   3.867098
    18  H    1.082230   2.266547   3.419910   2.137481   3.326325
    19  N    2.924001   2.460810   3.647883   3.513371   1.558012
    20  O    3.390695   3.343420   3.813018   3.645439   2.329144
    21  C    3.859666   2.562769   3.676414   4.303376   1.533132
    22  O    4.806724   3.577220   4.059164   5.003895   2.431429
    23  O    4.247612   2.849496   4.684121   5.021827   2.378472
    24  C    5.662731   4.223122   5.924921   6.405476   3.716503
    25  H    6.046547   4.649517   6.658605   6.952851   4.395068
    26  H    6.245377   4.881105   6.324772   6.886062   4.055895
    27  H    5.994851   4.497295   5.985842   6.635438   4.094898
                    6          7          8          9         10
     6  C    0.000000
     7  H    1.088891   0.000000
     8  H    1.090948   1.759169   0.000000
     9  H    2.176168   2.523843   2.502631   0.000000
    10  H    3.470856   4.150489   4.115582   4.748193   0.000000
    11  C    2.503711   2.735134   3.465071   2.186359   3.491869
    12  H    2.714293   2.490329   3.713746   2.515208   4.169365
    13  H    3.461071   3.725595   4.314942   2.500582   4.169249
    14  C    2.942554   3.322455   3.936695   3.481389   2.196052
    15  H    3.336951   3.425066   4.390038   4.177950   2.527131
    16  H    3.936777   4.382316   4.872269   4.148483   2.496802
    17  H    3.324557   4.252530   3.352648   2.492872   4.277300
    18  H    3.864539   4.884798   4.112287   4.275921   2.490978
    19  N    2.603409   3.331295   2.571848   4.507730   2.616689
    20  O    2.733043   3.483275   2.208984   4.455693   3.680259
    21  C    2.557032   2.534930   3.230846   4.537850   2.770485
    22  O    2.859631   2.350491   3.505881   4.716524   3.916246
    23  O    3.731412   3.855693   4.353833   5.650382   2.515992
    24  C    4.913971   4.796348   5.536059   6.829897   3.828922
    25  H    5.734243   5.743465   6.332404   7.626993   4.016841
    26  H    5.114355   4.893215   5.582749   7.148319   4.592382
    27  H    5.110186   4.830526   5.871416   6.836515   4.223307
                   11         12         13         14         15
    11  C    0.000000
    12  H    1.092080   0.000000
    13  H    1.090611   1.756769   0.000000
    14  C    1.549070   2.189126   2.188160   0.000000
    15  H    2.193642   2.330321   2.906600   1.092129   0.000000
    16  H    2.191447   2.924515   2.328041   1.090428   1.751446
    17  H    3.311377   4.234327   3.335812   3.855787   4.886211
    18  H    3.865861   4.884374   4.137179   3.311355   4.236535
    19  N    4.370194   4.831545   5.289799   3.835571   4.122233
    20  O    4.876333   5.322592   5.752207   4.661704   5.054536
    21  C    3.651052   3.629635   4.713405   3.022762   2.655737
    22  O    3.979856   3.623058   5.050141   3.690339   3.160397
    23  O    4.489559   4.592010   5.463473   3.438732   2.955196
    24  C    5.572435   5.468950   6.534957   4.544306   3.802204
    25  H    6.269076   6.279422   7.168629   5.061445   4.362876
    26  H    6.159037   5.974129   7.183106   5.309589   4.614608
    27  H    5.394924   5.132233   6.304686   4.439636   3.514744
                   16         17         18         19         20
    16  H    0.000000
    17  H    4.099741   0.000000
    18  H    3.309437   2.544079   0.000000
    19  N    4.608927   4.309629   3.361780   0.000000
    20  O    5.460453   4.220352   3.790309   1.187467   0.000000
    21  C    3.988739   5.341576   4.644230   2.420013   3.297957
    22  O    4.712374   6.008804   5.688043   3.367233   4.003494
    23  O    4.162598   6.065728   4.799759   2.763552   3.851572
    24  C    5.208783   7.462649   6.205178   4.058851   5.060786
    25  H    5.556574   7.992405   6.427289   4.526505   5.584352
    26  H    6.083140   7.914109   6.818180   4.208714   5.037299
    27  H    5.074076   7.715095   6.633201   4.770075   5.767639
                   21         22         23         24         25
    21  C    0.000000
    22  O    1.204410   0.000000
    23  O    1.340691   2.243879   0.000000
    24  C    2.358227   2.655504   1.437961   0.000000
    25  H    3.230599   3.708429   2.020180   1.086215   0.000000
    26  H    2.651036   2.649724   2.084204   1.089136   1.789202
    27  H    2.668454   2.662247   2.085606   1.089349   1.789572
                   26         27
    26  H    0.000000
    27  H    1.775154   0.000000
 Symmetry turned off by external request.
 Stoichiometry    C10H13NO3
 Framework group  C1[X(C10H13NO3)]
 Deg. of freedom    75
 Full point group                 C1      NOp   1
 Rotational constants (GHZ):           1.1242831           0.6249357           0.5342066
 Standard basis: def2TZVP (5D, 7F)
   512 basis functions,   818 primitive gaussians,   582 cartesian basis functions
    52 alpha electrons       52 beta electrons
       nuclear repulsion energy       965.8796242117 Hartrees.
 NAtoms=   27 NActive=   27 NUniq=   27 SFac= 1.00D+00 NAtFMM=   60 NAOKFM=F Big=F
 Integral buffers will be    131072 words long.
 Raffenetti 2 integral format.
 Two-electron integral symmetry is turned off.
 One-electron integrals computed using PRISM.
   1 Symmetry operations used in ECPInt.
 ECPInt:  NShTT=   21321 NPrTT=   64608 LenC2=   20379 LenP2D=   46970.
 LDataN:  DoStor=T MaxTD1= 6 Len=  172
 NBasis=   512 RedAO= T EigKep=  1.04D-05  NBF=   512
 NBsUse=   512 1.00D-06 EigRej= -1.00D+00 NBFU=   512
 ExpMin= 9.52D-02 ExpMax= 2.70D+04 ExpMxC= 9.22D+02 IAcc=3 IRadAn=         5 AccDes= 0.00D+00
 Harris functional with IExCor=  402 and IRadAn=       5 diagonalized for initial guess.
 HarFok:  IExCor=  402 AccDes= 0.00D+00 IRadAn=         5 IDoV= 1 UseB2=F ITyADJ=14
 ICtDFT=  3500011 ScaDFX=  1.000000  1.000000  1.000000  1.000000
 FoFCou: FMM=F IPFlag=           0 FMFlag=      100000 FMFlg1=           0
         NFxFlg=           0 DoJE=T BraDBF=F KetDBF=T FulRan=T
         wScrn=  0.000000 ICntrl=       500 IOpCl=  0 I1Cent=   200000004 NGrid=           0
         NMat0=    1 NMatS0=      1 NMatT0=    0 NMatD0=    1 NMtDS0=    0 NMtDT0=    0
 Symmetry not used in FoFCou.
 Requested convergence on RMS density matrix=1.00D-08 within 128 cycles.
 Requested convergence on MAX density matrix=1.00D-06.
 Requested convergence on             energy=1.00D-06.
 No special actions if energy rises.
 Integral accuracy reduced to 1.0D-05 until final iterations.
 Initial convergence to 1.0D-05 achieved.  Increase integral accuracy.
 SCF Done:  E(RB3LYP) =  -669.471113151     A.U. after   17 cycles
            NFock= 17  Conv=0.57D-08     -V/T= 2.0048

 **********************************************************************

            Population analysis using the SCF density.

 **********************************************************************

 Alpha  occ. eigenvalues --  -19.20250 -19.18603 -19.12770 -14.44206 -10.31355
 Alpha  occ. eigenvalues --  -10.23551 -10.22848 -10.19840 -10.18576 -10.18074
 Alpha  occ. eigenvalues --  -10.17487 -10.17355 -10.17257 -10.17163  -1.18551
 Alpha  occ. eigenvalues --   -1.12311  -1.03483  -0.88918  -0.80978  -0.76395
 Alpha  occ. eigenvalues --   -0.75494  -0.73822  -0.69138  -0.62364  -0.61463
 Alpha  occ. eigenvalues --   -0.60308  -0.56869  -0.54110  -0.53647  -0.51503
 Alpha  occ. eigenvalues --   -0.49246  -0.48983  -0.48375  -0.46921  -0.46014
 Alpha  occ. eigenvalues --   -0.45091  -0.43442  -0.42334  -0.41080  -0.40218
 Alpha  occ. eigenvalues --   -0.39751  -0.39169  -0.38243  -0.37246  -0.36912
 Alpha  occ. eigenvalues --   -0.33180  -0.32307  -0.31930  -0.31234  -0.29608
 Alpha  occ. eigenvalues --   -0.26076  -0.23487
 Alpha virt. eigenvalues --   -0.09681  -0.01617   0.00430   0.02535   0.04373
 Alpha virt. eigenvalues --    0.06167   0.06274   0.06621   0.07925   0.08640
 Alpha virt. eigenvalues --    0.09168   0.09909   0.10637   0.11137   0.11462
 Alpha virt. eigenvalues --    0.12312   0.13433   0.14657   0.15325   0.16103
 Alpha virt. eigenvalues --    0.17282   0.18153   0.18790   0.18917   0.19413
 Alpha virt. eigenvalues --    0.20143   0.20947   0.21842   0.22400   0.22968
 Alpha virt. eigenvalues --    0.23317   0.24425   0.25621   0.26047   0.26281
 Alpha virt. eigenvalues --    0.27992   0.29630   0.29908   0.30737   0.31355
 Alpha virt. eigenvalues --    0.32736   0.33308   0.33383   0.34721   0.35623
 Alpha virt. eigenvalues --    0.36034   0.36635   0.36993   0.38361   0.38504
 Alpha virt. eigenvalues --    0.38939   0.39708   0.40368   0.41068   0.41681
 Alpha virt. eigenvalues --    0.42343   0.42941   0.43154   0.43432   0.43981
 Alpha virt. eigenvalues --    0.44927   0.45434   0.45732   0.45941   0.46476
 Alpha virt. eigenvalues --    0.47458   0.47661   0.48470   0.49069   0.49559
 Alpha virt. eigenvalues --    0.50405   0.50697   0.51853   0.52077   0.53321
 Alpha virt. eigenvalues --    0.54275   0.55798   0.56964   0.57855   0.58939
 Alpha virt. eigenvalues --    0.59525   0.60025   0.61190   0.62104   0.62997
 Alpha virt. eigenvalues --    0.64349   0.65393   0.67097   0.68671   0.70553
 Alpha virt. eigenvalues --    0.72429   0.73455   0.74785   0.76326   0.77863
 Alpha virt. eigenvalues --    0.78721   0.79340   0.81058   0.82114   0.82245
 Alpha virt. eigenvalues --    0.83772   0.84243   0.84599   0.86840   0.87509
 Alpha virt. eigenvalues --    0.90335   0.92167   0.92694   0.94034   0.94624
 Alpha virt. eigenvalues --    0.95482   0.96407   0.98678   0.99225   1.00637
 Alpha virt. eigenvalues --    1.01338   1.02908   1.04204   1.06443   1.06894
 Alpha virt. eigenvalues --    1.07812   1.07999   1.09281   1.10833   1.11983
 Alpha virt. eigenvalues --    1.12660   1.14195   1.15619   1.16247   1.18462
 Alpha virt. eigenvalues --    1.19374   1.20890   1.21453   1.22250   1.24525
 Alpha virt. eigenvalues --    1.25496   1.26114   1.28352   1.28899   1.29267
 Alpha virt. eigenvalues --    1.31279   1.32297   1.33280   1.33849   1.35778
 Alpha virt. eigenvalues --    1.37552   1.39028   1.41369   1.41755   1.43345
 Alpha virt. eigenvalues --    1.45964   1.46623   1.47128   1.48673   1.50124
 Alpha virt. eigenvalues --    1.50646   1.51744   1.52102   1.52822   1.54244
 Alpha virt. eigenvalues --    1.55245   1.56365   1.57779   1.58001   1.59618
 Alpha virt. eigenvalues --    1.61263   1.62069   1.62830   1.64281   1.65534
 Alpha virt. eigenvalues --    1.66735   1.67977   1.69643   1.70913   1.71954
 Alpha virt. eigenvalues --    1.72854   1.74819   1.76311   1.78264   1.80351
 Alpha virt. eigenvalues --    1.81072   1.83234   1.85480   1.86572   1.87086
 Alpha virt. eigenvalues --    1.88107   1.89774   1.91135   1.92381   1.93144
 Alpha virt. eigenvalues --    1.94460   1.94981   1.95713   1.97294   1.98267
 Alpha virt. eigenvalues --    1.99021   2.01361   2.02654   2.04367   2.06109
 Alpha virt. eigenvalues --    2.08086   2.09101   2.09196   2.11361   2.11939
 Alpha virt. eigenvalues --    2.13186   2.14016   2.16043   2.16675   2.17260
 Alpha virt. eigenvalues --    2.20954   2.21993   2.23005   2.23573   2.25937
 Alpha virt. eigenvalues --    2.26460   2.27003   2.27738   2.29386   2.29764
 Alpha virt. eigenvalues --    2.31937   2.33527   2.34851   2.36558   2.38807
 Alpha virt. eigenvalues --    2.39674   2.40744   2.41816   2.42799   2.44607
 Alpha virt. eigenvalues --    2.45832   2.46931   2.47918   2.48979   2.50538
 Alpha virt. eigenvalues --    2.51899   2.52386   2.53178   2.54254   2.54699
 Alpha virt. eigenvalues --    2.56101   2.58619   2.59624   2.60317   2.60855
 Alpha virt. eigenvalues --    2.62171   2.64104   2.65407   2.66178   2.67224
 Alpha virt. eigenvalues --    2.68947   2.69523   2.70234   2.72152   2.73911
 Alpha virt. eigenvalues --    2.74148   2.76277   2.77977   2.78611   2.79974
 Alpha virt. eigenvalues --    2.80835   2.81715   2.82707   2.83336   2.86253
 Alpha virt. eigenvalues --    2.86645   2.88532   2.88869   2.90531   2.91980
 Alpha virt. eigenvalues --    2.93423   2.94691   2.95379   2.97985   2.99461
 Alpha virt. eigenvalues --    3.00696   3.01710   3.02916   3.03368   3.03844
 Alpha virt. eigenvalues --    3.05876   3.06687   3.08271   3.08319   3.10410
 Alpha virt. eigenvalues --    3.11359   3.12250   3.14364   3.14877   3.16088
 Alpha virt. eigenvalues --    3.17869   3.19200   3.19872   3.20462   3.21303
 Alpha virt. eigenvalues --    3.23491   3.25350   3.25983   3.27277   3.29994
 Alpha virt. eigenvalues --    3.30593   3.31290   3.31888   3.33216   3.34886
 Alpha virt. eigenvalues --    3.35069   3.35415   3.37097   3.38349   3.39133
 Alpha virt. eigenvalues --    3.39667   3.41087   3.42163   3.43010   3.44657
 Alpha virt. eigenvalues --    3.45775   3.47481   3.48058   3.49929   3.51104
 Alpha virt. eigenvalues --    3.51482   3.53296   3.54845   3.55394   3.56157
 Alpha virt. eigenvalues --    3.57631   3.58454   3.60375   3.61395   3.62616
 Alpha virt. eigenvalues --    3.63412   3.66005   3.66678   3.69130   3.69906
 Alpha virt. eigenvalues --    3.71059   3.74126   3.76651   3.79384   3.80793
 Alpha virt. eigenvalues --    3.81088   3.83723   3.86580   3.88777   3.90058
 Alpha virt. eigenvalues --    3.92020   3.94378   3.94986   3.97637   3.99948
 Alpha virt. eigenvalues --    4.00958   4.04376   4.05579   4.07088   4.07695
 Alpha virt. eigenvalues --    4.09346   4.10771   4.12438   4.13584   4.15033
 Alpha virt. eigenvalues --    4.16089   4.16579   4.17696   4.18676   4.19768
 Alpha virt. eigenvalues --    4.23582   4.26166   4.26318   4.29595   4.30310
 Alpha virt. eigenvalues --    4.31252   4.33447   4.35567   4.35861   4.37946
 Alpha virt. eigenvalues --    4.39492   4.41523   4.42779   4.44764   4.47756
 Alpha virt. eigenvalues --    4.48540   4.50722   4.51951   4.56581   4.57891
 Alpha virt. eigenvalues --    4.58872   4.61532   4.68236   4.73743   4.74274
 Alpha virt. eigenvalues --    4.80143   4.81434   4.82716   4.86267   4.88800
 Alpha virt. eigenvalues --    4.91162   4.91698   4.94455   4.96280   5.02937
 Alpha virt. eigenvalues --    5.03805   5.05820   5.08369   5.09985   5.12746
 Alpha virt. eigenvalues --    5.14031   5.15152   5.15824   5.17376   5.20229
 Alpha virt. eigenvalues --    5.20860   5.28671   5.31253   5.38368   5.43092
 Alpha virt. eigenvalues --    5.48664   5.55532   5.57801   5.63522   5.68315
 Alpha virt. eigenvalues --    5.74380   5.83949   5.97667   6.07535   6.17995
 Alpha virt. eigenvalues --    6.22702   6.27600   6.31192   6.35294   6.36978
 Alpha virt. eigenvalues --    6.41501   6.50336   6.53876   6.64612   6.67985
 Alpha virt. eigenvalues --    6.76935   6.85732   6.88936   6.90681   6.97412
 Alpha virt. eigenvalues --    7.02568   7.12982   7.13882   7.26744   7.35842
 Alpha virt. eigenvalues --    7.43371  22.27360  22.32414  22.47561  22.54541
 Alpha virt. eigenvalues --   22.59110  22.61962  22.72720  22.86978  22.92625
 Alpha virt. eigenvalues --   23.38782  32.29951  43.86852  43.94501  44.14168
          Condensed to atoms (all electrons):
               1          2          3          4          5          6
     1  C    5.362542   0.193788   0.036761   0.398426   0.067776  -0.086290
     2  C    0.193788   4.993237  -0.025020   0.010080   0.173836   0.011026
     3  C    0.036761  -0.025020   4.897082   0.217012  -0.006352   0.237573
     4  C    0.398426   0.010080   0.217012   5.287311  -0.066899   0.025314
     5  C    0.067776   0.173836  -0.006352  -0.066899   5.448183   0.244281
     6  C   -0.086290   0.011026   0.237573   0.025314   0.244281   5.183097
     7  H    0.006681  -0.004192  -0.016513  -0.001784  -0.013919   0.386228
     8  H   -0.011762   0.010821  -0.038588   0.012022  -0.060119   0.397422
     9  H    0.014451  -0.003817   0.444296  -0.062638   0.011796  -0.055754
    10  H   -0.073693   0.436606  -0.007449   0.022072  -0.059406   0.007125
    11  C   -0.040830  -0.017417   0.305118  -0.026192  -0.017709  -0.019481
    12  H    0.005525  -0.007307  -0.024682   0.003254   0.002028  -0.003013
    13  H   -0.003404   0.004583  -0.032621   0.003180  -0.000013   0.007797
    14  C   -0.007251   0.244122  -0.043379  -0.030877  -0.009785  -0.010826
    15  H    0.004418  -0.012639  -0.002483   0.004070  -0.011953  -0.000026
    16  H   -0.001340  -0.042746   0.003619  -0.000518   0.006965   0.002212
    17  H   -0.057341   0.013301  -0.053965   0.434940  -0.002761   0.008085
    18  H    0.445140  -0.054560   0.013835  -0.063194   0.008060  -0.001956
    19  N    0.006730  -0.026094   0.007791  -0.009767   0.170061  -0.016594
    20  O   -0.009182   0.008401  -0.005068   0.011028  -0.077157  -0.033085
    21  C   -0.008421   0.004988  -0.002240   0.006192   0.154182   0.010283
    22  O    0.000202  -0.000536   0.002180  -0.001231  -0.082419  -0.021427
    23  O    0.001634   0.010907   0.000200  -0.000519  -0.110301   0.001069
    24  C   -0.000075   0.000054  -0.000036   0.000053   0.002726  -0.000035
    25  H   -0.000007  -0.000085  -0.000000   0.000004   0.001889   0.000001
    26  H    0.000030   0.000507   0.000012  -0.000001  -0.002778   0.000001
    27  H   -0.000053  -0.001053  -0.000095   0.000011  -0.001208   0.000226
               7          8          9         10         11         12
     1  C    0.006681  -0.011762   0.014451  -0.073693  -0.040830   0.005525
     2  C   -0.004192   0.010821  -0.003817   0.436606  -0.017417  -0.007307
     3  C   -0.016513  -0.038588   0.444296  -0.007449   0.305118  -0.024682
     4  C   -0.001784   0.012022  -0.062638   0.022072  -0.026192   0.003254
     5  C   -0.013919  -0.060119   0.011796  -0.059406  -0.017709   0.002028
     6  C    0.386228   0.397422  -0.055754   0.007125  -0.019481  -0.003013
     7  H    0.542027  -0.027688  -0.001232  -0.000777  -0.003616   0.002310
     8  H   -0.027688   0.567743  -0.003297   0.000413   0.002660   0.000461
     9  H   -0.001232  -0.003297   0.637901   0.000089  -0.050477  -0.001241
    10  H   -0.000777   0.000413   0.000089   0.596147   0.005560  -0.000461
    11  C   -0.003616   0.002660  -0.050477   0.005560   4.988225   0.382301
    12  H    0.002310   0.000461  -0.001241  -0.000461   0.382301   0.613715
    13  H    0.000223  -0.000403  -0.004241  -0.000263   0.389898  -0.035110
    14  C   -0.002379   0.004351   0.011536  -0.030578   0.322305  -0.016115
    15  H   -0.000558  -0.000307  -0.000501  -0.000733  -0.018156  -0.015492
    16  H   -0.000083   0.000160  -0.000266  -0.003287  -0.032310   0.007225
    17  H   -0.000489   0.001105  -0.008335  -0.000047   0.006324  -0.000559
    18  H    0.000182  -0.000461  -0.000215  -0.010216  -0.000347   0.000164
    19  N    0.005787  -0.024104  -0.000277   0.010625   0.001636  -0.000054
    20  O   -0.002392   0.044050  -0.000007   0.000279  -0.001182   0.000005
    21  C   -0.021370   0.011037  -0.000842  -0.003521  -0.003592  -0.002727
    22  O    0.022078  -0.000687   0.000017   0.000200   0.003897   0.000908
    23  O    0.001407  -0.000284   0.000006   0.017486   0.001431  -0.000054
    24  C   -0.000358   0.000061  -0.000002  -0.000373  -0.000036  -0.000031
    25  H   -0.000003  -0.000000   0.000000  -0.000256  -0.000019   0.000000
    26  H   -0.000028  -0.000004  -0.000000   0.000143   0.000011  -0.000006
    27  H   -0.000056   0.000005  -0.000000   0.000196  -0.000024   0.000016
              13         14         15         16         17         18
     1  C   -0.003404  -0.007251   0.004418  -0.001340  -0.057341   0.445140
     2  C    0.004583   0.244122  -0.012639  -0.042746   0.013301  -0.054560
     3  C   -0.032621  -0.043379  -0.002483   0.003619  -0.053965   0.013835
     4  C    0.003180  -0.030877   0.004070  -0.000518   0.434940  -0.063194
     5  C   -0.000013  -0.009785  -0.011953   0.006965  -0.002761   0.008060
     6  C    0.007797  -0.010826  -0.000026   0.002212   0.008085  -0.001956
     7  H    0.000223  -0.002379  -0.000558  -0.000083  -0.000489   0.000182
     8  H   -0.000403   0.004351  -0.000307   0.000160   0.001105  -0.000461
     9  H   -0.004241   0.011536  -0.000501  -0.000266  -0.008335  -0.000215
    10  H   -0.000263  -0.030578  -0.000733  -0.003287  -0.000047  -0.010216
    11  C    0.389898   0.322305  -0.018156  -0.032310   0.006324  -0.000347
    12  H   -0.035110  -0.016115  -0.015492   0.007225  -0.000559   0.000164
    13  H    0.616421  -0.026725   0.006518  -0.017507   0.001342  -0.000261
    14  C   -0.026725   5.041305   0.371046   0.405146  -0.001349   0.003489
    15  H    0.006518   0.371046   0.606611  -0.034907   0.000150  -0.000523
    16  H   -0.017507   0.405146  -0.034907   0.612628  -0.000243   0.001213
    17  H    0.001342  -0.001349   0.000150  -0.000243   0.567531  -0.011436
    18  H   -0.000261   0.003489  -0.000523   0.001213  -0.011436   0.569965
    19  N    0.000052   0.002390   0.000439  -0.000286  -0.000181  -0.000077
    20  O    0.000003   0.000701  -0.000048   0.000026   0.000114  -0.000499
    21  C    0.000624   0.020272   0.003617  -0.000252   0.000222  -0.000569
    22  O    0.000047  -0.002197  -0.001063   0.000010  -0.000003   0.000013
    23  O   -0.000011  -0.011064   0.004267  -0.000274  -0.000003  -0.000018
    24  C    0.000000   0.000046  -0.000397   0.000017   0.000000  -0.000008
    25  H   -0.000000   0.000124  -0.000061  -0.000000   0.000000  -0.000001
    26  H   -0.000000  -0.000178   0.000183  -0.000003  -0.000000  -0.000001
    27  H    0.000002   0.000715  -0.000349   0.000003   0.000000  -0.000000
              19         20         21         22         23         24
     1  C    0.006730  -0.009182  -0.008421   0.000202   0.001634  -0.000075
     2  C   -0.026094   0.008401   0.004988  -0.000536   0.010907   0.000054
     3  C    0.007791  -0.005068  -0.002240   0.002180   0.000200  -0.000036
     4  C   -0.009767   0.011028   0.006192  -0.001231  -0.000519   0.000053
     5  C    0.170061  -0.077157   0.154182  -0.082419  -0.110301   0.002726
     6  C   -0.016594  -0.033085   0.010283  -0.021427   0.001069  -0.000035
     7  H    0.005787  -0.002392  -0.021370   0.022078   0.001407  -0.000358
     8  H   -0.024104   0.044050   0.011037  -0.000687  -0.000284   0.000061
     9  H   -0.000277  -0.000007  -0.000842   0.000017   0.000006  -0.000002
    10  H    0.010625   0.000279  -0.003521   0.000200   0.017486  -0.000373
    11  C    0.001636  -0.001182  -0.003592   0.003897   0.001431  -0.000036
    12  H   -0.000054   0.000005  -0.002727   0.000908  -0.000054  -0.000031
    13  H    0.000052   0.000003   0.000624   0.000047  -0.000011   0.000000
    14  C    0.002390   0.000701   0.020272  -0.002197  -0.011064   0.000046
    15  H    0.000439  -0.000048   0.003617  -0.001063   0.004267  -0.000397
    16  H   -0.000286   0.000026  -0.000252   0.000010  -0.000274   0.000017
    17  H   -0.000181   0.000114   0.000222  -0.000003  -0.000003   0.000000
    18  H   -0.000077  -0.000499  -0.000569   0.000013  -0.000018  -0.000008
    19  N    6.595935   0.226580   0.001822   0.000196  -0.009155   0.000539
    20  O    0.226580   8.022427   0.011346  -0.000042   0.000462   0.000023
    21  C    0.001822   0.011346   4.661075   0.643233   0.368250  -0.044256
    22  O    0.000196  -0.000042   0.643233   7.812908  -0.085176   0.000656
    23  O   -0.009155   0.000462   0.368250  -0.085176   7.945631   0.222101
    24  C    0.000539   0.000023  -0.044256   0.000656   0.222101   4.777634
    25  H    0.000095  -0.000006   0.006110   0.002011  -0.032839   0.392779
    26  H    0.000149  -0.000005  -0.012139   0.006876  -0.033394   0.418977
    27  H   -0.000120   0.000005  -0.004816   0.006605  -0.039391   0.413387
              25         26         27
     1  C   -0.000007   0.000030  -0.000053
     2  C   -0.000085   0.000507  -0.001053
     3  C   -0.000000   0.000012  -0.000095
     4  C    0.000004  -0.000001   0.000011
     5  C    0.001889  -0.002778  -0.001208
     6  C    0.000001   0.000001   0.000226
     7  H   -0.000003  -0.000028  -0.000056
     8  H   -0.000000  -0.000004   0.000005
     9  H    0.000000  -0.000000  -0.000000
    10  H   -0.000256   0.000143   0.000196
    11  C   -0.000019   0.000011  -0.000024
    12  H    0.000000  -0.000006   0.000016
    13  H   -0.000000  -0.000000   0.000002
    14  C    0.000124  -0.000178   0.000715
    15  H   -0.000061   0.000183  -0.000349
    16  H   -0.000000  -0.000003   0.000003
    17  H    0.000000  -0.000000   0.000000
    18  H   -0.000001  -0.000001  -0.000000
    19  N    0.000095   0.000149  -0.000120
    20  O   -0.000006  -0.000005   0.000005
    21  C    0.006110  -0.012139  -0.004816
    22  O    0.002011   0.006876   0.006605
    23  O   -0.032839  -0.033394  -0.039391
    24  C    0.392779   0.418977   0.413387
    25  H    0.552546  -0.025559  -0.027508
    26  H   -0.025559   0.556460  -0.041164
    27  H   -0.027508  -0.041164   0.567668
 Mulliken charges:
               1
     1  C   -0.244454
     2  C    0.079208
     3  C    0.093011
     4  C   -0.171349
     5  C    0.230994
     6  C   -0.273253
     7  H    0.130517
     8  H    0.115392
     9  H    0.073049
    10  H    0.094120
    11  C   -0.177980
    12  H    0.088942
    13  H    0.089870
    14  C   -0.234845
    15  H    0.098878
    16  H    0.094798
    17  H    0.103597
    18  H    0.102280
    19  N    0.055880
    20  O   -0.196778
    21  C    0.201493
    22  O   -0.307256
    23  O   -0.252365
    24  C   -0.183445
    25  H    0.130787
    26  H    0.131910
    27  H    0.126998
 Sum of Mulliken charges =  -0.00000
 Mulliken charges with hydrogens summed into heavy atoms:
               1
     1  C   -0.142174
     2  C    0.173329
     3  C    0.166061
     4  C   -0.067753
     5  C    0.230994
     6  C   -0.027344
    11  C    0.000832
    14  C   -0.041170
    19  N    0.055880
    20  O   -0.196778
    21  C    0.201493
    22  O   -0.307256
    23  O   -0.252365
    24  C    0.206250
 Electronic spatial extent (au):  <R**2>=           2399.0703
 Charge=             -0.0000 electrons
 Dipole moment (field-independent basis, Debye):
    X=              0.0644    Y=             -1.8643    Z=              1.6177  Tot=              2.4692
 Quadrupole moment (field-independent basis, Debye-Ang):
   XX=            -72.8447   YY=            -88.6875   ZZ=            -84.5876
   XY=              0.6171   XZ=             -4.6289   YZ=             -1.2785
 Traceless Quadrupole moment (field-independent basis, Debye-Ang):
   XX=              9.1952   YY=             -6.6476   ZZ=             -2.5476
   XY=              0.6171   XZ=             -4.6289   YZ=             -1.2785
 Octapole moment (field-independent basis, Debye-Ang**2):
  XXX=            -44.5000  YYY=            -21.4695  ZZZ=             14.9869  XYY=             -3.3401
  XXY=             -0.2688  XXZ=             10.5862  XZZ=              4.7809  YZZ=              3.5921
  YYZ=              5.4725  XYZ=              8.8558
 Hexadecapole moment (field-independent basis, Debye-Ang**3):
 XXXX=          -1611.7560 YYYY=           -869.4538 ZZZZ=           -517.0714 XXXY=             33.9564
 XXXZ=            -57.0571 YYYX=             13.5694 YYYZ=             27.1915 ZZZX=            -22.9958
 ZZZY=             21.2242 XXYY=           -433.6231 XXZZ=           -397.1049 YYZZ=           -222.0155
 XXYZ=             -3.5120 YYXZ=              3.6714 ZZXY=             -0.8529
 N-N= 9.658796242117D+02 E-N=-3.494534597244D+03  KE= 6.662557751941D+02
 1\1\GINC-BHC0107\SP\RB3LYP\def2TZVP\C10H13N1O3\DHANAWAY\10-Jun-2022\0\
 \# sp B3LYP/Def2TZVP NoSymm\\int_initalOptXYZ_aligned_AlignedSp\\0,1\C
 ,0,1.846268,0.587749,1.267007\C,0,0.495392,-0.063121,1.111041\C,0,2.11
 1915,-0.488455,-0.844917\C,0,2.685421,0.36177,0.258538\C,0,-0.134758,0
 .456505,-0.227639\C,0,0.832595,0.202551,-1.382157\H,0,0.35227,-0.41676
 7,-2.138078\H,0,1.086028,1.155642,-1.848588\H,0,2.820358,-0.63865,-1.6
 59442\H,0,-0.174183,0.154071,1.939121\C,0,1.691179,-1.847885,-0.230152
 \H,0,1.213271,-2.457589,-0.999894\H,0,2.574813,-2.390224,0.108214\C,0,
 0.71956,-1.590205,0.948481\H,0,-0.235502,-2.095355,0.789027\H,0,1.1267
 13,-1.976326,1.883452\H,0,3.695488,0.749826,0.216909\H,0,2.086609,1.18
 0435,2.140037\N,0,-0.438677,1.957033,0.061241\O,0,0.078088,2.732374,-0
 .674883\C,0,-1.527699,-0.140238,-0.460246\O,0,-1.892908,-0.656823,-1.4
 85119\O,0,-2.31052,0.001911,0.618845\C,0,-3.661227,-0.473555,0.487484\
 H,0,-4.138489,-0.257149,1.438932\H,0,-4.168677,0.046049,-0.324134\H,0,
 -3.6703,-1.544282,0.287127\\Version=ES64L-G16RevA.03\HF=-669.4711132\R
 MSD=5.687e-09\Dipole=0.0253347,-0.7334607,0.6364682\Quadrupole=6.83642
 07,-4.9423138,-1.8941069,0.4588078,-3.4415078,-0.9505381\PG=C01 [X(C10
 H13N1O3)]\\@


 "THE TIME HAS COME", THE WALRUS SAID,
 "TO TALK OF MANY THINGS,
 OF SHOES AND SHIPS AND SEALING WAX,
 OF CABBAGES AND KINGS,
 AND WHY THE SEA IS BOILING HOT,
 AND WHETHER PIGS HAVE WINGS."
 Job cpu time:       0 days  0 hours 59 minutes 14.4 seconds.
 Elapsed time:       0 days  0 hours  4 minutes 56.8 seconds.
 File lengths (MBytes):  RWF=    147 Int=      0 D2E=      0 Chk=     32 Scr=      1
 Normal termination of Gaussian 16 at Fri Jun 10 03:43:34 2022.
