 Entering Gaussian System, Link 0=g16
 Input=ts_zmat_field_N75.gjf
 Output=ts_zmat_field_N75.out
 Initial command:
 /software/gaussian/g16-a03/l1.exe "/local_scratch/9898591/Gau-22730.inp" -scrdir="/local_scratch/9898591/"
 Entering Link 1 = /software/gaussian/g16-a03/l1.exe PID=     22731.
  
 Copyright (c) 1988,1990,1992,1993,1995,1998,2003,2009,2016,
            Gaussian, Inc.  All Rights Reserved.
  
 This is part of the Gaussian(R) 16 program.  It is based on
 the Gaussian(R) 09 system (copyright 2009, Gaussian, Inc.),
 the Gaussian(R) 03 system (copyright 2003, Gaussian, Inc.),
 the Gaussian(R) 98 system (copyright 1998, Gaussian, Inc.),
 the Gaussian(R) 94 system (copyright 1995, Gaussian, Inc.),
 the Gaussian 92(TM) system (copyright 1992, Gaussian, Inc.),
 the Gaussian 90(TM) system (copyright 1990, Gaussian, Inc.),
 the Gaussian 88(TM) system (copyright 1988, Gaussian, Inc.),
 the Gaussian 86(TM) system (copyright 1986, Carnegie Mellon
 University), and the Gaussian 82(TM) system (copyright 1983,
 Carnegie Mellon University). Gaussian is a federally registered
 trademark of Gaussian, Inc.
  
 This software contains proprietary and confidential information,
 including trade secrets, belonging to Gaussian, Inc.
  
 This software is provided under written license and may be
 used, copied, transmitted, or stored only in accord with that
 written license.
  
 The following legend is applicable only to US Government
 contracts under FAR:
  
                    RESTRICTED RIGHTS LEGEND
  
 Use, reproduction and disclosure by the US Government is
 subject to restrictions as set forth in subparagraphs (a)
 and (c) of the Commercial Computer Software - Restricted
 Rights clause in FAR 52.227-19.
  
 Gaussian, Inc.
 340 Quinnipiac St., Bldg. 40, Wallingford CT 06492
  
  
 ---------------------------------------------------------------
 Warning -- This program may not be used in any manner that
 competes with the business of Gaussian, Inc. or will provide
 assistance to any competitor of Gaussian, Inc.  The licensee
 of this program is prohibited from giving any competitor of
 Gaussian, Inc. access to this program.  By using this program,
 the user acknowledges that Gaussian, Inc. is engaged in the
 business of creating and licensing software in the field of
 computational chemistry and represents and warrants to the
 licensee that it is not a competitor of Gaussian, Inc. and that
 it will not use this program in any manner prohibited above.
 ---------------------------------------------------------------
  

 Cite this work as:
 Gaussian 16, Revision A.03,
 M. J. Frisch, G. W. Trucks, H. B. Schlegel, G. E. Scuseria, 
 M. A. Robb, J. R. Cheeseman, G. Scalmani, V. Barone, 
 G. A. Petersson, H. Nakatsuji, X. Li, M. Caricato, A. V. Marenich, 
 J. Bloino, B. G. Janesko, R. Gomperts, B. Mennucci, H. P. Hratchian, 
 J. V. Ortiz, A. F. Izmaylov, J. L. Sonnenberg, D. Williams-Young, 
 F. Ding, F. Lipparini, F. Egidi, J. Goings, B. Peng, A. Petrone, 
 T. Henderson, D. Ranasinghe, V. G. Zakrzewski, J. Gao, N. Rega, 
 G. Zheng, W. Liang, M. Hada, M. Ehara, K. Toyota, R. Fukuda, 
 J. Hasegawa, M. Ishida, T. Nakajima, Y. Honda, O. Kitao, H. Nakai, 
 T. Vreven, K. Throssell, J. A. Montgomery, Jr., J. E. Peralta, 
 F. Ogliaro, M. J. Bearpark, J. J. Heyd, E. N. Brothers, K. N. Kudin, 
 V. N. Staroverov, T. A. Keith, R. Kobayashi, J. Normand, 
 K. Raghavachari, A. P. Rendell, J. C. Burant, S. S. Iyengar, 
 J. Tomasi, M. Cossi, J. M. Millam, M. Klene, C. Adamo, R. Cammi, 
 J. W. Ochterski, R. L. Martin, K. Morokuma, O. Farkas, 
 J. B. Foresman, and D. J. Fox, Gaussian, Inc., Wallingford CT, 2016.
 
 ******************************************
 Gaussian 16:  ES64L-G16RevA.03 25-Dec-2016
                18-Mar-2022 
 ******************************************
 %nprocshared=12
 Will use up to   12 processors via shared memory.
 %chk=checkpoint.chk
 %mem=12GB
 ----------------------------------------------------------------------
 # Opt=(TS, CalcFC, noeigentest, Z-matrix, MaxStep=10) geom=allcheckpoi
 nt guess=read Field=read NoSymm B3LYP/Def2TZVP
 ----------------------------------------------------------------------
 1/5=1,8=10,10=4,11=1,18=40,26=3,29=7,38=1/1,3;
 2/12=2,15=1,29=3,40=1/2;
 3/5=44,7=101,11=2,14=-6,25=1,30=1,71=2,74=-5,116=-2,140=1/1,2,3;
 4/5=1/1;
 5/5=2,38=6/2;
 8/6=4,10=90,11=11/1;
 11/6=1,8=1,9=11,15=111,16=1,31=1/1,2,10;
 10/6=1,13=1,31=1/2;
 6/7=2,8=2,9=2,10=2,28=1/1;
 7/10=1,18=20,25=1,30=1/1,2,3,16;
 1/5=1,8=10,10=4,11=1,18=40,26=3/3(2);
 2/15=1,29=3/2;
 99//99;
 2/15=1,29=3/2;
 3/5=44,7=101,11=2,14=-2,25=1,30=1,71=1,74=-5/1,2,3;
 4/5=5,16=3,69=1/1;
 5/5=2,38=5/2;
 7/30=1/1,2,3,16;
 1/5=1,8=10,11=1,18=40,26=3/3(-5);
 2/15=1,29=3/2;
 6/7=2,8=2,9=2,10=2,19=2,28=1/1;
 99/9=1/99;
 Structure from the checkpoint file:  "checkpoint.chk"
 -----------------
 ts_zmat_initalOpt
 -----------------
 Charge =  0 Multiplicity = 1
 Z-Matrix found in chk file.
 C
 C,1,R2
 C,1,R3,2,A3
 H,1,R4,2,A4,3,D4,0
 H,2,R5,1,A5,3,D5,0
 H,3,R6,1,A6,2,D6,0
 C,3,R7,1,A7,6,D7,0
 C,2,R8,1,A8,5,D8,0
 H,7,R9,3,A9,1,D9,0
 O,7,R10,3,A10,9,D10,0
 H,8,R11,2,A11,1,D11,0
 H,8,R12,2,A12,11,D12,0
      Variables:
 R2=1.38545853
 R3=1.4023379
 R4=1.08533308
 R5=1.08268257
 R6=1.08126661
 R7=1.40679411
 R8=1.39327738
 R9=1.09706133
 R10=1.26342737
 R11=1.0827622
 R12=1.0813177
 A3=120.69692286
 A4=120.23845909
 A5=121.07200544
 A6=119.67677611
 A7=119.03999033
 A8=117.11979823
 A9=115.64576247
 A10=128.31465044
 A11=120.71330043
 A12=118.33854681
 D4=-169.58850542
 D5=150.85520002
 D6=-178.26897151
 D7=155.08675018
 D8=-171.33823372
 D9=-143.7648966
 D10=171.39338331
 D11=163.9232459
 D12=151.71251857
 Recover connectivity data from disk.

 GradGradGradGradGradGradGradGradGradGradGradGradGradGradGradGradGradGrad
 Berny optimization.
 Initialization pass.
                       ----------------------------
                       !    Initial Parameters    !
                       ! (Angstroms and Degrees)  !
 ----------------------                            ----------------------
 !      Name          Value   Derivative information (Atomic Units)     !
 ------------------------------------------------------------------------
 !       R2          1.3855   calculate D2E/DX2 analytically            !
 !       R3          1.4023   calculate D2E/DX2 analytically            !
 !       R4          1.0853   calculate D2E/DX2 analytically            !
 !       R5          1.0827   calculate D2E/DX2 analytically            !
 !       R6          1.0813   calculate D2E/DX2 analytically            !
 !       R7          1.4068   calculate D2E/DX2 analytically            !
 !       R8          1.3933   calculate D2E/DX2 analytically            !
 !       R9          1.0971   calculate D2E/DX2 analytically            !
 !       R10         1.2634   calculate D2E/DX2 analytically            !
 !       R11         1.0828   calculate D2E/DX2 analytically            !
 !       R12         1.0813   calculate D2E/DX2 analytically            !
 !       A3        120.6969   calculate D2E/DX2 analytically            !
 !       A4        120.2385   calculate D2E/DX2 analytically            !
 !       A5        121.072    calculate D2E/DX2 analytically            !
 !       A6        119.6768   calculate D2E/DX2 analytically            !
 !       A7        119.04     calculate D2E/DX2 analytically            !
 !       A8        117.1198   calculate D2E/DX2 analytically            !
 !       A9        115.6458   calculate D2E/DX2 analytically            !
 !       A10       128.3147   calculate D2E/DX2 analytically            !
 !       A11       120.7133   calculate D2E/DX2 analytically            !
 !       A12       118.3385   calculate D2E/DX2 analytically            !
 !       D4       -169.5885   calculate D2E/DX2 analytically            !
 !       D5        150.8552   calculate D2E/DX2 analytically            !
 !       D6       -178.269    calculate D2E/DX2 analytically            !
 !       D7        155.0868   calculate D2E/DX2 analytically            !
 !       D8       -171.3382   calculate D2E/DX2 analytically            !
 !       D9       -143.7649   calculate D2E/DX2 analytically            !
 !       D10       171.3934   calculate D2E/DX2 analytically            !
 !       D11       163.9232   calculate D2E/DX2 analytically            !
 !       D12       151.7125   calculate D2E/DX2 analytically            !
 ------------------------------------------------------------------------
 Trust Radius=1.00D-01 FncErr=1.00D-07 GrdErr=1.00D-06 EigMax=2.50D+02 EigMin=1.00D-04
 Number of steps in this run=     40 maximum allowed number of steps=    100.
 Search for a saddle point of order  1.
 GradGradGradGradGradGradGradGradGradGradGradGradGradGradGradGradGradGrad

 ---------------------------------------------------------------------------------------------------
                            Z-MATRIX (ANGSTROMS AND DEGREES)
   CD    Cent   Atom    N1       Length/X        N2       Alpha/Y        N3        Beta/Z          J
 ---------------------------------------------------------------------------------------------------
      1      1  C 
      2      2  C        1   1.385459(     1)
      3      3  C        1   1.402338(     2)      2  120.697(    12)
      4      4  H        1   1.085333(     3)      2  120.238(    13)      3 -169.589(    22)      0
      5      5  H        2   1.082683(     4)      1  121.072(    14)      3  150.855(    23)      0
      6      6  H        3   1.081267(     5)      1  119.677(    15)      2 -178.269(    24)      0
      7      7  C        3   1.406794(     6)      1  119.040(    16)      6  155.087(    25)      0
      8      8  C        2   1.393277(     7)      1  117.120(    17)      5 -171.338(    26)      0
      9      9  H        7   1.097061(     8)      3  115.646(    18)      1 -143.765(    27)      0
     10     10  O        7   1.263427(     9)      3  128.315(    19)      9  171.393(    28)      0
     11     11  H        8   1.082762(    10)      2  120.713(    20)      1  163.923(    29)      0
     12     12  H        8   1.081318(    11)      2  118.339(    21)     11  151.713(    30)      0
 ---------------------------------------------------------------------------------------------------
                         Z-Matrix orientation:                         
 ---------------------------------------------------------------------
 Center     Atomic      Atomic             Coordinates (Angstroms)
 Number     Number       Type             X           Y           Z
 ---------------------------------------------------------------------
      1          6           0        0.000000    0.000000    0.000000
      2          6           0        0.000000    0.000000    1.385459
      3          6           0        1.205842    0.000000   -0.715889
      4          1           0       -0.922221    0.169450   -0.546574
      5          1           0       -0.809930    0.451631    1.944247
      6          1           0        1.186810    0.028378   -1.796616
      7          6           0        2.370222    0.484172   -0.092298
      8          6           0        1.161690   -0.433946    2.020587
      9          1           0        3.063726    1.032541   -0.741827
     10          8           0        2.650732    0.498997    1.139507
     11          1           0        1.331017   -0.222014    3.068818
     12          1           0        1.647340   -1.325739    1.648973
 ---------------------------------------------------------------------
                    Distance matrix (angstroms):
                    1          2          3          4          5
     1  C    0.000000
     2  C    1.385459   0.000000
     3  C    1.402338   2.422750   0.000000
     4  H    1.085333   2.147546   2.141502   0.000000
     5  H    2.154078   1.082683   3.368031   2.509268   0.000000
     6  H    2.153404   3.396309   1.081267   2.455711   4.261475
     7  C    2.420929   2.834809   1.406794   3.338503   3.776499
     8  C    2.370782   1.393277   2.771022   3.361114   2.162720
     9  H    3.317056   3.870129   2.125687   4.082992   4.749490
    10  O    2.928115   2.708482   2.403997   3.964526   3.553313
    11  H    3.352393   2.157451   3.793279   4.278012   2.510401
    12  H    2.681497   2.130904   2.746830   3.695763   3.047033
                    6          7          8          9         10
     6  H    0.000000
     7  C    2.124361   0.000000
     8  C    3.845181   2.601495   0.000000
     9  H    2.375655   1.097061   3.660499   0.000000
    10  O    3.314418   1.263427   1.965689   1.998662   0.000000
    11  H    4.874006   3.401661   1.082762   4.370034   2.446170
    12  H    3.730657   2.613496   1.081318   3.644661   2.143831
                   11         12
    11  H    0.000000
    12  H    1.825987   0.000000
 Symmetry turned off by external request.
 Stoichiometry    C5H6O
 Framework group  C1[X(C5H6O)]
 Deg. of freedom    30
 Full point group                 C1      NOp   1
 Rotational constants (GHZ):           5.5496394           4.6756236           2.7127083
 Standard basis: def2TZVP (5D, 7F)
 The following finite field(s) will be applied:
 An electric field of              0.0051  0.0051  0.0022
   222 basis functions,   354 primitive gaussians,   252 cartesian basis functions
    22 alpha electrons       22 beta electrons
       nuclear repulsion energy       217.9544051518 Hartrees.
 NAtoms=   12 NActive=   12 NUniq=   12 SFac= 1.00D+00 NAtFMM=   60 NAOKFM=F Big=F
 Integral buffers will be    131072 words long.
 Raffenetti 2 integral format.
 Two-electron integral symmetry is turned off.
 One-electron integrals computed using PRISM.
   1 Symmetry operations used in ECPInt.
 ECPInt:  NShTT=    4095 NPrTT=   12396 LenC2=    4075 LenP2D=   10363.
 LDataN:  DoStor=T MaxTD1= 6 Len=  172
 NBasis=   222 RedAO= T EigKep=  1.13D-04  NBF=   222
 NBsUse=   222 1.00D-06 EigRej= -1.00D+00 NBFU=   222
 The nuclear repulsion energy is now       218.6418752911 hartrees.
 Initial guess from the checkpoint file:  "checkpoint.chk"
 B after Tr=     0.000000   -0.000000   -0.000000
         Rot=    1.000000    0.000000   -0.000000   -0.000000 Ang=   0.00 deg.
 Keep R1 ints in memory in canonical form, NReq=319363861.
 Requested convergence on RMS density matrix=1.00D-08 within 128 cycles.
 Requested convergence on MAX density matrix=1.00D-06.
 Requested convergence on             energy=1.00D-06.
 No special actions if energy rises.
 SCF Done:  E(RB3LYP) =  -269.396008412     A.U. after   10 cycles
            NFock= 10  Conv=0.92D-08     -V/T= 2.0050
 DoSCS=F DFT=T ScalE2(SS,OS)=  1.000000  1.000000
 Range of M.O.s used for correlation:     1   222
 NBasis=   222 NAE=    22 NBE=    22 NFC=     0 NFV=     0
 NROrb=    222 NOA=    22 NOB=    22 NVA=   200 NVB=   200

 **** Warning!!: The largest alpha MO coefficient is  0.18975442D+02

   1 Symmetry operations used in ECPInt.
 ECPInt:  NShTT=    4095 NPrTT=   12396 LenC2=    4075 LenP2D=   10363.
 LDataN:  DoStor=T MaxTD1= 7 Len=  274
 Symmetrizing basis deriv contribution to polar:
 IMax=3 JMax=2 DiffMx= 0.00D+00
 G2DrvN: will do    13 centers at a time, making    1 passes.
 Calling FoFCou, ICntrl=  3107 FMM=F I1Cent=   0 AccDes= 0.00D+00.
 End of G2Drv F.D. properties file   721 does not exist.
 End of G2Drv F.D. properties file   722 does not exist.
 End of G2Drv F.D. properties file   788 does not exist.
          IDoAtm=111111111111
          Differentiating once with respect to nuclear coordinates.
 Keep R1 ints in memory in canonical form, NReq=319333990.
          There are    39 degrees of freedom in the 1st order CPHF.  IDoFFX=6 NUNeed=     0.
     33 vectors produced by pass  0 Test12= 1.13D-14 2.56D-09 XBig12= 1.47D-01 1.66D-01.
 AX will form    33 AO Fock derivatives at one time.
     33 vectors produced by pass  1 Test12= 1.13D-14 2.56D-09 XBig12= 1.95D-02 4.21D-02.
     33 vectors produced by pass  2 Test12= 1.13D-14 2.56D-09 XBig12= 2.50D-04 3.17D-03.
     33 vectors produced by pass  3 Test12= 1.13D-14 2.56D-09 XBig12= 1.09D-06 1.51D-04.
     33 vectors produced by pass  4 Test12= 1.13D-14 2.56D-09 XBig12= 2.61D-09 6.83D-06.
     31 vectors produced by pass  5 Test12= 1.13D-14 2.56D-09 XBig12= 5.33D-12 3.27D-07.
      9 vectors produced by pass  6 Test12= 1.13D-14 2.56D-09 XBig12= 8.14D-15 1.25D-08.
 InvSVY:  IOpt=1 It=  1 EMax= 2.44D-15
 Solved reduced A of dimension   205 with    33 vectors.
 End of Minotr F.D. properties file   721 does not exist.
 End of Minotr F.D. properties file   722 does not exist.
 End of Minotr F.D. properties file   788 does not exist.

 **********************************************************************

            Population analysis using the SCF density.

 **********************************************************************

 Alpha  occ. eigenvalues --  -19.15909 -10.26860 -10.23648 -10.20737 -10.18401
 Alpha  occ. eigenvalues --  -10.18014  -1.06243  -0.84133  -0.77097  -0.68112
 Alpha  occ. eigenvalues --   -0.62225  -0.54133  -0.52354  -0.48469  -0.47451
 Alpha  occ. eigenvalues --   -0.45778  -0.40996  -0.39568  -0.38880  -0.34252
 Alpha  occ. eigenvalues --   -0.30312  -0.22917
 Alpha virt. eigenvalues --   -0.08381  -0.01292   0.03173   0.04149   0.05525
 Alpha virt. eigenvalues --    0.06699   0.08486   0.10128   0.11725   0.13691
 Alpha virt. eigenvalues --    0.16423   0.18471   0.19225   0.20674   0.21234
 Alpha virt. eigenvalues --    0.21890   0.23454   0.25731   0.26831   0.27669
 Alpha virt. eigenvalues --    0.29569   0.32021   0.32576   0.34573   0.37095
 Alpha virt. eigenvalues --    0.38262   0.38988   0.41069   0.41466   0.42520
 Alpha virt. eigenvalues --    0.43301   0.44176   0.44317   0.46597   0.48578
 Alpha virt. eigenvalues --    0.51621   0.52419   0.54276   0.55535   0.56669
 Alpha virt. eigenvalues --    0.60345   0.64220   0.67330   0.68506   0.73905
 Alpha virt. eigenvalues --    0.78267   0.81070   0.85590   0.86172   0.87955
 Alpha virt. eigenvalues --    0.91143   0.92631   0.95054   0.95382   0.96809
 Alpha virt. eigenvalues --    1.00137   1.02435   1.06070   1.09539   1.10696
 Alpha virt. eigenvalues --    1.13740   1.15893   1.18122   1.22218   1.22288
 Alpha virt. eigenvalues --    1.27837   1.30189   1.33207   1.38225   1.38615
 Alpha virt. eigenvalues --    1.41841   1.42690   1.45213   1.46274   1.49996
 Alpha virt. eigenvalues --    1.51640   1.56386   1.58599   1.62179   1.63668
 Alpha virt. eigenvalues --    1.65782   1.67281   1.72346   1.76568   1.77326
 Alpha virt. eigenvalues --    1.80004   1.81499   1.84226   1.87664   1.90148
 Alpha virt. eigenvalues --    1.93127   1.95646   2.04207   2.05169   2.09038
 Alpha virt. eigenvalues --    2.13341   2.14356   2.18824   2.19344   2.24442
 Alpha virt. eigenvalues --    2.26490   2.30641   2.36762   2.40556   2.43413
 Alpha virt. eigenvalues --    2.48300   2.50483   2.51830   2.53748   2.54804
 Alpha virt. eigenvalues --    2.57386   2.60128   2.61715   2.64102   2.66824
 Alpha virt. eigenvalues --    2.69100   2.69627   2.75529   2.77236   2.78014
 Alpha virt. eigenvalues --    2.80318   2.82507   2.83249   2.85167   2.87826
 Alpha virt. eigenvalues --    2.90363   2.93650   2.94954   2.96920   3.00565
 Alpha virt. eigenvalues --    3.01557   3.03623   3.05094   3.10625   3.12330
 Alpha virt. eigenvalues --    3.13871   3.16599   3.18617   3.21621   3.22308
 Alpha virt. eigenvalues --    3.23858   3.26658   3.27857   3.33655   3.35075
 Alpha virt. eigenvalues --    3.38150   3.40578   3.42294   3.44064   3.46799
 Alpha virt. eigenvalues --    3.48453   3.51001   3.57048   3.61991   3.62099
 Alpha virt. eigenvalues --    3.67553   3.84205   3.88398   3.90694   3.92779
 Alpha virt. eigenvalues --    3.95914   4.01308   4.02927   4.07359   4.10318
 Alpha virt. eigenvalues --    4.14828   4.16810   4.24841   4.29031   4.31609
 Alpha virt. eigenvalues --    4.37380   4.42824   4.47100   4.53257   4.63915
 Alpha virt. eigenvalues --    4.65666   4.71146   4.79928   4.84531   4.85702
 Alpha virt. eigenvalues --    5.04803   5.13850   5.23326   5.27468   5.49360
 Alpha virt. eigenvalues --    5.59268   5.96603   6.18912   6.31312   6.48818
 Alpha virt. eigenvalues --    6.70843   6.76394   6.94980   7.06439  22.04888
 Alpha virt. eigenvalues --   22.32941  22.48979  22.68856  22.86313  43.79278
          Condensed to atoms (all electrons):
               1          2          3          4          5          6
     1  C    4.868955   0.488352   0.469692   0.421987  -0.050292  -0.044834
     2  C    0.488352   4.997861  -0.032473  -0.041452   0.421924   0.008972
     3  C    0.469692  -0.032473   5.229352  -0.048132   0.008126   0.409841
     4  H    0.421987  -0.041452  -0.048132   0.525537  -0.005399  -0.006508
     5  H   -0.050292   0.421924   0.008126  -0.005399   0.560225  -0.000196
     6  H   -0.044834   0.008972   0.409841  -0.006508  -0.000196   0.553710
     7  C   -0.022905  -0.057531   0.427855   0.003139  -0.002374  -0.040256
     8  C   -0.080076   0.497219  -0.004222   0.010754  -0.044530   0.000069
     9  H    0.000020  -0.004201  -0.104656  -0.000799   0.000072  -0.000629
    10  O   -0.012709  -0.026933  -0.128545  -0.000767   0.001015   0.005898
    11  H    0.010408  -0.045713  -0.000613  -0.000226  -0.006283   0.000014
    12  H   -0.031956  -0.021866   0.029129  -0.000084   0.005827   0.000092
               7          8          9         10         11         12
     1  C   -0.022905  -0.080076   0.000020  -0.012709   0.010408  -0.031956
     2  C   -0.057531   0.497219  -0.004201  -0.026933  -0.045713  -0.021866
     3  C    0.427855  -0.004222  -0.104656  -0.128545  -0.000613   0.029129
     4  H    0.003139   0.010754  -0.000799  -0.000767  -0.000226  -0.000084
     5  H   -0.002374  -0.044530   0.000072   0.001015  -0.006283   0.005827
     6  H   -0.040256   0.000069  -0.000629   0.005898   0.000014   0.000092
     7  C    4.678401  -0.044434   0.410347   0.497501   0.001053  -0.009909
     8  C   -0.044434   4.848482   0.003362   0.065124   0.397018   0.426840
     9  H    0.410347   0.003362   0.655077  -0.038943  -0.000082  -0.001452
    10  O    0.497501   0.065124  -0.038943   8.024709  -0.002465  -0.049813
    11  H    0.001053   0.397018  -0.000082  -0.002465   0.566718  -0.032309
    12  H   -0.009909   0.426840  -0.001452  -0.049813  -0.032309   0.540814
 Mulliken charges:
               1
     1  C   -0.016639
     2  C   -0.184159
     3  C   -0.255354
     4  H    0.141949
     5  H    0.111885
     6  H    0.113828
     7  C    0.159115
     8  C   -0.075605
     9  H    0.081884
    10  O   -0.334072
    11  H    0.112481
    12  H    0.144688
 Sum of Mulliken charges =  -0.00000
 Mulliken charges with hydrogens summed into heavy atoms:
               1
     1  C    0.125310
     2  C   -0.072274
     3  C   -0.141526
     7  C    0.240999
     8  C    0.181563
    10  O   -0.334072
 APT charges:
               1
     1  C   -0.374817
     2  C   -0.465542
     3  C   -0.535157
     4  H    0.295320
     5  H    0.382482
     6  H    0.378842
     7  C   -0.394801
     8  C   -0.668679
     9  H    0.522407
    10  O   -0.085048
    11  H    0.599634
    12  H    0.345357
 Sum of APT charges =  -0.00000
 APT charges with hydrogens summed into heavy atoms:
               1
     1  C   -0.079497
     2  C   -0.083059
     3  C   -0.156314
     7  C    0.127606
     8  C    0.276312
    10  O   -0.085048
 Electronic spatial extent (au):  <R**2>=            799.6437
 Charge=             -0.0000 electrons
 Dipole moment (field-independent basis, Debye):
    X=             -1.9668    Y=             -0.7162    Z=             -0.7971  Tot=              2.2398
 Quadrupole moment (field-independent basis, Debye-Ang):
   XX=            -41.0418   YY=            -37.7365   ZZ=            -32.8477
   XY=             -2.4183   XZ=             -3.7760   YZ=             -2.1807
 Traceless Quadrupole moment (field-independent basis, Debye-Ang):
   XX=             -3.8331   YY=             -0.5278   ZZ=              4.3610
   XY=             -2.4183   XZ=             -3.7760   YZ=             -2.1807
 Octapole moment (field-independent basis, Debye-Ang**2):
  XXX=           -150.5067  YYY=            -11.1774  ZZZ=            -58.9300  XYY=            -43.9955
  XXY=             -6.8214  XXZ=            -37.1815  XZZ=            -44.0222  YZZ=             -5.5104
  YYZ=            -22.7682  XYZ=             -7.3600
 Hexadecapole moment (field-independent basis, Debye-Ang**3):
 XXXX=           -669.6485 YYYY=            -76.8949 ZZZZ=           -331.0042 XXXY=            -43.0437
 XXXZ=           -121.9813 YYYX=            -35.9535 YYYZ=              8.5411 ZZZX=            -66.1280
 ZZZY=              8.7803 XXYY=           -115.5680 XXZZ=           -172.9936 YYZZ=            -78.2942
 XXYZ=            -12.7663 YYXZ=            -24.4906 ZZXY=            -19.8418
 N-N= 2.186418752911D+02 E-N=-1.064532094600D+03  KE= 2.680599580449D+02
  Exact polarizability:   0.000   0.000   0.000   0.000   0.000   0.000
 Approx polarizability: 133.545  13.726  67.883  -2.645  -6.536 129.743
   1 Symmetry operations used in ECPInt.
 ECPInt:  NShTT=    4095 NPrTT=   12396 LenC2=    4075 LenP2D=   10363.
 LDataN:  DoStor=T MaxTD1= 8 Len=  415
 Calling FoFJK, ICntrl=    100147 FMM=F ISym2X=0 I1Cent= 0 IOpClX= 0 NMat=1 NMatS=1 NMatT=0.
 -------------------------------------------------------------------
 Center     Atomic                   Forces (Hartrees/Bohr)
 Number     Number              X              Y              Z
 -------------------------------------------------------------------
      1        6          -0.000540752   -0.001365077    0.000224589
      2        6           0.000694070    0.001028064    0.000222505
      3        6           0.001233693    0.001588401    0.000066742
      4        1           0.000064674   -0.000249230    0.000028667
      5        1          -0.000164947   -0.000298555   -0.000055956
      6        1          -0.000089295   -0.000242820    0.000021215
      7        6          -0.001621902   -0.000887328   -0.001676711
      8        6          -0.001276803   -0.000553074   -0.000082898
      9        1           0.000078626    0.000083290   -0.000371447
     10        8           0.001801732    0.000968178    0.001468846
     11        1          -0.000138706   -0.000111443    0.000133487
     12        1          -0.000040389    0.000039593    0.000020960
 -------------------------------------------------------------------
 Cartesian Forces:  Max     0.001801732 RMS     0.000796092
 -----------------------------------------------------------------------------------------------
                       Internal Coordinate Forces (Hartree/Bohr or radian)
  Cent   Atom   N1       Length/X         N2         Alpha/Y        N3         Beta/Z          J
 -----------------------------------------------------------------------------------------------
      1  C 
      2  C        1   0.000238(     1)
      3  C        1   0.001457(     2)      2   0.004790(    12)
      4  H        1  -0.000108(     3)      2   0.000061(    13)      3  -0.000414(    22)     0
      5  H        2  -0.000030(     4)      1  -0.000097(    14)      3  -0.001980(    23)     0
      6  H        3  -0.000026(     5)      1  -0.000176(    15)      2  -0.003514(    24)     0
      7  C        3   0.000014(     6)      1   0.005389(    16)      6  -0.003082(    25)     0
      8  C        2  -0.000987(     7)      1   0.001738(    17)      5  -0.002578(    26)     0
      9  H        7   0.000311(     8)      3  -0.000473(    18)      1  -0.000538(    27)     0
     10  O        7   0.001843(     9)      3   0.004055(    19)      9  -0.000451(    28)     0
     11  H        8   0.000086(    10)      2  -0.000152(    20)      1   0.000313(    29)     0
     12  H        8  -0.000058(    11)      2  -0.000021(    21)     11  -0.000024(    30)     0
 -----------------------------------------------------------------------------------------------
 Internal  Forces:  Max     0.005388781 RMS     0.001928574

 GradGradGradGradGradGradGradGradGradGradGradGradGradGradGradGradGradGrad
 Berny optimization.
 Search for a saddle point.
 Step number   1 out of a maximum of   40
 All quantities printed in internal units (Hartrees-Bohrs-Radians)
 Swapping is turned off.
 Second derivative matrix not updated -- analytic derivatives used.
 ITU=  0
     Eigenvalues ---   -0.77802   0.02573   0.02764   0.04024   0.04159
     Eigenvalues ---    0.04967   0.10759   0.12667   0.14373   0.16585
     Eigenvalues ---    0.18482   0.19827   0.25182   0.27179   0.29500
     Eigenvalues ---    0.32081   0.34670   0.35059   0.35354   0.35702
     Eigenvalues ---    0.36331   0.39563   0.40058   0.43652   0.46327
     Eigenvalues ---    0.52849   0.56588   0.70326   0.92163   2.75393
 Eigenvectors required to have negative eigenvalues:
                          A7        A3        D12       R8        R10
   1                    0.46784   0.42170   0.29263  -0.27522  -0.26664
                          A8        A10       R7        D11       R2
   1                    0.25543   0.24707   0.23268   0.22054   0.19228
 RFO step:  Lambda0=5.404285914D-05 Lambda=-9.59961231D-05.
 Linear search not attempted -- option 19 set.
 Variable       Old X    -DE/DX   Delta X   Delta X   Delta X     New X
                                 (Linear)    (Quad)   (Total)
    R2        2.61814   0.00024   0.00000  -0.00316  -0.00316   2.61497
    R3        2.65003   0.00146   0.00000   0.00346   0.00346   2.65349
    R4        2.05098  -0.00011   0.00000  -0.00051  -0.00051   2.05047
    R5        2.04597  -0.00003   0.00000  -0.00025  -0.00025   2.04572
    R6        2.04330  -0.00003   0.00000  -0.00022  -0.00022   2.04308
    R7        2.65846   0.00001   0.00000  -0.00563  -0.00563   2.65282
    R8        2.63291  -0.00099   0.00000   0.00163   0.00163   2.63455
    R9        2.07315   0.00031   0.00000   0.00028   0.00028   2.07343
   R10        2.38753   0.00184   0.00000   0.00665   0.00665   2.39418
   R11        2.04612   0.00009   0.00000   0.00026   0.00026   2.04639
   R12        2.04339  -0.00006   0.00000   0.00022   0.00022   2.04362
    A3        2.10656   0.00479   0.00000  -0.00189  -0.00189   2.10467
    A4        2.09856   0.00006   0.00000   0.00213   0.00213   2.10068
    A5        2.11311  -0.00010   0.00000   0.00257   0.00257   2.11567
    A6        2.08875  -0.00018   0.00000  -0.00006  -0.00006   2.08869
    A7        2.07764   0.00539   0.00000   0.00063   0.00063   2.07827
    A8        2.04413   0.00174   0.00000  -0.00173  -0.00173   2.04239
    A9        2.01840  -0.00047   0.00000   0.00025   0.00025   2.01865
   A10        2.23951   0.00406   0.00000   0.00202   0.00202   2.24154
   A11        2.10684  -0.00015   0.00000  -0.00113  -0.00113   2.10571
   A12        2.06540  -0.00002   0.00000  -0.00138  -0.00138   2.06402
    D4       -2.95988  -0.00041   0.00000  -0.00819  -0.00819  -2.96807
    D5        2.63292  -0.00198   0.00000   0.02081   0.02081   2.65373
    D6       -3.11138  -0.00351   0.00000  -0.01357  -0.01357  -3.12495
    D7        2.70677  -0.00308   0.00000   0.00789   0.00789   2.71467
    D8       -2.99042  -0.00258   0.00000  -0.01394  -0.01394  -3.00435
    D9       -2.50917  -0.00054   0.00000  -0.00730  -0.00730  -2.51647
   D10        2.99138  -0.00045   0.00000   0.00005   0.00005   2.99143
   D11        2.86100   0.00031   0.00000   0.00599   0.00599   2.86699
   D12        2.64788  -0.00002   0.00000  -0.00719  -0.00719   2.64070
         Item               Value     Threshold  Converged?
 Maximum Force            0.005389     0.000450     NO 
 RMS     Force            0.001929     0.000300     NO 
 Maximum Displacement     0.020808     0.001800     NO 
 RMS     Displacement     0.006345     0.001200     NO 
 Predicted change in Energy=-2.102946D-05
 GradGradGradGradGradGradGradGradGradGradGradGradGradGradGradGradGradGrad

 ---------------------------------------------------------------------------------------------------
                            Z-MATRIX (ANGSTROMS AND DEGREES)
   CD    Cent   Atom    N1       Length/X        N2       Alpha/Y        N3        Beta/Z          J
 ---------------------------------------------------------------------------------------------------
      1      1  C 
      2      2  C        1   1.383785(     1)
      3      3  C        1   1.404168(     2)      2  120.589(    12)
      4      4  H        1   1.085062(     3)      2  120.360(    13)      3 -170.058(    22)      0
      5      5  H        2   1.082550(     4)      1  121.219(    14)      3  152.047(    23)      0
      6      6  H        3   1.081149(     5)      1  119.673(    15)      2 -179.046(    24)      0
      7      7  C        3   1.403813(     6)      1  119.076(    16)      6  155.539(    25)      0
      8      8  C        2   1.394142(     7)      1  117.021(    17)      5 -172.137(    26)      0
      9      9  H        7   1.097212(     8)      3  115.660(    18)      1 -144.183(    27)      0
     10     10  O        7   1.266946(     9)      3  128.431(    19)      9  171.396(    28)      0
     11     11  H        8   1.082902(    10)      2  120.648(    20)      1  164.266(    29)      0
     12     12  H        8   1.081436(    11)      2  118.259(    21)     11  151.301(    30)      0
 ---------------------------------------------------------------------------------------------------
                         Z-Matrix orientation:                         
 ---------------------------------------------------------------------
 Center     Atomic      Atomic             Coordinates (Angstroms)
 Number     Number       Type             X           Y           Z
 ---------------------------------------------------------------------
      1          6           0        0.000000    0.000000    0.000000
      2          6           0        0.000000    0.000000    1.383785
      3          6           0        1.208767    0.000000   -0.714542
      4          1           0       -0.922200    0.161650   -0.548431
      5          1           0       -0.817780    0.433954    1.944885
      6          1           0        1.191557    0.015634   -1.795441
      7          6           0        2.368561    0.489372   -0.093186
      8          6           0        1.166399   -0.426595    2.017158
      9          1           0        3.065128    1.030279   -0.745940
     10          8           0        2.647397    0.518782    1.142345
     11          1           0        1.332417   -0.218319    3.066794
     12          1           0        1.655939   -1.315689    1.643839
 ---------------------------------------------------------------------
                    Distance matrix (angstroms):
                    1          2          3          4          5
     1  C    0.000000
     2  C    1.383785   0.000000
     3  C    1.404168   2.421589   0.000000
     4  H    1.085062   2.147101   2.143536   0.000000
     5  H    2.153986   1.082550   3.371611   2.510314   0.000000
     6  H    2.154915   3.395222   1.081149   2.458521   4.266435
     7  C    2.420383   2.833904   1.403813   3.338227   3.782800
     8  C    2.368839   1.394142   2.765133   3.360138   2.163964
     9  H    3.318570   3.871978   2.123331   4.085622   4.761629
    10  O    2.929642   2.708531   2.405581   3.965891   3.557910
    11  H    3.350854   2.157665   3.789651   4.277560   2.511471
    12  H    2.678690   2.130915   2.737327   3.692612   3.044859
                    6          7          8          9         10
     6  H    0.000000
     7  C    2.123073   0.000000
     8  C    3.838243   2.595716   0.000000
     9  H    2.375127   1.097212   3.655456   0.000000
    10  O    3.317110   1.266946   1.962750   2.000437   0.000000
    11  H    4.869898   3.399984   1.082902   4.370151   2.444584
    12  H    3.717085   2.604483   1.081436   3.633238   2.144707
                   11         12
    11  H    0.000000
    12  H    1.825839   0.000000
 Symmetry turned off by external request.
 Stoichiometry    C5H6O
 Framework group  C1[X(C5H6O)]
 Deg. of freedom    30
 Full point group                 C1      NOp   1
 Rotational constants (GHZ):           5.5559159           4.6756136           2.7152679
 Standard basis: def2TZVP (5D, 7F)
 The following finite field(s) will be applied:
 An electric field of              0.0051  0.0051  0.0022
   222 basis functions,   354 primitive gaussians,   252 cartesian basis functions
    22 alpha electrons       22 beta electrons
       nuclear repulsion energy       217.9777167686 Hartrees.
 NAtoms=   12 NActive=   12 NUniq=   12 SFac= 1.00D+00 NAtFMM=   60 NAOKFM=F Big=F
 Integral buffers will be    131072 words long.
 Raffenetti 2 integral format.
 Two-electron integral symmetry is turned off.
 One-electron integrals computed using PRISM.
   1 Symmetry operations used in ECPInt.
 ECPInt:  NShTT=    4095 NPrTT=   12396 LenC2=    4074 LenP2D=   10361.
 LDataN:  DoStor=T MaxTD1= 6 Len=  172
 NBasis=   222 RedAO= T EigKep=  1.11D-04  NBF=   222
 NBsUse=   222 1.00D-06 EigRej= -1.00D+00 NBFU=   222
 The nuclear repulsion energy is now       218.6672700924 hartrees.
 Initial guess from the checkpoint file:  "checkpoint.chk"
 B after Tr=     0.003069   -0.008365   -0.002400
         Rot=    0.999995    0.001334    0.000470   -0.002959 Ang=   0.38 deg.
 ExpMin= 9.52D-02 ExpMax= 2.70D+04 ExpMxC= 9.22D+02 IAcc=2 IRadAn=         4 AccDes= 0.00D+00
 Harris functional with IExCor=  402 and IRadAn=       4 diagonalized for initial guess.
 HarFok:  IExCor=  402 AccDes= 0.00D+00 IRadAn=         4 IDoV= 1 UseB2=F ITyADJ=14
 ICtDFT=  3500011 ScaDFX=  1.000000  1.000000  1.000000  1.000000
 FoFCou: FMM=F IPFlag=           0 FMFlag=      100000 FMFlg1=           0
         NFxFlg=           0 DoJE=T BraDBF=F KetDBF=T FulRan=T
         wScrn=  0.000000 ICntrl=       500 IOpCl=  0 I1Cent=   200000004 NGrid=           0
         NMat0=    1 NMatS0=      1 NMatT0=    0 NMatD0=    1 NMtDS0=    0 NMtDT0=    0
 Symmetry not used in FoFCou.
 Keep R1 ints in memory in canonical form, NReq=319363861.
 Requested convergence on RMS density matrix=1.00D-08 within 128 cycles.
 Requested convergence on MAX density matrix=1.00D-06.
 Requested convergence on             energy=1.00D-06.
 No special actions if energy rises.
 Integral accuracy reduced to 1.0D-05 until final iterations.
 Initial convergence to 1.0D-05 achieved.  Increase integral accuracy.
 SCF Done:  E(RB3LYP) =  -269.396029268     A.U. after   12 cycles
            NFock= 12  Conv=0.45D-08     -V/T= 2.0050
   1 Symmetry operations used in ECPInt.
 ECPInt:  NShTT=    4095 NPrTT=   12396 LenC2=    4074 LenP2D=   10361.
 LDataN:  DoStor=T MaxTD1= 7 Len=  274
 Calling FoFJK, ICntrl=      2127 FMM=F ISym2X=0 I1Cent= 0 IOpClX= 0 NMat=1 NMatS=1 NMatT=0.
 -------------------------------------------------------------------
 Center     Atomic                   Forces (Hartrees/Bohr)
 Number     Number              X              Y              Z
 -------------------------------------------------------------------
      1        6           0.000059466   -0.001977675   -0.000010540
      2        6          -0.000058626    0.000909472    0.000012089
      3        6          -0.000007842    0.001076160   -0.000007655
      4        1          -0.000001423   -0.000004164   -0.000000131
      5        1          -0.000004371   -0.000000651   -0.000001937
      6        1          -0.000001887   -0.000003957   -0.000001210
      7        6           0.000010013    0.000026551   -0.000027170
      8        6           0.000001460   -0.000000135    0.000010967
      9        1           0.000003641   -0.000000604   -0.000005474
     10        8          -0.000002766   -0.000029167    0.000032137
     11        1           0.000000230    0.000002259    0.000000381
     12        1           0.000002104    0.000001911   -0.000001456
 -------------------------------------------------------------------
 Cartesian Forces:  Max     0.001977675 RMS     0.000405089
 -----------------------------------------------------------------------------------------------
                       Internal Coordinate Forces (Hartree/Bohr or radian)
  Cent   Atom   N1       Length/X         N2         Alpha/Y        N3         Beta/Z          J
 -----------------------------------------------------------------------------------------------
      1  C 
      2  C        1   0.000020(     1)
      3  C        1   0.000006(     2)      2   0.000017(    12)
      4  H        1   0.000001(     3)      2  -0.000000(    13)      3  -0.000008(    22)     0
      5  H        2   0.000002(     4)      1  -0.000007(    14)      3   0.000022(    23)     0
      6  H        3   0.000001(     5)      1  -0.000004(    15)      2   0.000069(    24)     0
      7  C        3   0.000008(     6)      1  -0.000007(    16)      6   0.000076(    25)     0
      8  C        2   0.000006(     7)      1   0.000021(    17)      5   0.000018(    26)     0
      9  H        7   0.000005(     8)      3  -0.000004(    18)      1   0.000037(    27)     0
     10  O        7   0.000030(     9)      3  -0.000052(    19)      9   0.000043(    28)     0
     11  H        8   0.000001(    10)      2  -0.000002(    20)      1   0.000002(    29)     0
     12  H        8  -0.000000(    11)      2   0.000001(    21)     11   0.000006(    30)     0
 -----------------------------------------------------------------------------------------------
 Internal  Forces:  Max     0.000076309 RMS     0.000025626

 GradGradGradGradGradGradGradGradGradGradGradGradGradGradGradGradGradGrad
 Berny optimization.
 Search for a saddle point.
 Step number   2 out of a maximum of   40
 All quantities printed in internal units (Hartrees-Bohrs-Radians)
 Swapping is turned off.
 Update second derivatives using D2CorN and points    1    2
 ITU=  0  0
     Eigenvalues ---   -0.77807   0.02580   0.02758   0.04029   0.04159
     Eigenvalues ---    0.04974   0.10756   0.12667   0.14374   0.16583
     Eigenvalues ---    0.18483   0.19840   0.25196   0.27179   0.29500
     Eigenvalues ---    0.32081   0.34670   0.35059   0.35354   0.35702
     Eigenvalues ---    0.36331   0.39564   0.40060   0.43655   0.46328
     Eigenvalues ---    0.52849   0.56591   0.70301   0.92169   2.75412
 Eigenvectors required to have negative eigenvalues:
                          A7        A3        D12       R8        R10
   1                    0.46783   0.42164   0.29266  -0.27524  -0.26673
                          A8        A10       R7        D11       R2
   1                    0.25537   0.24718   0.23267   0.22055   0.19224
 RFO step:  Lambda0=6.658240626D-11 Lambda=-3.81755181D-08.
 Linear search not attempted -- option 19 set.
 Variable       Old X    -DE/DX   Delta X   Delta X   Delta X     New X
                                 (Linear)    (Quad)   (Total)
    R2        2.61497   0.00002   0.00000   0.00003   0.00003   2.61501
    R3        2.65349   0.00001   0.00000  -0.00000  -0.00000   2.65349
    R4        2.05047   0.00000   0.00000   0.00000   0.00000   2.05047
    R5        2.04572   0.00000   0.00000   0.00001   0.00001   2.04573
    R6        2.04308   0.00000   0.00000   0.00000   0.00000   2.04308
    R7        2.65282   0.00001   0.00000   0.00001   0.00001   2.65283
    R8        2.63455   0.00001   0.00000   0.00002   0.00002   2.63457
    R9        2.07343   0.00001   0.00000   0.00001   0.00001   2.07344
   R10        2.39418   0.00003   0.00000   0.00005   0.00005   2.39424
   R11        2.04639   0.00000   0.00000   0.00001   0.00001   2.04639
   R12        2.04362  -0.00000   0.00000  -0.00001  -0.00001   2.04361
    A3        2.10467   0.00002   0.00000   0.00005   0.00005   2.10472
    A4        2.10068  -0.00000   0.00000  -0.00004  -0.00004   2.10064
    A5        2.11567  -0.00001   0.00000  -0.00007  -0.00007   2.11561
    A6        2.08869  -0.00000   0.00000  -0.00002  -0.00002   2.08867
    A7        2.07827  -0.00001   0.00000   0.00006   0.00006   2.07833
    A8        2.04239   0.00002   0.00000   0.00008   0.00008   2.04248
    A9        2.01865  -0.00000   0.00000   0.00006   0.00006   2.01870
   A10        2.24154  -0.00005   0.00000  -0.00008  -0.00008   2.24145
   A11        2.10571  -0.00000   0.00000  -0.00003  -0.00003   2.10568
   A12        2.06402   0.00000   0.00000   0.00002   0.00002   2.06404
    D4       -2.96807  -0.00001   0.00000   0.00011   0.00011  -2.96796
    D5        2.65373   0.00002   0.00000  -0.00017  -0.00017   2.65356
    D6       -3.12495   0.00007   0.00000   0.00019   0.00019  -3.12476
    D7        2.71467   0.00008   0.00000   0.00029   0.00029   2.71496
    D8       -3.00435   0.00002   0.00000  -0.00018  -0.00018  -3.00453
    D9       -2.51647   0.00004   0.00000  -0.00016  -0.00016  -2.51663
   D10        2.99143   0.00004   0.00000   0.00017   0.00017   2.99160
   D11        2.86699   0.00000   0.00000  -0.00007  -0.00007   2.86692
   D12        2.64070   0.00001   0.00000  -0.00004  -0.00004   2.64066
         Item               Value     Threshold  Converged?
 Maximum Force            0.000076     0.000450     YES
 RMS     Force            0.000026     0.000300     YES
 Maximum Displacement     0.000293     0.001800     YES
 RMS     Displacement     0.000098     0.001200     YES
 Predicted change in Energy=-1.905447D-08
 Optimization completed.
    -- Stationary point found.
                       ----------------------------
                       !   Optimized Parameters   !
                       ! (Angstroms and Degrees)  !
 ----------------------                            ----------------------
 !      Name          Value   Derivative information (Atomic Units)     !
 ------------------------------------------------------------------------
 !       R2          1.3838   -DE/DX =    0.0                           !
 !       R3          1.4042   -DE/DX =    0.0                           !
 !       R4          1.0851   -DE/DX =    0.0                           !
 !       R5          1.0825   -DE/DX =    0.0                           !
 !       R6          1.0811   -DE/DX =    0.0                           !
 !       R7          1.4038   -DE/DX =    0.0                           !
 !       R8          1.3941   -DE/DX =    0.0                           !
 !       R9          1.0972   -DE/DX =    0.0                           !
 !       R10         1.2669   -DE/DX =    0.0                           !
 !       R11         1.0829   -DE/DX =    0.0                           !
 !       R12         1.0814   -DE/DX =    0.0                           !
 !       A3        120.5887   -DE/DX =    0.0                           !
 !       A4        120.3604   -DE/DX =    0.0                           !
 !       A5        121.2192   -DE/DX =    0.0                           !
 !       A6        119.6731   -DE/DX =    0.0                           !
 !       A7        119.076    -DE/DX =    0.0                           !
 !       A8        117.0206   -DE/DX =    0.0                           !
 !       A9        115.66     -DE/DX =    0.0                           !
 !       A10       128.4306   -DE/DX =   -0.0001                        !
 !       A11       120.6483   -DE/DX =    0.0                           !
 !       A12       118.2595   -DE/DX =    0.0                           !
 !       D4       -170.0578   -DE/DX =    0.0                           !
 !       D5        152.0474   -DE/DX =    0.0                           !
 !       D6       -179.0464   -DE/DX =    0.0001                        !
 !       D7        155.5389   -DE/DX =    0.0001                        !
 !       D8       -172.1367   -DE/DX =    0.0                           !
 !       D9       -144.183    -DE/DX =    0.0                           !
 !       D10       171.3962   -DE/DX =    0.0                           !
 !       D11       164.2663   -DE/DX =    0.0                           !
 !       D12       151.3008   -DE/DX =    0.0                           !
 ------------------------------------------------------------------------
 GradGradGradGradGradGradGradGradGradGradGradGradGradGradGradGradGradGrad

 ---------------------------------------------------------------------------------------------------
                            Z-MATRIX (ANGSTROMS AND DEGREES)
   CD    Cent   Atom    N1       Length/X        N2       Alpha/Y        N3        Beta/Z          J
 ---------------------------------------------------------------------------------------------------
      1      1  C 
      2      2  C        1   1.383785(     1)
      3      3  C        1   1.404168(     2)      2  120.589(    12)
      4      4  H        1   1.085062(     3)      2  120.360(    13)      3 -170.058(    22)      0
      5      5  H        2   1.082550(     4)      1  121.219(    14)      3  152.047(    23)      0
      6      6  H        3   1.081149(     5)      1  119.673(    15)      2 -179.046(    24)      0
      7      7  C        3   1.403813(     6)      1  119.076(    16)      6  155.539(    25)      0
      8      8  C        2   1.394142(     7)      1  117.021(    17)      5 -172.137(    26)      0
      9      9  H        7   1.097212(     8)      3  115.660(    18)      1 -144.183(    27)      0
     10     10  O        7   1.266946(     9)      3  128.431(    19)      9  171.396(    28)      0
     11     11  H        8   1.082902(    10)      2  120.648(    20)      1  164.266(    29)      0
     12     12  H        8   1.081436(    11)      2  118.259(    21)     11  151.301(    30)      0
 ---------------------------------------------------------------------------------------------------
                         Z-Matrix orientation:                         
 ---------------------------------------------------------------------
 Center     Atomic      Atomic             Coordinates (Angstroms)
 Number     Number       Type             X           Y           Z
 ---------------------------------------------------------------------
      1          6           0        0.000000    0.000000    0.000000
      2          6           0        0.000000    0.000000    1.383785
      3          6           0        1.208767    0.000000   -0.714542
      4          1           0       -0.922200    0.161650   -0.548431
      5          1           0       -0.817780    0.433954    1.944885
      6          1           0        1.191557    0.015634   -1.795441
      7          6           0        2.368561    0.489372   -0.093186
      8          6           0        1.166399   -0.426595    2.017158
      9          1           0        3.065128    1.030279   -0.745940
     10          8           0        2.647397    0.518782    1.142345
     11          1           0        1.332417   -0.218319    3.066794
     12          1           0        1.655939   -1.315689    1.643839
 ---------------------------------------------------------------------
                    Distance matrix (angstroms):
                    1          2          3          4          5
     1  C    0.000000
     2  C    1.383785   0.000000
     3  C    1.404168   2.421589   0.000000
     4  H    1.085062   2.147101   2.143536   0.000000
     5  H    2.153986   1.082550   3.371611   2.510314   0.000000
     6  H    2.154915   3.395222   1.081149   2.458521   4.266435
     7  C    2.420383   2.833904   1.403813   3.338227   3.782800
     8  C    2.368839   1.394142   2.765133   3.360138   2.163964
     9  H    3.318570   3.871978   2.123331   4.085622   4.761629
    10  O    2.929642   2.708531   2.405581   3.965891   3.557910
    11  H    3.350854   2.157665   3.789651   4.277560   2.511471
    12  H    2.678690   2.130915   2.737327   3.692612   3.044859
                    6          7          8          9         10
     6  H    0.000000
     7  C    2.123073   0.000000
     8  C    3.838243   2.595716   0.000000
     9  H    2.375127   1.097212   3.655456   0.000000
    10  O    3.317110   1.266946   1.962750   2.000437   0.000000
    11  H    4.869898   3.399984   1.082902   4.370151   2.444584
    12  H    3.717085   2.604483   1.081436   3.633238   2.144707
                   11         12
    11  H    0.000000
    12  H    1.825839   0.000000
 Symmetry turned off by external request.
 Stoichiometry    C5H6O
 Framework group  C1[X(C5H6O)]
 Deg. of freedom    30
 Full point group                 C1      NOp   1
 Rotational constants (GHZ):           5.5559159           4.6756136           2.7152679

 **********************************************************************

            Population analysis using the SCF density.

 **********************************************************************

 Alpha  occ. eigenvalues --  -19.15935 -10.26821 -10.23756 -10.20726 -10.18370
 Alpha  occ. eigenvalues --  -10.18020  -1.06096  -0.84157  -0.77119  -0.68158
 Alpha  occ. eigenvalues --   -0.62213  -0.54135  -0.52376  -0.48445  -0.47443
 Alpha  occ. eigenvalues --   -0.45765  -0.40961  -0.39539  -0.38888  -0.34318
 Alpha  occ. eigenvalues --   -0.30311  -0.22921
 Alpha virt. eigenvalues --   -0.08430  -0.01241   0.03170   0.04153   0.05538
 Alpha virt. eigenvalues --    0.06713   0.08487   0.10122   0.11716   0.13699
 Alpha virt. eigenvalues --    0.16371   0.18481   0.19224   0.20725   0.21181
 Alpha virt. eigenvalues --    0.21924   0.23461   0.25678   0.26872   0.27675
 Alpha virt. eigenvalues --    0.29579   0.32009   0.32595   0.34511   0.37054
 Alpha virt. eigenvalues --    0.38258   0.38965   0.41073   0.41386   0.42533
 Alpha virt. eigenvalues --    0.43308   0.44136   0.44272   0.46594   0.48571
 Alpha virt. eigenvalues --    0.51602   0.52449   0.54672   0.55521   0.56620
 Alpha virt. eigenvalues --    0.60303   0.64192   0.67295   0.68669   0.74045
 Alpha virt. eigenvalues --    0.78110   0.81107   0.85509   0.86343   0.87826
 Alpha virt. eigenvalues --    0.91085   0.92633   0.95051   0.95331   0.96916
 Alpha virt. eigenvalues --    1.00156   1.02450   1.06108   1.09599   1.10632
 Alpha virt. eigenvalues --    1.13796   1.15878   1.17995   1.22217   1.22335
 Alpha virt. eigenvalues --    1.27812   1.30336   1.33326   1.38286   1.38630
 Alpha virt. eigenvalues --    1.41924   1.42631   1.45180   1.46243   1.49937
 Alpha virt. eigenvalues --    1.51630   1.56430   1.58642   1.62230   1.63707
 Alpha virt. eigenvalues --    1.65869   1.67236   1.72217   1.76651   1.77331
 Alpha virt. eigenvalues --    1.80053   1.81576   1.84189   1.88067   1.90122
 Alpha virt. eigenvalues --    1.93111   1.95624   2.04318   2.04999   2.08964
 Alpha virt. eigenvalues --    2.13154   2.14313   2.18952   2.19416   2.24332
 Alpha virt. eigenvalues --    2.26482   2.30535   2.36797   2.41025   2.43589
 Alpha virt. eigenvalues --    2.48230   2.50386   2.51869   2.54042   2.54855
 Alpha virt. eigenvalues --    2.57305   2.60137   2.61637   2.64116   2.66879
 Alpha virt. eigenvalues --    2.69112   2.69649   2.75427   2.77349   2.77784
 Alpha virt. eigenvalues --    2.80153   2.82489   2.83367   2.85137   2.87669
 Alpha virt. eigenvalues --    2.90301   2.93707   2.94726   2.96990   3.00484
 Alpha virt. eigenvalues --    3.01623   3.03813   3.05044   3.10588   3.12414
 Alpha virt. eigenvalues --    3.14056   3.16811   3.18705   3.21648   3.22250
 Alpha virt. eigenvalues --    3.24015   3.26754   3.28094   3.33432   3.35233
 Alpha virt. eigenvalues --    3.38172   3.40674   3.42283   3.43841   3.46571
 Alpha virt. eigenvalues --    3.48560   3.50959   3.57108   3.61902   3.62247
 Alpha virt. eigenvalues --    3.67813   3.84326   3.88189   3.90775   3.92695
 Alpha virt. eigenvalues --    3.95843   4.01362   4.03250   4.07468   4.10354
 Alpha virt. eigenvalues --    4.14771   4.16956   4.24990   4.28809   4.31864
 Alpha virt. eigenvalues --    4.37317   4.42774   4.47655   4.53331   4.64163
 Alpha virt. eigenvalues --    4.65652   4.71034   4.79829   4.84562   4.85786
 Alpha virt. eigenvalues --    5.05200   5.14003   5.23389   5.27640   5.48906
 Alpha virt. eigenvalues --    5.58845   5.95957   6.18267   6.30618   6.48926
 Alpha virt. eigenvalues --    6.70850   6.76278   6.94662   7.06412  22.04952
 Alpha virt. eigenvalues --   22.33133  22.48495  22.68944  22.86441  43.79298
          Condensed to atoms (all electrons):
               1          2          3          4          5          6
     1  C    4.865266   0.494361   0.469035   0.422183  -0.049535  -0.044787
     2  C    0.494361   4.997467  -0.035127  -0.041500   0.421533   0.008936
     3  C    0.469035  -0.035127   5.226774  -0.048027   0.008107   0.409886
     4  H    0.422183  -0.041500  -0.048027   0.524742  -0.005462  -0.006379
     5  H   -0.049535   0.421533   0.008107  -0.005462   0.558005  -0.000191
     6  H   -0.044787   0.008936   0.409886  -0.006379  -0.000191   0.552727
     7  C   -0.025583  -0.055632   0.432612   0.003175  -0.002260  -0.039725
     8  C   -0.080371   0.493501  -0.004816   0.010762  -0.044042   0.000042
     9  H   -0.000068  -0.003807  -0.103224  -0.000779   0.000078  -0.000902
    10  O   -0.013684  -0.025377  -0.127537  -0.000756   0.001061   0.005865
    11  H    0.010207  -0.045356  -0.000460  -0.000222  -0.006149   0.000014
    12  H   -0.031655  -0.022852   0.029242  -0.000095   0.005754   0.000102
               7          8          9         10         11         12
     1  C   -0.025583  -0.080371  -0.000068  -0.013684   0.010207  -0.031655
     2  C   -0.055632   0.493501  -0.003807  -0.025377  -0.045356  -0.022852
     3  C    0.432612  -0.004816  -0.103224  -0.127537  -0.000460   0.029242
     4  H    0.003175   0.010762  -0.000779  -0.000756  -0.000222  -0.000095
     5  H   -0.002260  -0.044042   0.000078   0.001061  -0.006149   0.005754
     6  H   -0.039725   0.000042  -0.000902   0.005865   0.000014   0.000102
     7  C    4.677983  -0.043883   0.410977   0.493151   0.001014  -0.009677
     8  C   -0.043883   4.846381   0.003566   0.067859   0.396849   0.427260
     9  H    0.410977   0.003566   0.652090  -0.038985  -0.000096  -0.001417
    10  O    0.493151   0.067859  -0.038985   8.028029  -0.002782  -0.050122
    11  H    0.001014   0.396849  -0.000096  -0.002782   0.566253  -0.032158
    12  H   -0.009677   0.427260  -0.001417  -0.050122  -0.032158   0.540983
 Mulliken charges:
               1
     1  C   -0.015370
     2  C   -0.186146
     3  C   -0.256465
     4  H    0.142357
     5  H    0.113103
     6  H    0.114412
     7  C    0.157848
     8  C   -0.073109
     9  H    0.082568
    10  O   -0.336721
    11  H    0.112887
    12  H    0.144636
 Sum of Mulliken charges =  -0.00000
 Mulliken charges with hydrogens summed into heavy atoms:
               1
     1  C    0.126987
     2  C   -0.073043
     3  C   -0.142053
     7  C    0.240417
     8  C    0.184414
    10  O   -0.336721
 Electronic spatial extent (au):  <R**2>=            799.6339
 Charge=             -0.0000 electrons
 Dipole moment (field-independent basis, Debye):
    X=             -1.9846    Y=             -0.7675    Z=             -0.7875  Tot=              2.2688
 Quadrupole moment (field-independent basis, Debye-Ang):
   XX=            -41.0377   YY=            -37.8162   ZZ=            -32.7895
   XY=             -2.4828   XZ=             -3.8014   YZ=             -2.2309
 Traceless Quadrupole moment (field-independent basis, Debye-Ang):
   XX=             -3.8232   YY=             -0.6017   ZZ=              4.4249
   XY=             -2.4828   XZ=             -3.8014   YZ=             -2.2309
 Octapole moment (field-independent basis, Debye-Ang**2):
  XXX=           -150.6009  YYY=            -11.6979  ZZZ=            -58.7479  XYY=            -44.1680
  XXY=             -7.2081  XXZ=            -37.1645  XZZ=            -44.0720  YZZ=             -5.8241
  YYZ=            -22.8633  XYZ=             -7.4463
 Hexadecapole moment (field-independent basis, Debye-Ang**3):
 XXXX=           -669.5506 YYYY=            -77.4563 ZZZZ=           -329.9688 XXXY=            -44.7114
 XXXZ=           -122.1654 YYYX=            -37.1881 YYYZ=              7.7565 ZZZX=            -66.3506
 ZZZY=              7.9462 XXYY=           -116.0659 XXZZ=           -172.7828 YYZZ=            -78.3959
 XXYZ=            -13.3730 YYXZ=            -24.7181 ZZXY=            -20.3332
 N-N= 2.186672700924D+02 E-N=-1.064577117932D+03  KE= 2.680531979854D+02
 1\1\GINC-BHC0174\FTS\RB3LYP\def2TZVP\C5H6O1\DHANAWAY\18-Mar-2022\1\\# 
 Opt=(TS, CalcFC, noeigentest, Z-matrix, MaxStep=10) geom=allcheckpoint
  guess=read Field=read NoSymm B3LYP/Def2TZVP\\ts_zmat_initalOpt\\0,1\C
 \C,1,R2\C,1,R3,2,A3\H,1,R4,2,A4,3,D4,0\H,2,R5,1,A5,3,D5,0\H,3,R6,1,A6,
 2,D6,0\C,3,R7,1,A7,6,D7,0\C,2,R8,1,A8,5,D8,0\H,7,R9,3,A9,1,D9,0\O,7,R1
 0,3,A10,9,D10,0\H,8,R11,2,A11,1,D11,0\H,8,R12,2,A12,11,D12,0\\R2=1.383
 78487\R3=1.40416814\R4=1.08506246\R5=1.08254979\R6=1.08114926\R7=1.403
 813\R8=1.39414216\R9=1.09721154\R10=1.26694587\R11=1.08290166\R12=1.08
 143571\A3=120.58872875\A4=120.36036496\A5=121.21916369\A6=119.67310845
 \A7=119.07595534\A8=117.02056506\A9=115.65995022\A10=128.4305848\A11=1
 20.64827134\A12=118.25947256\D4=-170.05775873\D5=152.04738216\D6=-179.
 0463915\D7=155.53891468\D8=-172.13670605\D9=-144.18298398\D10=171.3962
 0266\D11=164.26625722\D12=151.30079976\\Version=ES64L-G16RevA.03\HF=-2
 69.3960293\RMSD=4.460e-09\RMSF=4.051e-04\Dipole=-0.7807825,-0.3019388,
 -0.3098094\Quadrupole=-2.8424527,-0.4473766,3.2898293,-1.8458857,-2.82
 62369,-1.6586234\PG=C01 [X(C5H6O1)]\\@


 THE ATTENTION SPAN OF A COMPUTER IS AS LONG
 AS ITS EXTENSION CORD.
 Job cpu time:       0 days  0 hours 34 minutes 45.2 seconds.
 Elapsed time:       0 days  0 hours  3 minutes  9.8 seconds.
 File lengths (MBytes):  RWF=     53 Int=      0 D2E=      0 Chk=     32 Scr=      1
 Normal termination of Gaussian 16 at Fri Mar 18 14:32:49 2022.
