 Entering Gaussian System, Link 0=g16
 Input=int_zmat_field_N100.gjf
 Output=int_zmat_field_N100.out
 Initial command:
 /software/gaussian/g16-a03/l1.exe "/local_scratch/9900951/Gau-2581.inp" -scrdir="/local_scratch/9900951/"
 Entering Link 1 = /software/gaussian/g16-a03/l1.exe PID=      2582.
  
 Copyright (c) 1988,1990,1992,1993,1995,1998,2003,2009,2016,
            Gaussian, Inc.  All Rights Reserved.
  
 This is part of the Gaussian(R) 16 program.  It is based on
 the Gaussian(R) 09 system (copyright 2009, Gaussian, Inc.),
 the Gaussian(R) 03 system (copyright 2003, Gaussian, Inc.),
 the Gaussian(R) 98 system (copyright 1998, Gaussian, Inc.),
 the Gaussian(R) 94 system (copyright 1995, Gaussian, Inc.),
 the Gaussian 92(TM) system (copyright 1992, Gaussian, Inc.),
 the Gaussian 90(TM) system (copyright 1990, Gaussian, Inc.),
 the Gaussian 88(TM) system (copyright 1988, Gaussian, Inc.),
 the Gaussian 86(TM) system (copyright 1986, Carnegie Mellon
 University), and the Gaussian 82(TM) system (copyright 1983,
 Carnegie Mellon University). Gaussian is a federally registered
 trademark of Gaussian, Inc.
  
 This software contains proprietary and confidential information,
 including trade secrets, belonging to Gaussian, Inc.
  
 This software is provided under written license and may be
 used, copied, transmitted, or stored only in accord with that
 written license.
  
 The following legend is applicable only to US Government
 contracts under FAR:
  
                    RESTRICTED RIGHTS LEGEND
  
 Use, reproduction and disclosure by the US Government is
 subject to restrictions as set forth in subparagraphs (a)
 and (c) of the Commercial Computer Software - Restricted
 Rights clause in FAR 52.227-19.
  
 Gaussian, Inc.
 340 Quinnipiac St., Bldg. 40, Wallingford CT 06492
  
  
 ---------------------------------------------------------------
 Warning -- This program may not be used in any manner that
 competes with the business of Gaussian, Inc. or will provide
 assistance to any competitor of Gaussian, Inc.  The licensee
 of this program is prohibited from giving any competitor of
 Gaussian, Inc. access to this program.  By using this program,
 the user acknowledges that Gaussian, Inc. is engaged in the
 business of creating and licensing software in the field of
 computational chemistry and represents and warrants to the
 licensee that it is not a competitor of Gaussian, Inc. and that
 it will not use this program in any manner prohibited above.
 ---------------------------------------------------------------
  

 Cite this work as:
 Gaussian 16, Revision A.03,
 M. J. Frisch, G. W. Trucks, H. B. Schlegel, G. E. Scuseria, 
 M. A. Robb, J. R. Cheeseman, G. Scalmani, V. Barone, 
 G. A. Petersson, H. Nakatsuji, X. Li, M. Caricato, A. V. Marenich, 
 J. Bloino, B. G. Janesko, R. Gomperts, B. Mennucci, H. P. Hratchian, 
 J. V. Ortiz, A. F. Izmaylov, J. L. Sonnenberg, D. Williams-Young, 
 F. Ding, F. Lipparini, F. Egidi, J. Goings, B. Peng, A. Petrone, 
 T. Henderson, D. Ranasinghe, V. G. Zakrzewski, J. Gao, N. Rega, 
 G. Zheng, W. Liang, M. Hada, M. Ehara, K. Toyota, R. Fukuda, 
 J. Hasegawa, M. Ishida, T. Nakajima, Y. Honda, O. Kitao, H. Nakai, 
 T. Vreven, K. Throssell, J. A. Montgomery, Jr., J. E. Peralta, 
 F. Ogliaro, M. J. Bearpark, J. J. Heyd, E. N. Brothers, K. N. Kudin, 
 V. N. Staroverov, T. A. Keith, R. Kobayashi, J. Normand, 
 K. Raghavachari, A. P. Rendell, J. C. Burant, S. S. Iyengar, 
 J. Tomasi, M. Cossi, J. M. Millam, M. Klene, C. Adamo, R. Cammi, 
 J. W. Ochterski, R. L. Martin, K. Morokuma, O. Farkas, 
 J. B. Foresman, and D. J. Fox, Gaussian, Inc., Wallingford CT, 2016.
 
 ******************************************
 Gaussian 16:  ES64L-G16RevA.03 25-Dec-2016
                18-Mar-2022 
 ******************************************
 %nprocshared=12
 Will use up to   12 processors via shared memory.
 %chk=checkpoint.chk
 %mem=12GB
 ----------------------------------------------------------------------
 # Opt=(Z-matrix, MaxStep=10) B3LYP/Def2TZVP geom=allcheckpoint guess=r
 ead Field=read NoSymm
 ----------------------------------------------------------------------
 1/8=10,10=7,18=40,26=3,29=7,38=1/1,3;
 2/12=2,15=1,29=3,40=1/2;
 3/5=44,7=101,11=2,14=-6,25=1,30=1,71=1,74=-5,116=-2/1,2,3;
 4/5=1/1;
 5/5=2,38=6/2;
 6/7=2,8=2,9=2,10=2,28=1/1;
 7/29=1,30=1/1,2,3,16;
 1/8=10,10=7,18=40,26=3/3(2);
 2/15=1,29=3/2;
 99//99;
 2/15=1,29=3/2;
 3/5=44,7=101,11=2,14=-2,25=1,30=1,71=1,74=-5/1,2,3;
 4/5=5,16=3,69=1/1;
 5/5=2,38=5/2;
 7/30=1/1,2,3,16;
 1/8=10,18=40,26=3/3(-5);
 2/15=1,29=3/2;
 6/7=2,8=2,9=2,10=2,19=2,28=1/1;
 99/9=1/99;
 Structure from the checkpoint file:  "checkpoint.chk"
 ------------------
 int_zmat_initalOpt
 ------------------
 Charge =  0 Multiplicity = 1
 Z-Matrix found in chk file.
 C
 C,1,R2
 C,1,R3,2,A3
 H,1,R4,2,A4,3,D4,0
 H,2,R5,1,A5,3,D5,0
 H,3,R6,1,A6,2,D6,0
 C,3,R7,1,A7,6,D7,0
 C,2,R8,1,A8,5,D8,0
 H,7,R9,3,A9,1,D9,0
 O,7,R10,3,A10,9,D10,0
 H,8,R11,2,A11,1,D11,0
 H,8,R12,2,A12,11,D12,0
      Variables:
 R2=1.33538504
 R3=1.45568456
 R4=1.08301487
 R5=1.08191077
 R6=1.08079896
 R7=1.34173598
 R8=1.50131526
 R9=1.08360271
 R10=1.34635075
 R11=1.08792095
 R12=1.10022676
 A3=119.36381086
 A4=120.97468049
 A5=122.60779231
 A6=121.65702188
 A7=118.11207055
 A8=118.92830517
 A9=124.17987017
 A10=123.67742644
 A11=112.29535346
 A12=111.17377633
 D4=-175.59492103
 D5=175.40278554
 D6=173.92545562
 D7=172.57809275
 D8=179.26122486
 D9=-169.79416942
 D10=174.75945503
 D11=148.75934631
 D12=121.18120955
 Recover connectivity data from disk.

 GradGradGradGradGradGradGradGradGradGradGradGradGradGradGradGradGradGrad
 Berny optimization.
 Initialization pass.
                       ----------------------------
                       !    Initial Parameters    !
                       ! (Angstroms and Degrees)  !
 ----------------------                            ----------------------
 !      Name          Value   Derivative information (Atomic Units)     !
 ------------------------------------------------------------------------
 !       R2          1.3354   estimate D2E/DX2                          !
 !       R3          1.4557   estimate D2E/DX2                          !
 !       R4          1.083    estimate D2E/DX2                          !
 !       R5          1.0819   estimate D2E/DX2                          !
 !       R6          1.0808   estimate D2E/DX2                          !
 !       R7          1.3417   estimate D2E/DX2                          !
 !       R8          1.5013   estimate D2E/DX2                          !
 !       R9          1.0836   estimate D2E/DX2                          !
 !       R10         1.3464   estimate D2E/DX2                          !
 !       R11         1.0879   estimate D2E/DX2                          !
 !       R12         1.1002   estimate D2E/DX2                          !
 !       A3        119.3638   estimate D2E/DX2                          !
 !       A4        120.9747   estimate D2E/DX2                          !
 !       A5        122.6078   estimate D2E/DX2                          !
 !       A6        121.657    estimate D2E/DX2                          !
 !       A7        118.1121   estimate D2E/DX2                          !
 !       A8        118.9283   estimate D2E/DX2                          !
 !       A9        124.1799   estimate D2E/DX2                          !
 !       A10       123.6774   estimate D2E/DX2                          !
 !       A11       112.2954   estimate D2E/DX2                          !
 !       A12       111.1738   estimate D2E/DX2                          !
 !       D4       -175.5949   estimate D2E/DX2                          !
 !       D5        175.4028   estimate D2E/DX2                          !
 !       D6        173.9255   estimate D2E/DX2                          !
 !       D7        172.5781   estimate D2E/DX2                          !
 !       D8        179.2612   estimate D2E/DX2                          !
 !       D9       -169.7942   estimate D2E/DX2                          !
 !       D10       174.7595   estimate D2E/DX2                          !
 !       D11       148.7593   estimate D2E/DX2                          !
 !       D12       121.1812   estimate D2E/DX2                          !
 ------------------------------------------------------------------------
 Trust Radius=1.00D-01 FncErr=1.00D-07 GrdErr=1.00D-06 EigMax=2.50D+02 EigMin=1.00D-04
 Number of steps in this run=     40 maximum allowed number of steps=    100.
 GradGradGradGradGradGradGradGradGradGradGradGradGradGradGradGradGradGrad

 ---------------------------------------------------------------------------------------------------
                            Z-MATRIX (ANGSTROMS AND DEGREES)
   CD    Cent   Atom    N1       Length/X        N2       Alpha/Y        N3        Beta/Z          J
 ---------------------------------------------------------------------------------------------------
      1      1  C 
      2      2  C        1   1.335385(     1)
      3      3  C        1   1.455685(     2)      2  119.364(    12)
      4      4  H        1   1.083015(     3)      2  120.975(    13)      3 -175.595(    22)      0
      5      5  H        2   1.081911(     4)      1  122.608(    14)      3  175.403(    23)      0
      6      6  H        3   1.080799(     5)      1  121.657(    15)      2  173.925(    24)      0
      7      7  C        3   1.341736(     6)      1  118.112(    16)      6  172.578(    25)      0
      8      8  C        2   1.501315(     7)      1  118.928(    17)      5  179.261(    26)      0
      9      9  H        7   1.083603(     8)      3  124.180(    18)      1 -169.794(    27)      0
     10     10  O        7   1.346351(     9)      3  123.677(    19)      9  174.759(    28)      0
     11     11  H        8   1.087921(    10)      2  112.295(    20)      1  148.759(    29)      0
     12     12  H        8   1.100227(    11)      2  111.174(    21)     11  121.181(    30)      0
 ---------------------------------------------------------------------------------------------------
                         Z-Matrix orientation:                         
 ---------------------------------------------------------------------
 Center     Atomic      Atomic             Coordinates (Angstroms)
 Number     Number       Type             X           Y           Z
 ---------------------------------------------------------------------
      1          6           0        0.000000    0.000000    0.000000
      2          6           0        0.000000    0.000000    1.335385
      3          6           0        1.268664    0.000000   -0.713800
      4          1           0       -0.925828    0.071321   -0.557384
      5          1           0       -0.908447    0.073047    1.918411
      6          1           0        1.314443   -0.097355   -1.789231
      7          6           0        2.383943    0.276199   -0.020892
      8          6           0        1.308295   -0.122196    2.061593
      9          1           0        3.351759    0.458941   -0.472703
     10          8           0        2.408361    0.458337    1.312858
     11          1           0        1.302021    0.402713    3.014485
     12          1           0        1.558681   -1.175996    2.254753
 ---------------------------------------------------------------------
                    Distance matrix (angstroms):
                    1          2          3          4          5
     1  C    0.000000
     2  C    1.335385   0.000000
     3  C    1.455685   2.410117   0.000000
     4  H    1.083015   2.108274   2.201215   0.000000
     5  H    2.123891   1.081911   3.416677   2.475856   0.000000
     6  H    2.222293   3.391234   1.080799   2.562170   4.326302
     7  C    2.399981   2.756621   1.341736   3.359224   3.826487
     8  C    2.444736   1.501315   2.778365   3.447869   2.229926
     9  H    3.415899   3.835896   2.146635   4.295948   4.900581
    10  O    2.780984   2.451690   2.369879   3.842448   3.393576
    11  H    3.308256   2.162595   3.750120   4.222722   2.489222
    12  H    2.982677   2.158168   3.206148   3.954327   2.785670
                    6          7          8          9         10
     6  H    0.000000
     7  C    2.100094   0.000000
     8  C    3.850910   2.377495   0.000000
     9  H    2.488648   1.083603   3.306981   0.000000
    10  O    3.335927   1.346351   1.451815   2.019462   0.000000
    11  H    4.829691   3.224915   1.087921   4.045376   2.030423
    12  H    4.192485   2.822852   1.100227   3.650639   2.068856
                   11         12
    11  H    0.000000
    12  H    1.770704   0.000000
 Symmetry turned off by external request.
 Stoichiometry    C5H6O
 Framework group  C1[X(C5H6O)]
 Deg. of freedom    30
 Full point group                 C1      NOp   1
 Rotational constants (GHZ):           5.5624828           5.3715142           2.8391061
 Standard basis: def2TZVP (5D, 7F)
 The following finite field(s) will be applied:
 An electric field of              0.0041 -0.0029 -0.0086
   222 basis functions,   354 primitive gaussians,   252 cartesian basis functions
    22 alpha electrons       22 beta electrons
       nuclear repulsion energy       223.3715614491 Hartrees.
 NAtoms=   12 NActive=   12 NUniq=   12 SFac= 1.00D+00 NAtFMM=   60 NAOKFM=F Big=F
 Integral buffers will be    131072 words long.
 Raffenetti 2 integral format.
 Two-electron integral symmetry is turned off.
 One-electron integrals computed using PRISM.
   1 Symmetry operations used in ECPInt.
 ECPInt:  NShTT=    4095 NPrTT=   12396 LenC2=    4075 LenP2D=   10417.
 LDataN:  DoStor=T MaxTD1= 6 Len=  172
 NBasis=   222 RedAO= T EigKep=  9.51D-05  NBF=   222
 NBsUse=   222 1.00D-06 EigRej= -1.00D+00 NBFU=   222
 The nuclear repulsion energy is now       223.2720891872 hartrees.
 Initial guess from the checkpoint file:  "checkpoint.chk"
 B after Tr=     0.000000    0.000000    0.000000
         Rot=    1.000000   -0.000000    0.000000    0.000000 Ang=   0.00 deg.
 Keep R1 ints in memory in canonical form, NReq=319363885.
 Requested convergence on RMS density matrix=1.00D-08 within 128 cycles.
 Requested convergence on MAX density matrix=1.00D-06.
 Requested convergence on             energy=1.00D-06.
 No special actions if energy rises.
 SCF Done:  E(RB3LYP) =  -269.426542027     A.U. after   10 cycles
            NFock= 10  Conv=0.83D-08     -V/T= 2.0050

 **********************************************************************

            Population analysis using the SCF density.

 **********************************************************************

 Alpha  occ. eigenvalues --  -19.15936 -10.23770 -10.22173 -10.17488 -10.17428
 Alpha  occ. eigenvalues --  -10.16747  -1.06890  -0.81261  -0.77346  -0.66376
 Alpha  occ. eigenvalues --   -0.62634  -0.53451  -0.50471  -0.48680  -0.46016
 Alpha  occ. eigenvalues --   -0.43725  -0.40481  -0.37858  -0.35796  -0.32872
 Alpha  occ. eigenvalues --   -0.30111  -0.20908
 Alpha virt. eigenvalues --   -0.03274   0.02987   0.05580   0.06593   0.07792
 Alpha virt. eigenvalues --    0.09302   0.10524   0.12032   0.14553   0.16493
 Alpha virt. eigenvalues --    0.17409   0.19868   0.20445   0.21918   0.23833
 Alpha virt. eigenvalues --    0.24313   0.25773   0.27017   0.28254   0.30609
 Alpha virt. eigenvalues --    0.30890   0.33801   0.34816   0.36539   0.36800
 Alpha virt. eigenvalues --    0.38283   0.39055   0.40263   0.42321   0.43277
 Alpha virt. eigenvalues --    0.43970   0.46031   0.46708   0.49965   0.51723
 Alpha virt. eigenvalues --    0.53405   0.55574   0.58598   0.59959   0.63272
 Alpha virt. eigenvalues --    0.65562   0.66308   0.69009   0.72753   0.73417
 Alpha virt. eigenvalues --    0.77817   0.80895   0.84688   0.86117   0.89162
 Alpha virt. eigenvalues --    0.91479   0.93253   0.95480   0.97830   0.99245
 Alpha virt. eigenvalues --    1.05895   1.07512   1.09163   1.11265   1.12494
 Alpha virt. eigenvalues --    1.15696   1.18607   1.19273   1.24195   1.26330
 Alpha virt. eigenvalues --    1.29702   1.33380   1.36327   1.40261   1.43038
 Alpha virt. eigenvalues --    1.44790   1.45480   1.49222   1.51481   1.52879
 Alpha virt. eigenvalues --    1.56320   1.60664   1.62654   1.65626   1.68093
 Alpha virt. eigenvalues --    1.70485   1.72348   1.74914   1.77232   1.79903
 Alpha virt. eigenvalues --    1.85043   1.87833   1.90664   1.91862   1.97320
 Alpha virt. eigenvalues --    2.00485   2.01271   2.06935   2.10622   2.12395
 Alpha virt. eigenvalues --    2.14608   2.18458   2.21025   2.22638   2.27310
 Alpha virt. eigenvalues --    2.28226   2.36984   2.39416   2.45426   2.46017
 Alpha virt. eigenvalues --    2.51052   2.52609   2.52786   2.57964   2.60131
 Alpha virt. eigenvalues --    2.61452   2.62348   2.65738   2.68128   2.71082
 Alpha virt. eigenvalues --    2.71432   2.74385   2.76142   2.79600   2.80441
 Alpha virt. eigenvalues --    2.82931   2.84178   2.87254   2.88920   2.91494
 Alpha virt. eigenvalues --    2.94374   2.98558   3.02095   3.02729   3.07660
 Alpha virt. eigenvalues --    3.08521   3.11119   3.13860   3.15344   3.16149
 Alpha virt. eigenvalues --    3.19165   3.19980   3.22472   3.24021   3.25957
 Alpha virt. eigenvalues --    3.28367   3.30055   3.33098   3.36303   3.37325
 Alpha virt. eigenvalues --    3.40218   3.42242   3.45096   3.45489   3.48551
 Alpha virt. eigenvalues --    3.54921   3.58326   3.62828   3.68867   3.69606
 Alpha virt. eigenvalues --    3.78948   3.84251   3.86269   3.91155   3.93993
 Alpha virt. eigenvalues --    3.97358   4.02930   4.04735   4.11991   4.18281
 Alpha virt. eigenvalues --    4.20505   4.25246   4.28128   4.36875   4.40067
 Alpha virt. eigenvalues --    4.45575   4.51684   4.59025   4.63388   4.66378
 Alpha virt. eigenvalues --    4.67717   4.80043   4.85009   4.91692   4.94712
 Alpha virt. eigenvalues --    5.12232   5.18487   5.36177   5.45392   5.75007
 Alpha virt. eigenvalues --    5.86109   5.91625   6.23924   6.33897   6.65334
 Alpha virt. eigenvalues --    6.76960   6.87140   7.15161   7.26079  22.07130
 Alpha virt. eigenvalues --   22.31928  22.43007  22.74826  22.93014  44.05504
          Condensed to atoms (all electrons):
               1          2          3          4          5          6
     1  C    4.899618   0.652845   0.324551   0.411271  -0.033064  -0.052306
     2  C    0.652845   4.992019  -0.063362  -0.018367   0.403199   0.005377
     3  C    0.324551  -0.063362   5.215651  -0.062189   0.003949   0.396061
     4  H    0.411271  -0.018367  -0.062189   0.564511  -0.007192  -0.005589
     5  H   -0.033064   0.403199   0.003949  -0.007192   0.493994  -0.000251
     6  H   -0.052306   0.005377   0.396061  -0.005589  -0.000251   0.645087
     7  C   -0.043703  -0.024526   0.545287   0.004002   0.002555  -0.043389
     8  C   -0.042688   0.355733  -0.036584   0.006287  -0.026842  -0.000368
     9  H    0.009710  -0.002435  -0.107306  -0.000382   0.000158  -0.006447
    10  O   -0.013988  -0.026953  -0.069246  -0.001025   0.002878   0.006498
    11  H    0.001240  -0.032503   0.006125  -0.000258  -0.004670   0.000148
    12  H   -0.005188  -0.074818  -0.007398  -0.000318   0.005286  -0.000360
               7          8          9         10         11         12
     1  C   -0.043703  -0.042688   0.009710  -0.013988   0.001240  -0.005188
     2  C   -0.024526   0.355733  -0.002435  -0.026953  -0.032503  -0.074818
     3  C    0.545287  -0.036584  -0.107306  -0.069246   0.006125  -0.007398
     4  H    0.004002   0.006287  -0.000382  -0.001025  -0.000258  -0.000318
     5  H    0.002555  -0.026842   0.000158   0.002878  -0.004670   0.005286
     6  H   -0.043389  -0.000368  -0.006447   0.006498   0.000148  -0.000360
     7  C    4.760542  -0.051907   0.444456   0.349322  -0.004012   0.034983
     8  C   -0.051907   4.697337   0.006116   0.265258   0.425447   0.381262
     9  H    0.444456   0.006116   0.624791  -0.044600  -0.000671   0.002128
    10  O    0.349322   0.265258  -0.044600   7.885577  -0.027545  -0.065680
    11  H   -0.004012   0.425447  -0.000671  -0.027545   0.526980  -0.046048
    12  H    0.034983   0.381262   0.002128  -0.065680  -0.046048   0.697979
 Mulliken charges:
               1
     1  C   -0.108298
     2  C   -0.166208
     3  C   -0.145540
     4  H    0.109249
     5  H    0.159999
     6  H    0.055538
     7  C    0.026389
     8  C    0.020950
     9  H    0.074481
    10  O   -0.260495
    11  H    0.155767
    12  H    0.078170
 Sum of Mulliken charges =  -0.00000
 Mulliken charges with hydrogens summed into heavy atoms:
               1
     1  C    0.000951
     2  C   -0.006210
     3  C   -0.090002
     7  C    0.100870
     8  C    0.254886
    10  O   -0.260495
 Electronic spatial extent (au):  <R**2>=            785.4994
 Charge=             -0.0000 electrons
 Dipole moment (field-independent basis, Debye):
    X=             -1.3353    Y=             -0.0877    Z=              1.6246  Tot=              2.1047
 Quadrupole moment (field-independent basis, Debye-Ang):
   XX=            -37.7653   YY=            -38.6497   ZZ=            -29.8610
   XY=             -0.5769   XZ=             -0.9745   YZ=             -0.6826
 Traceless Quadrupole moment (field-independent basis, Debye-Ang):
   XX=             -2.3400   YY=             -3.2243   ZZ=              5.5644
   XY=             -0.5769   XZ=             -0.9745   YZ=             -0.6826
 Octapole moment (field-independent basis, Debye-Ang**2):
  XXX=           -136.0089  YYY=             -9.3316  ZZZ=            -52.1591  XYY=            -45.4227
  XXY=             -3.0166  XXZ=            -29.7213  XZZ=            -42.5113  YZZ=             -3.1126
  YYZ=            -22.4403  XYZ=             -2.7969
 Hexadecapole moment (field-independent basis, Debye-Ang**3):
 XXXX=           -595.9241 YYYY=            -61.4737 ZZZZ=           -330.1838 XXXY=            -22.7724
 XXXZ=           -110.5766 YYYX=            -25.9321 YYYZ=             -3.4075 ZZZX=            -69.7154
 ZZZY=              2.8427 XXYY=           -114.5368 XXZZ=           -167.0927 YYZZ=            -74.6818
 XXYZ=             -8.5940 YYXZ=            -24.6455 ZZXY=            -11.0645
 N-N= 2.232720891872D+02 E-N=-1.074403415313D+03  KE= 2.680772558296D+02
   1 Symmetry operations used in ECPInt.
 ECPInt:  NShTT=    4095 NPrTT=   12396 LenC2=    4075 LenP2D=   10417.
 LDataN:  DoStor=T MaxTD1= 7 Len=  274
 Calling FoFJK, ICntrl=      2127 FMM=F ISym2X=0 I1Cent= 0 IOpClX= 0 NMat=1 NMatS=1 NMatT=0.
 -------------------------------------------------------------------
 Center     Atomic                   Forces (Hartrees/Bohr)
 Number     Number              X              Y              Z
 -------------------------------------------------------------------
      1        6          -0.001172398    0.000101387    0.000064181
      2        6           0.000738519    0.000227409   -0.000261460
      3        6           0.000192776   -0.000609314    0.000167963
      4        1          -0.000077489    0.000066225    0.000096774
      5        1           0.000063848   -0.000022837    0.000093661
      6        1           0.000031685    0.000055895   -0.000385643
      7        6           0.000109120    0.000124493    0.001291229
      8        6          -0.000538196    0.000041691    0.000981461
      9        1           0.000281012    0.000083872   -0.000101686
     10        8           0.000627260   -0.000065223   -0.001944530
     11        1          -0.000103621   -0.000116649   -0.000048050
     12        1          -0.000152515    0.000113052    0.000046101
 -------------------------------------------------------------------
 Cartesian Forces:  Max     0.001944530 RMS     0.000526161
 -----------------------------------------------------------------------------------------------
                       Internal Coordinate Forces (Hartree/Bohr or radian)
  Cent   Atom   N1       Length/X         N2         Alpha/Y        N3         Beta/Z          J
 -----------------------------------------------------------------------------------------------
      1  C 
      2  C        1   0.000812(     1)
      3  C        1   0.001559(     2)      2   0.005166(    12)
      4  H        1   0.000021(     3)      2  -0.000257(    13)      3   0.000105(    22)     0
      5  H        2  -0.000005(     4)      1   0.000233(    14)      3  -0.000205(    23)     0
      6  H        3   0.000380(     5)      1   0.000041(    15)      2  -0.000567(    24)     0
      7  C        3   0.000485(     6)      1   0.004615(    16)      6  -0.000723(    25)     0
      8  C        2  -0.000222(     7)      1   0.003783(    17)      5  -0.000235(    26)     0
      9  H        7   0.000308(     8)      3   0.000063(    18)      1  -0.000140(    27)     0
     10  O        7  -0.001924(     9)      3   0.001744(    19)      9  -0.000189(    28)     0
     11  H        8  -0.000098(    10)      2  -0.000149(    20)      1  -0.000024(    29)     0
     12  H        8  -0.000135(    11)      2  -0.000158(    21)     11  -0.000231(    30)     0
 -----------------------------------------------------------------------------------------------
 Internal  Forces:  Max     0.005165857 RMS     0.001569647

 GradGradGradGradGradGradGradGradGradGradGradGradGradGradGradGradGradGrad
 Berny optimization.
 Search for a local minimum.
 Step number   1 out of a maximum of   40
 All quantities printed in internal units (Hartrees-Bohrs-Radians)
 Second derivative matrix not updated -- first step.
 ITU=  0
     Eigenvalues ---    0.03115   0.04266   0.05341   0.06515   0.08388
     Eigenvalues ---    0.12556   0.17087   0.18376   0.19730   0.21729
     Eigenvalues ---    0.26826   0.30962   0.33183   0.33656   0.34688
     Eigenvalues ---    0.35054   0.35563   0.35634   0.35765   0.35898
     Eigenvalues ---    0.38813   0.43075   0.51418   0.54356   0.56350
     Eigenvalues ---    0.57052   0.59243   1.97339   4.32732  22.28929
 RFO step:  Lambda=-1.52952389D-05 EMin= 3.11477826D-02
 Linear search not attempted -- first point.
 Variable       Old X    -DE/DX   Delta X   Delta X   Delta X     New X
                                 (Linear)    (Quad)   (Total)
    R2        2.52351   0.00081   0.00000   0.00003   0.00003   2.52354
    R3        2.75085   0.00156   0.00000   0.00131   0.00131   2.75215
    R4        2.04660   0.00002   0.00000   0.00006   0.00006   2.04666
    R5        2.04452  -0.00000   0.00000  -0.00001  -0.00001   2.04450
    R6        2.04241   0.00038   0.00000   0.00106   0.00106   2.04348
    R7        2.53551   0.00049   0.00000   0.00040   0.00040   2.53592
    R8        2.83707  -0.00022   0.00000   0.00019   0.00019   2.83727
    R9        2.04771   0.00031   0.00000   0.00087   0.00087   2.04858
   R10        2.54423  -0.00192   0.00000  -0.00210  -0.00210   2.54214
   R11        2.05587  -0.00010   0.00000  -0.00028  -0.00028   2.05559
   R12        2.07913  -0.00013   0.00000  -0.00038  -0.00038   2.07874
    A3        2.08329   0.00517   0.00000   0.00023   0.00023   2.08352
    A4        2.11141  -0.00026   0.00000  -0.00100  -0.00100   2.11040
    A5        2.13991   0.00023   0.00000   0.00011   0.00011   2.14002
    A6        2.12332   0.00004   0.00000  -0.00015  -0.00015   2.12316
    A7        2.06144   0.00461   0.00000   0.00071   0.00071   2.06215
    A8        2.07569   0.00378   0.00000   0.00124   0.00124   2.07693
    A9        2.16735   0.00006   0.00000   0.00012   0.00012   2.16747
   A10        2.15858   0.00174   0.00000   0.00009   0.00009   2.15867
   A11        1.95992  -0.00015   0.00000   0.00018   0.00018   1.96010
   A12        1.94035  -0.00016   0.00000  -0.00164  -0.00164   1.93871
    D4       -3.06471   0.00011   0.00000   0.00223   0.00223  -3.06248
    D5        3.06136  -0.00020   0.00000  -0.00113  -0.00113   3.06023
    D6        3.03557  -0.00057   0.00000   0.00448   0.00448   3.04005
    D7        3.01206  -0.00072   0.00000   0.00058   0.00058   3.01264
    D8        3.12870  -0.00024   0.00000   0.00129   0.00129   3.12999
    D9       -2.96347  -0.00014   0.00000  -0.00220  -0.00220  -2.96566
   D10        3.05013  -0.00019   0.00000  -0.00217  -0.00217   3.04796
   D11        2.59634  -0.00002   0.00000  -0.00370  -0.00370   2.59264
   D12        2.11501  -0.00023   0.00000  -0.00202  -0.00202   2.11299
         Item               Value     Threshold  Converged?
 Maximum Force            0.005166     0.000450     NO 
 RMS     Force            0.001570     0.000300     NO 
 Maximum Displacement     0.004475     0.001800     NO 
 RMS     Displacement     0.001526     0.001200     NO 
 Predicted change in Energy=-7.647619D-06
 GradGradGradGradGradGradGradGradGradGradGradGradGradGradGradGradGradGrad

 ---------------------------------------------------------------------------------------------------
                            Z-MATRIX (ANGSTROMS AND DEGREES)
   CD    Cent   Atom    N1       Length/X        N2       Alpha/Y        N3        Beta/Z          J
 ---------------------------------------------------------------------------------------------------
      1      1  C 
      2      2  C        1   1.335399(     1)
      3      3  C        1   1.456376(     2)      2  119.377(    12)
      4      4  H        1   1.083048(     3)      2  120.917(    13)      3 -175.467(    22)      0
      5      5  H        2   1.081904(     4)      1  122.614(    14)      3  175.338(    23)      0
      6      6  H        3   1.081361(     5)      1  121.648(    15)      2  174.182(    24)      0
      7      7  C        3   1.341949(     6)      1  118.153(    16)      6  172.612(    25)      0
      8      8  C        2   1.501418(     7)      1  118.999(    17)      5  179.335(    26)      0
      9      9  H        7   1.084062(     8)      3  124.187(    18)      1 -169.920(    27)      0
     10     10  O        7   1.345242(     9)      3  123.683(    19)      9  174.635(    28)      0
     11     11  H        8   1.087772(    10)      2  112.306(    20)      1  148.547(    29)      0
     12     12  H        8   1.100024(    11)      2  111.080(    21)     11  121.066(    30)      0
 ---------------------------------------------------------------------------------------------------
                         Z-Matrix orientation:                         
 ---------------------------------------------------------------------
 Center     Atomic      Atomic             Coordinates (Angstroms)
 Number     Number       Type             X           Y           Z
 ---------------------------------------------------------------------
      1          6           0        0.000000    0.000000    0.000000
      2          6           0        0.000000    0.000000    1.335399
      3          6           0        1.269102    0.000000   -0.714431
      4          1           0       -0.926252    0.073434   -0.556468
      5          1           0       -0.908294    0.074066    1.918523
      6          1           0        1.314283   -0.093317   -1.790811
      7          6           0        2.385913    0.270315   -0.021258
      8          6           0        1.307508   -0.121910    2.063284
      9          1           0        3.354661    0.450643   -0.473143
     10          8           0        2.411360    0.451269    1.311514
     11          1           0        1.301389    0.406062    3.014313
     12          1           0        1.553418   -1.175678    2.261156
 ---------------------------------------------------------------------
                    Distance matrix (angstroms):
                    1          2          3          4          5
     1  C    0.000000
     2  C    1.335399   0.000000
     3  C    1.456376   2.410897   0.000000
     4  H    1.083048   2.107724   2.202255   0.000000
     5  H    2.123962   1.081904   3.417454   2.475057   0.000000
     6  H    2.223298   3.392527   1.081361   2.563475   4.327473
     7  C    2.401271   2.757929   1.341949   3.360901   3.827933
     8  C    2.445727   1.501418   2.780654   3.448325   2.229157
     9  H    3.417703   3.837662   2.147290   4.298307   4.902516
    10  O    2.781793   2.453339   2.369146   3.843406   3.395709
    11  H    3.308260   2.162695   3.750928   4.221789   2.488709
    12  H    2.984652   2.156930   3.212035   3.955761   2.781956
                    6          7          8          9         10
     6  H    0.000000
     7  C    2.100461   0.000000
     8  C    3.854207   2.379519   0.000000
     9  H    2.489032   1.084062   3.309397   0.000000
    10  O    3.335352   1.345242   1.453334   2.018618   0.000000
    11  H    4.831021   3.226347   1.087772   4.047254   2.033126
    12  H    4.200848   2.827253   1.100024   3.655925   2.069985
                   11         12
    11  H    0.000000
    12  H    1.769933   0.000000
 Symmetry turned off by external request.
 Stoichiometry    C5H6O
 Framework group  C1[X(C5H6O)]
 Deg. of freedom    30
 Full point group                 C1      NOp   1
 Rotational constants (GHZ):           5.5581406           5.3699933           2.8360297
 Standard basis: def2TZVP (5D, 7F)
 The following finite field(s) will be applied:
 An electric field of              0.0041 -0.0029 -0.0086
   222 basis functions,   354 primitive gaussians,   252 cartesian basis functions
    22 alpha electrons       22 beta electrons
       nuclear repulsion energy       223.3121342489 Hartrees.
 NAtoms=   12 NActive=   12 NUniq=   12 SFac= 1.00D+00 NAtFMM=   60 NAOKFM=F Big=F
 Integral buffers will be    131072 words long.
 Raffenetti 2 integral format.
 Two-electron integral symmetry is turned off.
 One-electron integrals computed using PRISM.
   1 Symmetry operations used in ECPInt.
 ECPInt:  NShTT=    4095 NPrTT=   12396 LenC2=    4075 LenP2D=   10413.
 LDataN:  DoStor=T MaxTD1= 6 Len=  172
 NBasis=   222 RedAO= T EigKep=  9.51D-05  NBF=   222
 NBsUse=   222 1.00D-06 EigRej= -1.00D+00 NBFU=   222
 The nuclear repulsion energy is now       223.2133987552 hartrees.
 Initial guess from the checkpoint file:  "checkpoint.chk"
 B after Tr=     0.000785    0.002325    0.000023
         Rot=    0.999999    0.000114   -0.000008    0.001359 Ang=   0.16 deg.
 Keep R1 ints in memory in canonical form, NReq=319363885.
 Requested convergence on RMS density matrix=1.00D-08 within 128 cycles.
 Requested convergence on MAX density matrix=1.00D-06.
 Requested convergence on             energy=1.00D-06.
 No special actions if energy rises.
 SCF Done:  E(RB3LYP) =  -269.426551826     A.U. after    9 cycles
            NFock=  9  Conv=0.30D-08     -V/T= 2.0050
   1 Symmetry operations used in ECPInt.
 ECPInt:  NShTT=    4095 NPrTT=   12396 LenC2=    4075 LenP2D=   10413.
 LDataN:  DoStor=T MaxTD1= 7 Len=  274
 Calling FoFJK, ICntrl=      2127 FMM=F ISym2X=0 I1Cent= 0 IOpClX= 0 NMat=1 NMatS=1 NMatT=0.
 -------------------------------------------------------------------
 Center     Atomic                   Forces (Hartrees/Bohr)
 Number     Number              X              Y              Z
 -------------------------------------------------------------------
      1        6          -0.000821257    0.000384130    0.000013513
      2        6           0.000910972    0.000430372   -0.000258807
      3        6           0.000094163   -0.000779431   -0.000097957
      4        1          -0.000003328   -0.000016942    0.000028211
      5        1           0.000013667   -0.000062434    0.000058365
      6        1          -0.000007805   -0.000021948    0.000005725
      7        6          -0.000214828    0.000270304    0.000553894
      8        6          -0.000394708   -0.000179087    0.000272203
      9        1          -0.000004841    0.000024244   -0.000048070
     10        8           0.000318534   -0.000247910   -0.000495357
     11        1           0.000064829    0.000130206   -0.000098678
     12        1           0.000044602    0.000068496    0.000066958
 -------------------------------------------------------------------
 Cartesian Forces:  Max     0.000910972 RMS     0.000319751
 -----------------------------------------------------------------------------------------------
                       Internal Coordinate Forces (Hartree/Bohr or radian)
  Cent   Atom   N1       Length/X         N2         Alpha/Y        N3         Beta/Z          J
 -----------------------------------------------------------------------------------------------
      1  C 
      2  C        1   0.000040(     1)
      3  C        1   0.000202(     2)      2   0.000987(    12)
      4  H        1  -0.000013(     3)      2  -0.000052(    13)      3  -0.000030(    22)     0
      5  H        2   0.000016(     4)      1   0.000121(    14)      3   0.000142(    23)     0
      6  H        3  -0.000004(     5)      1  -0.000018(    15)      2   0.000327(    24)     0
      7  C        3   0.000097(     6)      1   0.000959(    16)      6   0.000365(    25)     0
      8  C        2  -0.000133(     7)      1   0.000935(    17)      5   0.000037(    26)     0
      9  H        7   0.000020(     8)      3  -0.000087(    18)      1   0.000529(    27)     0
     10  O        7  -0.000518(     9)      3   0.000753(    19)      9   0.000483(    28)     0
     11  H        8  -0.000023(    10)      2   0.000015(    20)      1  -0.000410(    29)     0
     12  H        8  -0.000044(    11)      2   0.000181(    21)     11  -0.000079(    30)     0
 -----------------------------------------------------------------------------------------------
 Internal  Forces:  Max     0.000987039 RMS     0.000395117

 GradGradGradGradGradGradGradGradGradGradGradGradGradGradGradGradGradGrad
 Berny optimization.
 Search for a local minimum.
 Step number   2 out of a maximum of   40
 All quantities printed in internal units (Hartrees-Bohrs-Radians)
 Update second derivatives using D2CorN and points    1    2
 DE= -9.80D-06 DEPred=-7.65D-06 R= 1.28D+00
 TightC=F SS=  1.41D+00  RLast= 8.36D-03 DXNew= 1.6818D-01 2.5079D-02
 Trust test= 1.28D+00 RLast= 8.36D-03 DXMaxT set to 1.00D-01
 ITU=  1  0
     Eigenvalues ---    0.02722   0.03721   0.04853   0.06636   0.07138
     Eigenvalues ---    0.12674   0.16595   0.18337   0.19794   0.21885
     Eigenvalues ---    0.26904   0.31011   0.33177   0.33630   0.34680
     Eigenvalues ---    0.35036   0.35493   0.35635   0.35765   0.35858
     Eigenvalues ---    0.38876   0.42476   0.51354   0.53702   0.56305
     Eigenvalues ---    0.56823   0.59308   1.97292   4.31564  22.28306
 RFO step:  Lambda=-7.72632591D-06 EMin= 2.72184352D-02
 Quartic linear search produced a step of  0.37923.
 Variable       Old X    -DE/DX   Delta X   Delta X   Delta X     New X
                                 (Linear)    (Quad)   (Total)
    R2        2.52354   0.00004   0.00001  -0.00022  -0.00021   2.52333
    R3        2.75215   0.00020   0.00050  -0.00057  -0.00008   2.75208
    R4        2.04666  -0.00001   0.00002  -0.00007  -0.00005   2.04661
    R5        2.04450   0.00002  -0.00000   0.00008   0.00007   2.04458
    R6        2.04348  -0.00000   0.00040  -0.00027   0.00013   2.04361
    R7        2.53592   0.00010   0.00015  -0.00019  -0.00004   2.53588
    R8        2.83727  -0.00013   0.00007   0.00005   0.00012   2.83739
    R9        2.04858   0.00002   0.00033  -0.00011   0.00021   2.04879
   R10        2.54214  -0.00052  -0.00079  -0.00062  -0.00141   2.54072
   R11        2.05559  -0.00002  -0.00011  -0.00005  -0.00016   2.05543
   R12        2.07874  -0.00004  -0.00015  -0.00011  -0.00025   2.07849
    A3        2.08352   0.00099   0.00009  -0.00010  -0.00001   2.08351
    A4        2.11040  -0.00005  -0.00038  -0.00013  -0.00051   2.10989
    A5        2.14002   0.00012   0.00004  -0.00039  -0.00035   2.13967
    A6        2.12316  -0.00002  -0.00006   0.00002  -0.00004   2.12312
    A7        2.06215   0.00096   0.00027  -0.00041  -0.00014   2.06202
    A8        2.07693   0.00094   0.00047   0.00163   0.00210   2.07902
    A9        2.16747  -0.00009   0.00005  -0.00140  -0.00135   2.16612
   A10        2.15867   0.00075   0.00003   0.00184   0.00187   2.16054
   A11        1.96010   0.00002   0.00007   0.00002   0.00009   1.96019
   A12        1.93871   0.00018  -0.00062   0.00143   0.00081   1.93951
    D4       -3.06248  -0.00003   0.00085   0.00135   0.00219  -3.06028
    D5        3.06023   0.00014  -0.00043  -0.00122  -0.00165   3.05858
    D6        3.04005   0.00033   0.00170   0.00362   0.00532   3.04536
    D7        3.01264   0.00036   0.00022  -0.00064  -0.00042   3.01222
    D8        3.12999   0.00004   0.00049   0.00065   0.00113   3.13112
    D9       -2.96566   0.00053  -0.00083  -0.00021  -0.00104  -2.96671
   D10        3.04796   0.00048  -0.00082   0.00069  -0.00013   3.04783
   D11        2.59264  -0.00041  -0.00140  -0.00776  -0.00916   2.58348
   D12        2.11299  -0.00008  -0.00077   0.00159   0.00083   2.11382
         Item               Value     Threshold  Converged?
 Maximum Force            0.000987     0.000450     NO 
 RMS     Force            0.000395     0.000300     NO 
 Maximum Displacement     0.009159     0.001800     NO 
 RMS     Displacement     0.002129     0.001200     NO 
 Predicted change in Energy=-3.930273D-06
 GradGradGradGradGradGradGradGradGradGradGradGradGradGradGradGradGradGrad

 ---------------------------------------------------------------------------------------------------
                            Z-MATRIX (ANGSTROMS AND DEGREES)
   CD    Cent   Atom    N1       Length/X        N2       Alpha/Y        N3        Beta/Z          J
 ---------------------------------------------------------------------------------------------------
      1      1  C 
      2      2  C        1   1.335288(     1)
      3      3  C        1   1.456336(     2)      2  119.376(    12)
      4      4  H        1   1.083021(     3)      2  120.888(    13)      3 -175.341(    22)      0
      5      5  H        2   1.081943(     4)      1  122.594(    14)      3  175.244(    23)      0
      6      6  H        3   1.081430(     5)      1  121.646(    15)      2  174.486(    24)      0
      7      7  C        3   1.341930(     6)      1  118.145(    16)      6  172.588(    25)      0
      8      8  C        2   1.501481(     7)      1  119.119(    17)      5  179.400(    26)      0
      9      9  H        7   1.084175(     8)      3  124.109(    18)      1 -169.980(    27)      0
     10     10  O        7   1.344494(     9)      3  123.790(    19)      9  174.628(    28)      0
     11     11  H        8   1.087687(    10)      2  112.311(    20)      1  148.022(    29)      0
     12     12  H        8   1.099891(    11)      2  111.126(    21)     11  121.113(    30)      0
 ---------------------------------------------------------------------------------------------------
                         Z-Matrix orientation:                         
 ---------------------------------------------------------------------
 Center     Atomic      Atomic             Coordinates (Angstroms)
 Number     Number       Type             X           Y           Z
 ---------------------------------------------------------------------
      1          6           0        0.000000    0.000000    0.000000
      2          6           0        0.000000    0.000000    1.335288
      3          6           0        1.269075    0.000000   -0.714397
      4          1           0       -0.926348    0.075487   -0.555982
      5          1           0       -0.908407    0.075585    1.918113
      6          1           0        1.313992   -0.088454   -1.791267
      7          6           0        2.386405    0.264684   -0.019925
      8          6           0        1.305978   -0.122448    2.065954
      9          1           0        3.355351    0.443562   -0.472232
     10          8           0        2.414354    0.441434    1.312607
     11          1           0        1.301321    0.413228    3.012576
     12          1           0        1.547517   -1.175445    2.272391
 ---------------------------------------------------------------------
                    Distance matrix (angstroms):
                    1          2          3          4          5
     1  C    0.000000
     2  C    1.335288   0.000000
     3  C    1.456336   2.410759   0.000000
     4  H    1.083021   2.107302   2.202425   0.000000
     5  H    2.123694   1.081943   3.417199   2.474161   0.000000
     6  H    2.223294   3.392601   1.081430   2.563578   4.327293
     7  C    2.401121   2.757098   1.341930   3.361174   3.827210
     8  C    2.447190   1.501481   2.783291   3.449204   2.228132
     9  H    3.417328   3.836959   2.146610   4.298307   4.901917
    10  O    2.783327   2.454482   2.369657   3.845235   3.397237
    11  H    3.307538   2.162751   3.749950   4.220330   2.488925
    12  H    2.990024   2.157462   3.221817   3.960371   2.778876
                    6          7          8          9         10
     6  H    0.000000
     7  C    2.100579   0.000000
     8  C    3.857379   2.380774   0.000000
     9  H    2.487979   1.084175   3.310995   0.000000
    10  O    3.335508   1.344494   1.453957   2.017705   0.000000
    11  H    4.829985   3.224210   1.087687   4.045225   2.032124
    12  H    4.213004   2.834151   1.099891   3.663660   2.070480
                   11         12
    11  H    0.000000
    12  H    1.769850   0.000000
 Symmetry turned off by external request.
 Stoichiometry    C5H6O
 Framework group  C1[X(C5H6O)]
 Deg. of freedom    30
 Full point group                 C1      NOp   1
 Rotational constants (GHZ):           5.5566380           5.3689416           2.8335123
 Standard basis: def2TZVP (5D, 7F)
 The following finite field(s) will be applied:
 An electric field of              0.0041 -0.0029 -0.0086
   222 basis functions,   354 primitive gaussians,   252 cartesian basis functions
    22 alpha electrons       22 beta electrons
       nuclear repulsion energy       223.2854069090 Hartrees.
 NAtoms=   12 NActive=   12 NUniq=   12 SFac= 1.00D+00 NAtFMM=   60 NAOKFM=F Big=F
 Integral buffers will be    131072 words long.
 Raffenetti 2 integral format.
 Two-electron integral symmetry is turned off.
 One-electron integrals computed using PRISM.
   1 Symmetry operations used in ECPInt.
 ECPInt:  NShTT=    4095 NPrTT=   12396 LenC2=    4075 LenP2D=   10415.
 LDataN:  DoStor=T MaxTD1= 6 Len=  172
 NBasis=   222 RedAO= T EigKep=  9.50D-05  NBF=   222
 NBsUse=   222 1.00D-06 EigRej= -1.00D+00 NBFU=   222
 The nuclear repulsion energy is now       223.1866583780 hartrees.
 Initial guess from the checkpoint file:  "checkpoint.chk"
 B after Tr=     0.000352    0.002785    0.001099
         Rot=    0.999999   -0.000013    0.000152    0.001561 Ang=  -0.18 deg.
 Keep R1 ints in memory in canonical form, NReq=319363885.
 Requested convergence on RMS density matrix=1.00D-08 within 128 cycles.
 Requested convergence on MAX density matrix=1.00D-06.
 Requested convergence on             energy=1.00D-06.
 No special actions if energy rises.
 SCF Done:  E(RB3LYP) =  -269.426557696     A.U. after    9 cycles
            NFock=  9  Conv=0.39D-08     -V/T= 2.0050
   1 Symmetry operations used in ECPInt.
 ECPInt:  NShTT=    4095 NPrTT=   12396 LenC2=    4075 LenP2D=   10415.
 LDataN:  DoStor=T MaxTD1= 7 Len=  274
 Calling FoFJK, ICntrl=      2127 FMM=F ISym2X=0 I1Cent= 0 IOpClX= 0 NMat=1 NMatS=1 NMatT=0.
 -------------------------------------------------------------------
 Center     Atomic                   Forces (Hartrees/Bohr)
 Number     Number              X              Y              Z
 -------------------------------------------------------------------
      1        6          -0.000764063    0.000555175    0.000054442
      2        6           0.000847325    0.000442435   -0.000015475
      3        6           0.000051996   -0.000832318   -0.000075537
      4        1          -0.000008860   -0.000067905    0.000006464
      5        1          -0.000003780   -0.000107709    0.000032713
      6        1           0.000026979   -0.000063776    0.000078260
      7        6           0.000024453    0.000285984   -0.000050613
      8        6          -0.000208821   -0.000002335    0.000092683
      9        1          -0.000023197   -0.000004808   -0.000011817
     10        8           0.000118040   -0.000299688   -0.000206925
     11        1          -0.000106286    0.000037329    0.000056364
     12        1           0.000046214    0.000057616    0.000039441
 -------------------------------------------------------------------
 Cartesian Forces:  Max     0.000847325 RMS     0.000281154
 -----------------------------------------------------------------------------------------------
                       Internal Coordinate Forces (Hartree/Bohr or radian)
  Cent   Atom   N1       Length/X         N2         Alpha/Y        N3         Beta/Z          J
 -----------------------------------------------------------------------------------------------
      1  C 
      2  C        1   0.000206(     1)
      3  C        1   0.000304(     2)      2   0.001385(    12)
      4  H        1  -0.000000(     3)      2  -0.000015(    13)      3  -0.000120(    22)     0
      5  H        2   0.000013(     4)      1   0.000062(    14)      3   0.000577(    23)     0
      6  H        3  -0.000072(     5)      1   0.000054(    15)      2   0.000446(    24)     0
      7  C        3  -0.000044(     6)      1   0.001016(    16)      6   0.000570(    25)     0
      8  C        2  -0.000150(     7)      1   0.001048(    17)      5   0.000392(    26)     0
      9  H        7  -0.000017(     8)      3  -0.000042(    18)      1   0.000604(    27)     0
     10  O        7  -0.000242(     9)      3   0.000204(    19)      9   0.000603(    28)     0
     11  H        8   0.000068(    10)      2  -0.000208(    20)      1   0.000029(    29)     0
     12  H        8  -0.000038(    11)      2   0.000152(    21)     11  -0.000030(    30)     0
 -----------------------------------------------------------------------------------------------
 Internal  Forces:  Max     0.001385143 RMS     0.000452756

 GradGradGradGradGradGradGradGradGradGradGradGradGradGradGradGradGradGrad
 Berny optimization.
 Search for a local minimum.
 Step number   3 out of a maximum of   40
 All quantities printed in internal units (Hartrees-Bohrs-Radians)
 Update second derivatives using D2CorN and points    1    2    3
 DE= -5.87D-06 DEPred=-3.93D-06 R= 1.49D+00
 TightC=F SS=  1.41D+00  RLast= 1.17D-02 DXNew= 1.6818D-01 3.4982D-02
 Trust test= 1.49D+00 RLast= 1.17D-02 DXMaxT set to 1.00D-01
 ITU=  1  1  0
     Eigenvalues ---    0.03014   0.03397   0.04679   0.06486   0.06861
     Eigenvalues ---    0.12720   0.16373   0.18396   0.19801   0.21852
     Eigenvalues ---    0.26916   0.31010   0.33164   0.33617   0.34675
     Eigenvalues ---    0.35048   0.35477   0.35636   0.35764   0.35869
     Eigenvalues ---    0.38847   0.41742   0.51341   0.53735   0.56306
     Eigenvalues ---    0.56795   0.59315   1.97233   4.30876  22.28070
 RFO step:  Lambda=-3.91431100D-06 EMin= 3.01372545D-02
 Quartic linear search produced a step of  0.59744.
 Variable       Old X    -DE/DX   Delta X   Delta X   Delta X     New X
                                 (Linear)    (Quad)   (Total)
    R2        2.52333   0.00021  -0.00013   0.00004  -0.00008   2.52324
    R3        2.75208   0.00030  -0.00005   0.00028   0.00023   2.75231
    R4        2.04661  -0.00000  -0.00003   0.00002  -0.00001   2.04661
    R5        2.04458   0.00001   0.00004   0.00003   0.00008   2.04466
    R6        2.04361  -0.00007   0.00008  -0.00025  -0.00017   2.04343
    R7        2.53588  -0.00004  -0.00002  -0.00018  -0.00020   2.53568
    R8        2.83739  -0.00015   0.00007  -0.00038  -0.00031   2.83708
    R9        2.04879  -0.00002   0.00013  -0.00005   0.00008   2.04887
   R10        2.54072  -0.00024  -0.00084   0.00026  -0.00058   2.54014
   R11        2.05543   0.00007  -0.00010   0.00033   0.00024   2.05567
   R12        2.07849  -0.00004  -0.00015  -0.00013  -0.00028   2.07821
    A3        2.08351   0.00139  -0.00001   0.00062   0.00061   2.08412
    A4        2.10989  -0.00001  -0.00030  -0.00032  -0.00063   2.10927
    A5        2.13967   0.00006  -0.00021  -0.00003  -0.00024   2.13943
    A6        2.12312   0.00005  -0.00002   0.00022   0.00020   2.12332
    A7        2.06202   0.00102  -0.00008   0.00009   0.00001   2.06203
    A8        2.07902   0.00105   0.00125   0.00024   0.00149   2.08052
    A9        2.16612  -0.00004  -0.00081   0.00021  -0.00060   2.16552
   A10        2.16054   0.00020   0.00112  -0.00060   0.00052   2.16106
   A11        1.96019  -0.00021   0.00005  -0.00092  -0.00087   1.95932
   A12        1.93951   0.00015   0.00048  -0.00005   0.00043   1.93994
    D4       -3.06028  -0.00012   0.00131  -0.00225  -0.00094  -3.06122
    D5        3.05858   0.00058  -0.00099   0.00213   0.00114   3.05972
    D6        3.04536   0.00045   0.00318  -0.00116   0.00201   3.04738
    D7        3.01222   0.00057  -0.00025   0.00009  -0.00016   3.01207
    D8        3.13112   0.00039   0.00068   0.00046   0.00114   3.13226
    D9       -2.96671   0.00060  -0.00062  -0.00047  -0.00109  -2.96780
   D10        3.04783   0.00060  -0.00008   0.00161   0.00153   3.04936
   D11        2.58348   0.00003  -0.00547  -0.00278  -0.00826   2.57522
   D12        2.11382  -0.00003   0.00049  -0.00095  -0.00046   2.11336
         Item               Value     Threshold  Converged?
 Maximum Force            0.001385     0.000450     NO 
 RMS     Force            0.000453     0.000300     NO 
 Maximum Displacement     0.008255     0.001800     NO 
 RMS     Displacement     0.001681     0.001200     NO 
 Predicted change in Energy=-2.234914D-06
 GradGradGradGradGradGradGradGradGradGradGradGradGradGradGradGradGradGrad

 ---------------------------------------------------------------------------------------------------
                            Z-MATRIX (ANGSTROMS AND DEGREES)
   CD    Cent   Atom    N1       Length/X        N2       Alpha/Y        N3        Beta/Z          J
 ---------------------------------------------------------------------------------------------------
      1      1  C 
      2      2  C        1   1.335244(     1)
      3      3  C        1   1.456460(     2)      2  119.411(    12)
      4      4  H        1   1.083017(     3)      2  120.852(    13)      3 -175.395(    22)      0
      5      5  H        2   1.081985(     4)      1  122.580(    14)      3  175.309(    23)      0
      6      6  H        3   1.081339(     5)      1  121.657(    15)      2  174.602(    24)      0
      7      7  C        3   1.341825(     6)      1  118.145(    16)      6  172.579(    25)      0
      8      8  C        2   1.501318(     7)      1  119.205(    17)      5  179.465(    26)      0
      9      9  H        7   1.084217(     8)      3  124.075(    18)      1 -170.042(    27)      0
     10     10  O        7   1.344187(     9)      3  123.820(    19)      9  174.715(    28)      0
     11     11  H        8   1.087813(    10)      2  112.261(    20)      1  147.549(    29)      0
     12     12  H        8   1.099740(    11)      2  111.150(    21)     11  121.087(    30)      0
 ---------------------------------------------------------------------------------------------------
                         Z-Matrix orientation:                         
 ---------------------------------------------------------------------
 Center     Atomic      Atomic             Coordinates (Angstroms)
 Number     Number       Type             X           Y           Z
 ---------------------------------------------------------------------
      1          6           0        0.000000    0.000000    0.000000
      2          6           0        0.000000    0.000000    1.335244
      3          6           0        1.268746    0.000000   -0.715234
      4          1           0       -0.926762    0.074646   -0.555397
      5          1           0       -0.908668    0.074562    1.917871
      6          1           0        1.313130   -0.086591   -1.792186
      7          6           0        2.386661    0.262518   -0.021084
      8          6           0        1.305024   -0.119355    2.067789
      9          1           0        3.355464    0.440209   -0.474265
     10          8           0        2.416352    0.436672    1.311443
     11          1           0        1.299639    0.423577    3.010408
     12          1           0        1.544698   -1.170922    2.282711
 ---------------------------------------------------------------------
                    Distance matrix (angstroms):
                    1          2          3          4          5
     1  C    0.000000
     2  C    1.335244   0.000000
     3  C    1.456460   2.411260   0.000000
     4  H    1.083017   2.106889   2.202584   0.000000
     5  H    2.123551   1.081985   3.417592   2.473334   0.000000
     6  H    2.223452   3.393026   1.081339   2.563740   4.327457
     7  C    2.401148   2.757661   1.341825   3.361482   3.828063
     8  C    2.448077   1.501318   2.785817   3.449581   2.227220
     9  H    3.417287   3.837609   2.146216   4.298568   4.902941
    10  O    2.783761   2.455607   2.369620   3.846111   3.399211
    11  H    3.306212   2.162095   3.749771   4.218244   2.488387
    12  H    2.994649   2.157509   3.230307   3.964141   2.775490
                    6          7          8          9         10
     6  H    0.000000
     7  C    2.100274   0.000000
     8  C    3.860122   2.383098   0.000000
     9  H    2.487079   1.084217   3.313526   0.000000
    10  O    3.335178   1.344187   1.454743   2.017596   0.000000
    11  H    4.829634   3.224516   1.087813   4.045941   2.033152
    12  H    4.223054   2.840973   1.099740   3.670904   2.070629
                   11         12
    11  H    0.000000
    12  H    1.769753   0.000000
 Symmetry turned off by external request.
 Stoichiometry    C5H6O
 Framework group  C1[X(C5H6O)]
 Deg. of freedom    30
 Full point group                 C1      NOp   1
 Rotational constants (GHZ):           5.5521438           5.3697641           2.8308893
 Standard basis: def2TZVP (5D, 7F)
 The following finite field(s) will be applied:
 An electric field of              0.0041 -0.0029 -0.0086
   222 basis functions,   354 primitive gaussians,   252 cartesian basis functions
    22 alpha electrons       22 beta electrons
       nuclear repulsion energy       223.2471042951 Hartrees.
 NAtoms=   12 NActive=   12 NUniq=   12 SFac= 1.00D+00 NAtFMM=   60 NAOKFM=F Big=F
 Integral buffers will be    131072 words long.
 Raffenetti 2 integral format.
 Two-electron integral symmetry is turned off.
 One-electron integrals computed using PRISM.
   1 Symmetry operations used in ECPInt.
 ECPInt:  NShTT=    4095 NPrTT=   12396 LenC2=    4075 LenP2D=   10415.
 LDataN:  DoStor=T MaxTD1= 6 Len=  172
 NBasis=   222 RedAO= T EigKep=  9.49D-05  NBF=   222
 NBsUse=   222 1.00D-06 EigRej= -1.00D+00 NBFU=   222
 The nuclear repulsion energy is now       223.1485828135 hartrees.
 Initial guess from the checkpoint file:  "checkpoint.chk"
 B after Tr=    -0.000215    0.000653    0.000256
         Rot=    1.000000    0.000539   -0.000060    0.000634 Ang=   0.10 deg.
 Keep R1 ints in memory in canonical form, NReq=319363885.
 Requested convergence on RMS density matrix=1.00D-08 within 128 cycles.
 Requested convergence on MAX density matrix=1.00D-06.
 Requested convergence on             energy=1.00D-06.
 No special actions if energy rises.
 SCF Done:  E(RB3LYP) =  -269.426561227     A.U. after    8 cycles
            NFock=  8  Conv=0.70D-08     -V/T= 2.0050
   1 Symmetry operations used in ECPInt.
 ECPInt:  NShTT=    4095 NPrTT=   12396 LenC2=    4075 LenP2D=   10415.
 LDataN:  DoStor=T MaxTD1= 7 Len=  274
 Calling FoFJK, ICntrl=      2127 FMM=F ISym2X=0 I1Cent= 0 IOpClX= 0 NMat=1 NMatS=1 NMatT=0.
 -------------------------------------------------------------------
 Center     Atomic                   Forces (Hartrees/Bohr)
 Number     Number              X              Y              Z
 -------------------------------------------------------------------
      1        6          -0.000773598    0.000466444    0.000057190
      2        6           0.000841204    0.000545795   -0.000068504
      3        6          -0.000016661   -0.000731561   -0.000026523
      4        1          -0.000001361   -0.000091778   -0.000014417
      5        1          -0.000004385   -0.000098274    0.000007743
      6        1          -0.000005643   -0.000070116    0.000024823
      7        6          -0.000070862    0.000122525   -0.000111189
      8        6          -0.000016519   -0.000015890   -0.000128773
      9        1          -0.000013204   -0.000012924    0.000069058
     10        8           0.000043403   -0.000153095    0.000116101
     11        1          -0.000023283    0.000015254    0.000012421
     12        1           0.000040909    0.000023619    0.000062070
 -------------------------------------------------------------------
 Cartesian Forces:  Max     0.000841204 RMS     0.000262997
 -----------------------------------------------------------------------------------------------
                       Internal Coordinate Forces (Hartree/Bohr or radian)
  Cent   Atom   N1       Length/X         N2         Alpha/Y        N3         Beta/Z          J
 -----------------------------------------------------------------------------------------------
      1  C 
      2  C        1  -0.000115(     1)
      3  C        1  -0.000090(     2)      2  -0.000301(    12)
      4  H        1   0.000002(     3)      2   0.000032(    13)      3  -0.000161(    22)     0
      5  H        2   0.000001(     4)      1   0.000017(    14)      3   0.000342(    23)     0
      6  H        3  -0.000019(     5)      1  -0.000017(    15)      2   0.000393(    24)     0
      7  C        3  -0.000004(     6)      1  -0.000252(    16)      6   0.000517(    25)     0
      8  C        2  -0.000027(     7)      1  -0.000067(    17)      5   0.000173(    26)     0
      9  H        7  -0.000043(     8)      3   0.000114(    18)      1   0.000339(    27)     0
     10  O        7   0.000096(     9)      3   0.000039(    19)      9   0.000361(    28)     0
     11  H        8   0.000018(    10)      2  -0.000050(    20)      1  -0.000067(    29)     0
     12  H        8  -0.000002(    11)      2   0.000144(    21)     11  -0.000070(    30)     0
 -----------------------------------------------------------------------------------------------
 Internal  Forces:  Max     0.000517223 RMS     0.000189823

 GradGradGradGradGradGradGradGradGradGradGradGradGradGradGradGradGradGrad
 Berny optimization.
 Search for a local minimum.
 Step number   4 out of a maximum of   40
 All quantities printed in internal units (Hartrees-Bohrs-Radians)
 Update second derivatives using D2CorN and points    1    2    3    4
 DE= -3.53D-06 DEPred=-2.23D-06 R= 1.58D+00
 TightC=F SS=  1.41D+00  RLast= 9.21D-03 DXNew= 1.6818D-01 2.7629D-02
 Trust test= 1.58D+00 RLast= 9.21D-03 DXMaxT set to 1.00D-01
 ITU=  1  1  1  0
     Eigenvalues ---    0.02105   0.03512   0.04669   0.06417   0.06862
     Eigenvalues ---    0.12694   0.16274   0.18429   0.19809   0.21854
     Eigenvalues ---    0.26921   0.31006   0.33145   0.33613   0.34670
     Eigenvalues ---    0.35048   0.35476   0.35636   0.35763   0.35867
     Eigenvalues ---    0.38835   0.41364   0.51371   0.53729   0.56326
     Eigenvalues ---    0.56796   0.59333   1.97256   4.30358  22.28113
 RFO step:  Lambda=-1.64426252D-06 EMin= 2.10543102D-02
 Quartic linear search produced a step of  0.59201.
 Variable       Old X    -DE/DX   Delta X   Delta X   Delta X     New X
                                 (Linear)    (Quad)   (Total)
    R2        2.52324  -0.00012  -0.00005  -0.00018  -0.00023   2.52301
    R3        2.75231  -0.00009   0.00014  -0.00020  -0.00006   2.75225
    R4        2.04661   0.00000  -0.00000   0.00001   0.00001   2.04661
    R5        2.04466   0.00000   0.00005  -0.00001   0.00004   2.04469
    R6        2.04343  -0.00002  -0.00010   0.00005  -0.00005   2.04338
    R7        2.53568  -0.00000  -0.00012   0.00008  -0.00004   2.53564
    R8        2.83708  -0.00003  -0.00018   0.00005  -0.00013   2.83695
    R9        2.04887  -0.00004   0.00005  -0.00014  -0.00009   2.04878
   R10        2.54014   0.00010  -0.00034   0.00009  -0.00025   2.53990
   R11        2.05567   0.00002   0.00014  -0.00001   0.00013   2.05579
   R12        2.07821  -0.00000  -0.00017   0.00002  -0.00015   2.07806
    A3        2.08412  -0.00030   0.00036  -0.00025   0.00011   2.08423
    A4        2.10927   0.00003  -0.00037   0.00029  -0.00009   2.10918
    A5        2.13943   0.00002  -0.00014  -0.00028  -0.00042   2.13901
    A6        2.12332  -0.00002   0.00012  -0.00007   0.00005   2.12338
    A7        2.06203  -0.00025   0.00001  -0.00010  -0.00009   2.06194
    A8        2.08052  -0.00007   0.00088   0.00059   0.00148   2.08199
    A9        2.16552   0.00011  -0.00035   0.00042   0.00007   2.16559
   A10        2.16106   0.00004   0.00031   0.00063   0.00094   2.16200
   A11        1.95932  -0.00005  -0.00051  -0.00026  -0.00077   1.95855
   A12        1.93994   0.00014   0.00025   0.00071   0.00097   1.94091
    D4       -3.06122  -0.00016  -0.00056  -0.00197  -0.00253  -3.06375
    D5        3.05972   0.00034   0.00068   0.00145   0.00212   3.06184
    D6        3.04738   0.00039   0.00119  -0.00057   0.00062   3.04800
    D7        3.01207   0.00052  -0.00009   0.00128   0.00119   3.01325
    D8        3.13226   0.00017   0.00067  -0.00101  -0.00034   3.13192
    D9       -2.96780   0.00034  -0.00065  -0.00155  -0.00220  -2.97000
   D10        3.04936   0.00036   0.00091   0.00117   0.00207   3.05143
   D11        2.57522  -0.00007  -0.00489  -0.00254  -0.00743   2.56780
   D12        2.11336  -0.00007  -0.00027  -0.00004  -0.00031   2.11305
         Item               Value     Threshold  Converged?
 Maximum Force            0.000517     0.000450     NO 
 RMS     Force            0.000190     0.000300     YES
 Maximum Displacement     0.007426     0.001800     NO 
 RMS     Displacement     0.001655     0.001200     NO 
 Predicted change in Energy=-1.189073D-06
 GradGradGradGradGradGradGradGradGradGradGradGradGradGradGradGradGradGrad

 ---------------------------------------------------------------------------------------------------
                            Z-MATRIX (ANGSTROMS AND DEGREES)
   CD    Cent   Atom    N1       Length/X        N2       Alpha/Y        N3        Beta/Z          J
 ---------------------------------------------------------------------------------------------------
      1      1  C 
      2      2  C        1   1.335120(     1)
      3      3  C        1   1.456428(     2)      2  119.418(    12)
      4      4  H        1   1.083021(     3)      2  120.847(    13)      3 -175.540(    22)      0
      5      5  H        2   1.082004(     4)      1  122.556(    14)      3  175.431(    23)      0
      6      6  H        3   1.081311(     5)      1  121.660(    15)      2  174.638(    24)      0
      7      7  C        3   1.341804(     6)      1  118.140(    16)      6  172.647(    25)      0
      8      8  C        2   1.501250(     7)      1  119.289(    17)      5  179.446(    26)      0
      9      9  H        7   1.084168(     8)      3  124.079(    18)      1 -170.168(    27)      0
     10     10  O        7   1.344055(     9)      3  123.873(    19)      9  174.834(    28)      0
     11     11  H        8   1.087879(    10)      2  112.217(    20)      1  147.124(    29)      0
     12     12  H        8   1.099662(    11)      2  111.206(    21)     11  121.069(    30)      0
 ---------------------------------------------------------------------------------------------------
                         Z-Matrix orientation:                         
 ---------------------------------------------------------------------
 Center     Atomic      Atomic             Coordinates (Angstroms)
 Number     Number       Type             X           Y           Z
 ---------------------------------------------------------------------
      1          6           0        0.000000    0.000000    0.000000
      2          6           0        0.000000    0.000000    1.335120
      3          6           0        1.268640    0.000000   -0.715358
      4          1           0       -0.926999    0.072306   -0.555319
      5          1           0       -0.909083    0.072654    1.917375
      6          1           0        1.312934   -0.086016   -1.792332
      7          6           0        2.386781    0.260439   -0.020829
      8          6           0        1.304098   -0.116922    2.069564
      9          1           0        3.356107    0.436073   -0.473574
     10          8           0        2.417873    0.432759    1.311771
     11          1           0        1.298094    0.432494    3.008492
     12          1           0        1.542371   -1.167087    2.292359
 ---------------------------------------------------------------------
                    Distance matrix (angstroms):
                    1          2          3          4          5
     1  C    0.000000
     2  C    1.335120   0.000000
     3  C    1.456428   2.411204   0.000000
     4  H    1.083021   2.106731   2.202650   0.000000
     5  H    2.123214   1.082004   3.417461   2.472759   0.000000
     6  H    2.223432   3.392956   1.081311   2.563701   4.327177
     7  C    2.401038   2.757381   1.341804   3.361876   3.828135
     8  C    2.448967   1.501250   2.787600   3.450161   2.226493
     9  H    3.417293   3.837316   2.146192   4.299303   4.903118
    10  O    2.784624   2.456407   2.370078   3.847612   3.400745
    11  H    3.305015   2.161544   3.748997   4.216815   2.488303
    12  H    2.999318   2.158079   3.237805   3.967764   2.772579
                    6          7          8          9         10
     6  H    0.000000
     7  C    2.100333   0.000000
     8  C    3.862029   2.384187   0.000000
     9  H    2.487218   1.084168   3.314226   0.000000
    10  O    3.335486   1.344055   1.454955   2.016867   0.000000
    11  H    4.828767   3.223605   1.087879   4.044777   2.032921
    12  H    4.231555   2.846348   1.099662   3.675616   2.070644
                   11         12
    11  H    0.000000
    12  H    1.769514   0.000000
 Symmetry turned off by external request.
 Stoichiometry    C5H6O
 Framework group  C1[X(C5H6O)]
 Deg. of freedom    30
 Full point group                 C1      NOp   1
 Rotational constants (GHZ):           5.5507855           5.3691820           2.8290062
 Standard basis: def2TZVP (5D, 7F)
 The following finite field(s) will be applied:
 An electric field of              0.0041 -0.0029 -0.0086
   222 basis functions,   354 primitive gaussians,   252 cartesian basis functions
    22 alpha electrons       22 beta electrons
       nuclear repulsion energy       223.2255403870 Hartrees.
 NAtoms=   12 NActive=   12 NUniq=   12 SFac= 1.00D+00 NAtFMM=   60 NAOKFM=F Big=F
 Integral buffers will be    131072 words long.
 Raffenetti 2 integral format.
 Two-electron integral symmetry is turned off.
 One-electron integrals computed using PRISM.
   1 Symmetry operations used in ECPInt.
 ECPInt:  NShTT=    4095 NPrTT=   12396 LenC2=    4075 LenP2D=   10415.
 LDataN:  DoStor=T MaxTD1= 6 Len=  172
 NBasis=   222 RedAO= T EigKep=  9.46D-05  NBF=   222
 NBsUse=   222 1.00D-06 EigRej= -1.00D+00 NBFU=   222
 The nuclear repulsion energy is now       223.1268265316 hartrees.
 Initial guess from the checkpoint file:  "checkpoint.chk"
 B after Tr=     0.000235    0.000054    0.000546
         Rot=    1.000000    0.000487    0.000114    0.000507 Ang=   0.08 deg.
 Keep R1 ints in memory in canonical form, NReq=319363885.
 Requested convergence on RMS density matrix=1.00D-08 within 128 cycles.
 Requested convergence on MAX density matrix=1.00D-06.
 Requested convergence on             energy=1.00D-06.
 No special actions if energy rises.
 SCF Done:  E(RB3LYP) =  -269.426562778     A.U. after    9 cycles
            NFock=  9  Conv=0.31D-08     -V/T= 2.0050
   1 Symmetry operations used in ECPInt.
 ECPInt:  NShTT=    4095 NPrTT=   12396 LenC2=    4075 LenP2D=   10415.
 LDataN:  DoStor=T MaxTD1= 7 Len=  274
 Calling FoFJK, ICntrl=      2127 FMM=F ISym2X=0 I1Cent= 0 IOpClX= 0 NMat=1 NMatS=1 NMatT=0.
 -------------------------------------------------------------------
 Center     Atomic                   Forces (Hartrees/Bohr)
 Number     Number              X              Y              Z
 -------------------------------------------------------------------
      1        6          -0.000775772    0.000321108    0.000015349
      2        6           0.000772392    0.000523432    0.000006164
      3        6           0.000051992   -0.000647770    0.000035434
      4        1           0.000004635   -0.000046353   -0.000000037
      5        1          -0.000003483   -0.000073445    0.000016390
      6        1           0.000005923   -0.000045511    0.000017135
      7        6           0.000011091   -0.000010705   -0.000194923
      8        6           0.000081512    0.000099897   -0.000078068
      9        1           0.000001673   -0.000002326    0.000002477
     10        8          -0.000082766   -0.000072484    0.000101733
     11        1          -0.000048545   -0.000040829    0.000053190
     12        1          -0.000018652   -0.000005015    0.000025156
 -------------------------------------------------------------------
 Cartesian Forces:  Max     0.000775772 RMS     0.000241573
 -----------------------------------------------------------------------------------------------
                       Internal Coordinate Forces (Hartree/Bohr or radian)
  Cent   Atom   N1       Length/X         N2         Alpha/Y        N3         Beta/Z          J
 -----------------------------------------------------------------------------------------------
      1  C 
      2  C        1   0.000023(     1)
      3  C        1   0.000008(     2)      2  -0.000026(    12)
      4  H        1  -0.000007(     3)      2   0.000009(    13)      3  -0.000081(    22)     0
      5  H        2   0.000007(     4)      1   0.000031(    14)      3   0.000275(    23)     0
      6  H        3  -0.000013(     5)      1   0.000009(    15)      2   0.000227(    24)     0
      7  C        3  -0.000122(     6)      1  -0.000124(    16)      6   0.000309(    25)     0
      8  C        2   0.000008(     7)      1   0.000085(    17)      5   0.000148(    26)     0
      9  H        7   0.000000(     8)      3   0.000005(    18)      1   0.000145(    27)     0
     10  O        7   0.000090(     9)      3  -0.000246(    19)      9   0.000150(    28)     0
     11  H        8   0.000026(    10)      2  -0.000050(    20)      1   0.000083(    29)     0
     12  H        8   0.000006(    11)      2  -0.000013(    21)     11  -0.000059(    30)     0
 -----------------------------------------------------------------------------------------------
 Internal  Forces:  Max     0.000308759 RMS     0.000117832

 GradGradGradGradGradGradGradGradGradGradGradGradGradGradGradGradGradGrad
 Berny optimization.
 Search for a local minimum.
 Step number   5 out of a maximum of   40
 All quantities printed in internal units (Hartrees-Bohrs-Radians)
 Update second derivatives using D2CorN and points    1    2    3    4    5

 DE= -1.55D-06 DEPred=-1.19D-06 R= 1.30D+00
 TightC=F SS=  1.41D+00  RLast= 9.06D-03 DXNew= 1.6818D-01 2.7191D-02
 Trust test= 1.30D+00 RLast= 9.06D-03 DXMaxT set to 1.00D-01
 ITU=  1  1  1  1  0
     Eigenvalues ---    0.01812   0.03674   0.04682   0.06386   0.06855
     Eigenvalues ---    0.12689   0.16254   0.18398   0.19811   0.21852
     Eigenvalues ---    0.26919   0.31002   0.33140   0.33614   0.34668
     Eigenvalues ---    0.35048   0.35474   0.35636   0.35763   0.35869
     Eigenvalues ---    0.38830   0.41223   0.51367   0.53762   0.56316
     Eigenvalues ---    0.56801   0.59318   1.97266   4.30207  22.28112
 RFO step:  Lambda=-5.26120333D-07 EMin= 1.81158222D-02
 Quartic linear search produced a step of  0.26594.
 Variable       Old X    -DE/DX   Delta X   Delta X   Delta X     New X
                                 (Linear)    (Quad)   (Total)
    R2        2.52301   0.00002  -0.00006   0.00003  -0.00003   2.52298
    R3        2.75225   0.00001  -0.00002   0.00013   0.00011   2.75236
    R4        2.04661  -0.00001   0.00000  -0.00003  -0.00002   2.04659
    R5        2.04469   0.00001   0.00001   0.00002   0.00003   2.04472
    R6        2.04338  -0.00001  -0.00001  -0.00002  -0.00004   2.04334
    R7        2.53564  -0.00012  -0.00001  -0.00016  -0.00017   2.53547
    R8        2.83695   0.00001  -0.00003  -0.00008  -0.00011   2.83684
    R9        2.04878   0.00000  -0.00002   0.00004   0.00001   2.04879
   R10        2.53990   0.00009  -0.00007   0.00026   0.00020   2.54009
   R11        2.05579   0.00003   0.00003   0.00008   0.00011   2.05590
   R12        2.07806   0.00001  -0.00004   0.00003  -0.00001   2.07805
    A3        2.08423  -0.00003   0.00003   0.00012   0.00015   2.08439
    A4        2.10918   0.00001  -0.00002  -0.00003  -0.00006   2.10912
    A5        2.13901   0.00003  -0.00011   0.00008  -0.00003   2.13898
    A6        2.12338   0.00001   0.00001   0.00000   0.00002   2.12339
    A7        2.06194  -0.00012  -0.00002   0.00015   0.00013   2.06206
    A8        2.08199   0.00008   0.00039  -0.00002   0.00037   2.08237
    A9        2.16559   0.00001   0.00002   0.00009   0.00011   2.16570
   A10        2.16200  -0.00025   0.00025  -0.00036  -0.00011   2.16188
   A11        1.95855  -0.00005  -0.00021  -0.00006  -0.00027   1.95828
   A12        1.94091  -0.00001   0.00026  -0.00044  -0.00019   1.94072
    D4       -3.06375  -0.00008  -0.00067  -0.00106  -0.00174  -3.06549
    D5        3.06184   0.00027   0.00056   0.00124   0.00181   3.06365
    D6        3.04800   0.00023   0.00017  -0.00086  -0.00069   3.04731
    D7        3.01325   0.00031   0.00032   0.00093   0.00125   3.01450
    D8        3.13192   0.00015  -0.00009  -0.00053  -0.00062   3.13130
    D9       -2.97000   0.00015  -0.00058  -0.00083  -0.00142  -2.97141
   D10        3.05143   0.00015   0.00055   0.00009   0.00064   3.05207
   D11        2.56780   0.00008  -0.00197  -0.00014  -0.00212   2.56568
   D12        2.11305  -0.00006  -0.00008  -0.00064  -0.00072   2.11232
         Item               Value     Threshold  Converged?
 Maximum Force            0.000309     0.000450     YES
 RMS     Force            0.000118     0.000300     YES
 Maximum Displacement     0.002119     0.001800     NO 
 RMS     Displacement     0.000743     0.001200     YES
 Predicted change in Energy=-2.897662D-07
 GradGradGradGradGradGradGradGradGradGradGradGradGradGradGradGradGradGrad

 ---------------------------------------------------------------------------------------------------
                            Z-MATRIX (ANGSTROMS AND DEGREES)
   CD    Cent   Atom    N1       Length/X        N2       Alpha/Y        N3        Beta/Z          J
 ---------------------------------------------------------------------------------------------------
      1      1  C 
      2      2  C        1   1.335106(     1)
      3      3  C        1   1.456487(     2)      2  119.426(    12)
      4      4  H        1   1.083008(     3)      2  120.844(    13)      3 -175.639(    22)      0
      5      5  H        2   1.082020(     4)      1  122.554(    14)      3  175.534(    23)      0
      6      6  H        3   1.081292(     5)      1  121.662(    15)      2  174.598(    24)      0
      7      7  C        3   1.341712(     6)      1  118.148(    16)      6  172.718(    25)      0
[...]
 All quantities printed in internal units (Hartrees-Bohrs-Radians)
 Update second derivatives using D2CorN and points    1    2    3    4    5
                                                          6
 DE= -4.15D-07 DEPred=-2.90D-07 R= 1.43D+00
 Trust test= 1.43D+00 RLast= 4.07D-03 DXMaxT set to 1.00D-01
 ITU=  0  1  1  1  1  0
     Eigenvalues ---    0.01406   0.03665   0.04654   0.05885   0.06844
     Eigenvalues ---    0.12566   0.16243   0.18358   0.19801   0.21858
     Eigenvalues ---    0.26909   0.31000   0.33137   0.33614   0.34670
     Eigenvalues ---    0.35043   0.35473   0.35636   0.35763   0.35870
     Eigenvalues ---    0.38831   0.41125   0.51367   0.53688   0.56294
     Eigenvalues ---    0.56786   0.59292   1.97303   4.30198  22.28074
 RFO step:  Lambda=-1.74828740D-07 EMin= 1.40639256D-02
 Quartic linear search produced a step of  0.48638.
 Variable       Old X    -DE/DX   Delta X   Delta X   Delta X     New X
                                 (Linear)    (Quad)   (Total)
    R2        2.52298  -0.00007  -0.00001  -0.00005  -0.00006   2.52292
    R3        2.75236  -0.00008   0.00005  -0.00006  -0.00000   2.75236
    R4        2.04659  -0.00000  -0.00001   0.00001  -0.00001   2.04658
    R5        2.04472   0.00000   0.00002  -0.00000   0.00001   2.04473
    R6        2.04334   0.00000  -0.00002   0.00003   0.00001   2.04335
    R7        2.53547  -0.00004  -0.00008   0.00003  -0.00005   2.53541
    R8        2.83684   0.00003  -0.00006   0.00009   0.00003   2.83687
    R9        2.04879  -0.00001   0.00001  -0.00005  -0.00004   2.04875
   R10        2.54009   0.00010   0.00010   0.00009   0.00019   2.54028
   R11        2.05590   0.00000   0.00005  -0.00003   0.00002   2.05593
   R12        2.07805   0.00001  -0.00001   0.00006   0.00006   2.07811
    A3        2.08439  -0.00040   0.00007  -0.00017  -0.00009   2.08429
    A4        2.10912   0.00001  -0.00003   0.00011   0.00008   2.10921
    A5        2.13898   0.00002  -0.00002  -0.00001  -0.00002   2.13895
    A6        2.12339  -0.00001   0.00001  -0.00007  -0.00006   2.12333
    A7        2.06206  -0.00033   0.00006   0.00003   0.00009   2.06216
    A8        2.08237  -0.00019   0.00018   0.00001   0.00019   2.08256
    A9        2.16570   0.00003   0.00005   0.00011   0.00017   2.16587
   A10        2.16188  -0.00014  -0.00005   0.00009   0.00004   2.16192
   A11        1.95828   0.00001  -0.00013   0.00003  -0.00010   1.95818
   A12        1.94072   0.00000  -0.00009   0.00004  -0.00005   1.94067
    D4       -3.06549  -0.00004  -0.00084  -0.00030  -0.00114  -3.06663
    D5        3.06365   0.00010   0.00088   0.00045   0.00133   3.06498
    D6        3.04731   0.00013  -0.00034  -0.00050  -0.00084   3.04647
    D7        3.01450   0.00019   0.00061   0.00063   0.00123   3.01573
    D8        3.13130   0.00002  -0.00030  -0.00068  -0.00098   3.13032
    D9       -2.97141   0.00008  -0.00069  -0.00020  -0.00088  -2.97230
   D10        3.05207   0.00007   0.00031  -0.00000   0.00031   3.05238
   D11        2.56568  -0.00000  -0.00103   0.00021  -0.00082   2.56486
   D12        2.11232  -0.00005  -0.00035  -0.00009  -0.00044   2.11188
         Item               Value     Threshold  Converged?
 Maximum Force            0.000395     0.000450     YES
 RMS     Force            0.000119     0.000300     YES
 Maximum Displacement     0.001334     0.001800     YES
 RMS     Displacement     0.000522     0.001200     YES
 Predicted change in Energy=-1.135958D-07
 Optimization completed.
    -- Stationary point found.
                       ----------------------------
                       !   Optimized Parameters   !
                       ! (Angstroms and Degrees)  !
 ----------------------                            ----------------------
 !      Name          Value   Derivative information (Atomic Units)     !
 ------------------------------------------------------------------------
 !       R2          1.3351   -DE/DX =   -0.0001                        !
 !       R3          1.4565   -DE/DX =   -0.0001                        !
 !       R4          1.083    -DE/DX =    0.0                           !
 !       R5          1.082    -DE/DX =    0.0                           !
 !       R6          1.0813   -DE/DX =    0.0                           !
 !       R7          1.3417   -DE/DX =    0.0                           !
 !       R8          1.5012   -DE/DX =    0.0                           !
 !       R9          1.0842   -DE/DX =    0.0                           !
 !       R10         1.3442   -DE/DX =    0.0001                        !
 !       R11         1.0879   -DE/DX =    0.0                           !
 !       R12         1.0997   -DE/DX =    0.0                           !
 !       A3        119.4265   -DE/DX =   -0.0004                        !
 !       A4        120.8439   -DE/DX =    0.0                           !
 !       A5        122.5543   -DE/DX =    0.0                           !
 !       A6        121.6615   -DE/DX =    0.0                           !
 !       A7        118.1476   -DE/DX =   -0.0003                        !
 !       A8        119.3107   -DE/DX =   -0.0002                        !
 !       A9        124.0853   -DE/DX =    0.0                           !
 !       A10       123.8669   -DE/DX =   -0.0001                        !
 !       A11       112.2014   -DE/DX =    0.0                           !
 !       A12       111.195    -DE/DX =    0.0                           !
 !       D4       -175.6394   -DE/DX =    0.0                           !
 !       D5        175.5343   -DE/DX =    0.0001                        !
 !       D6        174.5978   -DE/DX =    0.0001                        !
 !       D7        172.7181   -DE/DX =    0.0002                        !
 !       D8        179.4105   -DE/DX =    0.0                           !
 !       D9       -170.2493   -DE/DX =    0.0001                        !
 !       D10       174.8706   -DE/DX =    0.0001                        !
 !       D11       147.0026   -DE/DX =    0.0                           !
 !       D12       121.0273   -DE/DX =    0.0                           !
 ------------------------------------------------------------------------
 GradGradGradGradGradGradGradGradGradGradGradGradGradGradGradGradGradGrad

 ---------------------------------------------------------------------------------------------------
                            Z-MATRIX (ANGSTROMS AND DEGREES)
   CD    Cent   Atom    N1       Length/X        N2       Alpha/Y        N3        Beta/Z          J
 ---------------------------------------------------------------------------------------------------
      1      1  C 
      2      2  C        1   1.335106(     1)
      3      3  C        1   1.456487(     2)      2  119.426(    12)
      4      4  H        1   1.083008(     3)      2  120.844(    13)      3 -175.639(    22)      0
      5      5  H        2   1.082020(     4)      1  122.554(    14)      3  175.534(    23)      0
      6      6  H        3   1.081292(     5)      1  121.662(    15)      2  174.598(    24)      0
      7      7  C        3   1.341712(     6)      1  118.148(    16)      6  172.718(    25)      0
      8      8  C        2   1.501190(     7)      1  119.311(    17)      5  179.411(    26)      0
      9      9  H        7   1.084174(     8)      3  124.085(    18)      1 -170.249(    27)      0
     10     10  O        7   1.344160(     9)      3  123.867(    19)      9  174.871(    28)      0
     11     11  H        8   1.087938(    10)      2  112.201(    20)      1  147.003(    29)      0
     12     12  H        8   1.099656(    11)      2  111.195(    21)     11  121.027(    30)      0
 ---------------------------------------------------------------------------------------------------
                         Z-Matrix orientation:                         
 ---------------------------------------------------------------------
 Center     Atomic      Atomic             Coordinates (Angstroms)
 Number     Number       Type             X           Y           Z
 ---------------------------------------------------------------------
      1          6           0        0.000000    0.000000    0.000000
      2          6           0        0.000000    0.000000    1.335106
      3          6           0        1.268581    0.000000   -0.715581
      4          1           0       -0.927143    0.070699   -0.555259
      5          1           0       -0.909246    0.071012    1.917340
      6          1           0        1.312759   -0.086648   -1.792490
      7          6           0        2.386916    0.259766   -0.021290
      8          6           0        1.303912   -0.115344    2.070007
      9          1           0        3.356474    0.434097   -0.474058
     10          8           0        2.418152    0.432293    1.311385
     11          1           0        1.297357    0.435944    3.007902
     12          1           0        1.541761   -1.165050    2.295372
 ---------------------------------------------------------------------
                    Distance matrix (angstroms):
                    1          2          3          4          5
     1  C    0.000000
     2  C    1.335106   0.000000
     3  C    1.456487   2.411351   0.000000
     4  H    1.083008   2.106673   2.202704   0.000000
     5  H    2.123196   1.082020   3.417637   2.472663   0.000000
     6  H    2.223480   3.393036   1.081292   2.563720   4.327239
     7  C    2.401103   2.757654   1.341712   3.362121   3.828655
     8  C    2.449167   1.501190   2.788199   3.450252   2.226231
     9  H    3.417468   3.837633   2.146176   4.299771   4.903772
    10  O    2.784613   2.456603   2.370018   3.847871   3.401364
    11  H    3.304642   2.161349   3.749027   4.216387   2.488292
    12  H    3.000516   2.157887   3.240032   3.968458   2.770955
                    6          7          8          9         10
     6  H    0.000000
     7  C    2.100229   0.000000
     8  C    3.862613   2.384770   0.000000
     9  H    2.487209   1.084174   3.314689   0.000000
    10  O    3.335451   1.344160   1.454972   2.016992   0.000000
    11  H    4.828778   3.224001   1.087938   4.045245   2.033314
    12  H    4.233911   2.848036   1.099656   3.676981   2.070699
                   11         12
    11  H    0.000000
    12  H    1.769354   0.000000
 Symmetry turned off by external request.
 Stoichiometry    C5H6O
 Framework group  C1[X(C5H6O)]
 Deg. of freedom    30
 Full point group                 C1      NOp   1
 Rotational constants (GHZ):           5.5495523           5.3696131           2.8283294

 **********************************************************************

            Population analysis using the SCF density.

 **********************************************************************

 Alpha  occ. eigenvalues --  -19.15939 -10.23767 -10.22208 -10.17448 -10.17413
 Alpha  occ. eigenvalues --  -10.16759  -1.06876  -0.81224  -0.77362  -0.66402
 Alpha  occ. eigenvalues --   -0.62640  -0.53428  -0.50361  -0.48690  -0.46056
 Alpha  occ. eigenvalues --   -0.43702  -0.40457  -0.37840  -0.35880  -0.32822
 Alpha  occ. eigenvalues --   -0.30196  -0.20809
 Alpha virt. eigenvalues --   -0.03232   0.02996   0.05650   0.06593   0.07774
 Alpha virt. eigenvalues --    0.09331   0.10458   0.12084   0.14532   0.16474
 Alpha virt. eigenvalues --    0.17389   0.19838   0.20438   0.21837   0.23838
 Alpha virt. eigenvalues --    0.24383   0.25787   0.27029   0.28238   0.30485
 Alpha virt. eigenvalues --    0.30962   0.33796   0.34842   0.36517   0.36738
 Alpha virt. eigenvalues --    0.38431   0.39091   0.40266   0.42407   0.43283
 Alpha virt. eigenvalues --    0.44081   0.46053   0.46714   0.50123   0.51817
 Alpha virt. eigenvalues --    0.53279   0.55777   0.58780   0.59925   0.63268
 Alpha virt. eigenvalues --    0.65530   0.66350   0.69091   0.72604   0.73190
 Alpha virt. eigenvalues --    0.77615   0.80565   0.84721   0.85859   0.88729
 Alpha virt. eigenvalues --    0.91588   0.93433   0.95415   0.97646   0.99222
 Alpha virt. eigenvalues --    1.05995   1.07588   1.09179   1.11279   1.12789
 Alpha virt. eigenvalues --    1.15821   1.18630   1.19178   1.24260   1.26473
 Alpha virt. eigenvalues --    1.29707   1.33176   1.36298   1.40347   1.43150
 Alpha virt. eigenvalues --    1.44900   1.45587   1.49366   1.51467   1.53201
 Alpha virt. eigenvalues --    1.56302   1.60557   1.62503   1.65657   1.68222
 Alpha virt. eigenvalues --    1.70489   1.72471   1.75095   1.76976   1.79611
 Alpha virt. eigenvalues --    1.84990   1.87714   1.90603   1.91878   1.97458
 Alpha virt. eigenvalues --    2.00348   2.01316   2.07049   2.10571   2.12296
 Alpha virt. eigenvalues --    2.14690   2.18839   2.21296   2.22607   2.27218
 Alpha virt. eigenvalues --    2.28397   2.36731   2.39614   2.45294   2.45963
 Alpha virt. eigenvalues --    2.50978   2.52394   2.52916   2.58121   2.60076
 Alpha virt. eigenvalues --    2.60875   2.62129   2.65869   2.68206   2.71140
 Alpha virt. eigenvalues --    2.71425   2.74604   2.75993   2.79809   2.80398
 Alpha virt. eigenvalues --    2.82625   2.84189   2.87244   2.89002   2.91448
 Alpha virt. eigenvalues --    2.94521   2.98946   3.01847   3.02902   3.07783
 Alpha virt. eigenvalues --    3.08691   3.10992   3.13909   3.14975   3.16170
 Alpha virt. eigenvalues --    3.19074   3.19978   3.22165   3.23749   3.26272
 Alpha virt. eigenvalues --    3.28002   3.29852   3.32985   3.36076   3.36900
 Alpha virt. eigenvalues --    3.40282   3.42265   3.44866   3.45784   3.48344
 Alpha virt. eigenvalues --    3.54820   3.58173   3.62513   3.69016   3.69536
 Alpha virt. eigenvalues --    3.79025   3.84156   3.86309   3.91079   3.93852
 Alpha virt. eigenvalues --    3.97008   4.02757   4.04887   4.11633   4.18656
 Alpha virt. eigenvalues --    4.20803   4.25413   4.27752   4.36710   4.40052
 Alpha virt. eigenvalues --    4.45765   4.51202   4.59786   4.62972   4.66080
 Alpha virt. eigenvalues --    4.67335   4.80525   4.85343   4.92117   4.94586
 Alpha virt. eigenvalues --    5.12161   5.18587   5.35556   5.45240   5.74593
 Alpha virt. eigenvalues --    5.86232   5.91938   6.24020   6.34468   6.64883
 Alpha virt. eigenvalues --    6.77055   6.87203   7.15049   7.26464  22.07266
 Alpha virt. eigenvalues --   22.31847  22.42845  22.74989  22.93339  44.05540
          Condensed to atoms (all electrons):
               1          2          3          4          5          6
     1  C    4.899218   0.654375   0.323747   0.411531  -0.032895  -0.052556
     2  C    0.654375   4.990102  -0.063218  -0.018494   0.402816   0.005549
     3  C    0.323747  -0.063218   5.214735  -0.062087   0.004121   0.396080
     4  H    0.411531  -0.018494  -0.062087   0.564284  -0.007291  -0.005603
     5  H   -0.032895   0.402816   0.004121  -0.007291   0.494580  -0.000245
     6  H   -0.052556   0.005549   0.396080  -0.005603  -0.000245   0.645069
     7  C   -0.043568  -0.024287   0.547096   0.004087   0.002432  -0.043373
     8  C   -0.041974   0.354790  -0.036506   0.006187  -0.026835  -0.000299
     9  H    0.009672  -0.002522  -0.106815  -0.000376   0.000156  -0.006461
    10  O   -0.013526  -0.026930  -0.069979  -0.001004   0.002880   0.006476
    11  H    0.000819  -0.032844   0.006324  -0.000261  -0.004608   0.000149
    12  H   -0.004825  -0.073941  -0.007125  -0.000314   0.005089  -0.000339
               7          8          9         10         11         12
     1  C   -0.043568  -0.041974   0.009672  -0.013526   0.000819  -0.004825
     2  C   -0.024287   0.354790  -0.002522  -0.026930  -0.032844  -0.073941
     3  C    0.547096  -0.036506  -0.106815  -0.069979   0.006324  -0.007125
     4  H    0.004087   0.006187  -0.000376  -0.001004  -0.000261  -0.000314
     5  H    0.002432  -0.026835   0.000156   0.002880  -0.004608   0.005089
     6  H   -0.043373  -0.000299  -0.006461   0.006476   0.000149  -0.000339
     7  C    4.754888  -0.049570   0.444158   0.350878  -0.004233   0.033118
     8  C   -0.049570   4.695880   0.006359   0.264328   0.425977   0.382394
     9  H    0.444158   0.006359   0.624675  -0.044410  -0.000667   0.001889
    10  O    0.350878   0.264328  -0.044410   7.884737  -0.027964  -0.064255
    11  H   -0.004233   0.425977  -0.000667  -0.027964   0.528884  -0.046975
    12  H    0.033118   0.382394   0.001889  -0.064255  -0.046975   0.694340
 Mulliken charges:
               1
     1  C   -0.110019
     2  C   -0.165396
     3  C   -0.146374
     4  H    0.109342
     5  H    0.159799
     6  H    0.055554
     7  C    0.028372
     8  C    0.019268
     9  H    0.074340
    10  O   -0.261232
    11  H    0.155399
    12  H    0.080946
 Sum of Mulliken charges =  -0.00000
 Mulliken charges with hydrogens summed into heavy atoms:
               1
     1  C   -0.000677
     2  C   -0.005597
     3  C   -0.090819
     7  C    0.102713
     8  C    0.255613
    10  O   -0.261232
 Electronic spatial extent (au):  <R**2>=            787.0102
 Charge=             -0.0000 electrons
 Dipole moment (field-independent basis, Debye):
    X=             -1.3498    Y=             -0.0600    Z=              1.6605  Tot=              2.1407
 Quadrupole moment (field-independent basis, Debye-Ang):
   XX=            -37.8329   YY=            -38.6070   ZZ=            -29.8057
   XY=             -0.5363   XZ=             -0.9524   YZ=             -0.6339
 Traceless Quadrupole moment (field-independent basis, Debye-Ang):
   XX=             -2.4177   YY=             -3.1918   ZZ=              5.6095
   XY=             -0.5363   XZ=             -0.9524   YZ=             -0.6339
 Octapole moment (field-independent basis, Debye-Ang**2):
  XXX=           -136.3272  YYY=             -8.7842  ZZZ=            -52.1520  XYY=            -45.3829
  XXY=             -2.8352  XXZ=            -29.8208  XZZ=            -42.5133  YZZ=             -2.8040
  YYZ=            -22.2909  XYZ=             -2.6622
 Hexadecapole moment (field-independent basis, Debye-Ang**3):
 XXXX=           -598.0154 YYYY=            -60.1998 ZZZZ=           -331.8570 XXXY=            -21.5886
 XXXZ=           -111.0529 YYYX=            -24.5176 YYYZ=             -3.1462 ZZZX=            -69.6970
 ZZZY=              3.1497 XXYY=           -114.5091 XXZZ=           -167.7296 YYZZ=            -74.3481
 XXYZ=             -8.1915 YYXZ=            -24.3310 ZZXY=            -10.3593
 N-N= 2.231173944625D+02 E-N=-1.074093596500D+03  KE= 2.680737140202D+02
 1\1\GINC-BHC0070\FOpt\RB3LYP\def2TZVP\C5H6O1\DHANAWAY\18-Mar-2022\1\\#
  Opt=(Z-matrix, MaxStep=10) B3LYP/Def2TZVP geom=allcheckpoint guess=re
 ad Field=read NoSymm\\int_zmat_initalOpt\\0,1\C\C,1,R2\C,1,R3,2,A3\H,1
 ,R4,2,A4,3,D4,0\H,2,R5,1,A5,3,D5,0\H,3,R6,1,A6,2,D6,0\C,3,R7,1,A7,6,D7
 ,0\C,2,R8,1,A8,5,D8,0\H,7,R9,3,A9,1,D9,0\O,7,R10,3,A10,9,D10,0\H,8,R11
 ,2,A11,1,D11,0\H,8,R12,2,A12,11,D12,0\\R2=1.33510551\R3=1.45648661\R4=
 1.08300769\R5=1.08202012\R6=1.08129156\R7=1.34171198\R8=1.50118966\R9=
 1.08417367\R10=1.34416006\R11=1.08793765\R12=1.09965622\A3=119.4264837
 8\A4=120.84390552\A5=122.55432912\A6=121.66154068\A7=118.14760938\A8=1
 19.31074744\A9=124.08531309\A10=123.86685801\A11=112.20135737\A12=111.
 1949545\D4=-175.63938598\D5=175.53426177\D6=174.59782269\D7=172.718060
 26\D8=179.4105297\D9=-170.24931337\D10=174.87059612\D11=147.00260231\D
 12=121.0272662\\Version=ES64L-G16RevA.03\HF=-269.4265632\RMSD=4.560e-0
 9\RMSF=2.349e-04\Dipole=-0.5310644,-0.0236174,0.6532773\Quadrupole=-1.
 797495,-2.3730245,4.1705195,-0.3987463,-0.7080662,-0.4712525\PG=C01 [X
 (C5H6O1)]\\@


 The most important thing in communication is to hear what isn't being said.
 -- Peter F. Drucker
 Job cpu time:       0 days  0 hours 29 minutes  2.6 seconds.
 Elapsed time:       0 days  0 hours  3 minutes  9.6 seconds.
 File lengths (MBytes):  RWF=     24 Int=      0 D2E=      0 Chk=     32 Scr=      1
 Normal termination of Gaussian 16 at Fri Mar 18 15:03:30 2022.
