 Entering Gaussian System, Link 0=g16
 Input=ts_initalOpt_zmat_sp.gjf
 Output=ts_initalOpt_zmat_sp.out
 Initial command:
 /software/gaussian/g16-a03/l1.exe "/local_scratch/9896077/Gau-16284.inp" -scrdir="/local_scratch/9896077/"
 Entering Link 1 = /software/gaussian/g16-a03/l1.exe PID=     16285.
  
 Copyright (c) 1988,1990,1992,1993,1995,1998,2003,2009,2016,
            Gaussian, Inc.  All Rights Reserved.
  
 This is part of the Gaussian(R) 16 program.  It is based on
 the Gaussian(R) 09 system (copyright 2009, Gaussian, Inc.),
 the Gaussian(R) 03 system (copyright 2003, Gaussian, Inc.),
 the Gaussian(R) 98 system (copyright 1998, Gaussian, Inc.),
 the Gaussian(R) 94 system (copyright 1995, Gaussian, Inc.),
 the Gaussian 92(TM) system (copyright 1992, Gaussian, Inc.),
 the Gaussian 90(TM) system (copyright 1990, Gaussian, Inc.),
 the Gaussian 88(TM) system (copyright 1988, Gaussian, Inc.),
 the Gaussian 86(TM) system (copyright 1986, Carnegie Mellon
 University), and the Gaussian 82(TM) system (copyright 1983,
 Carnegie Mellon University). Gaussian is a federally registered
 trademark of Gaussian, Inc.
  
 This software contains proprietary and confidential information,
 including trade secrets, belonging to Gaussian, Inc.
  
 This software is provided under written license and may be
 used, copied, transmitted, or stored only in accord with that
 written license.
  
 The following legend is applicable only to US Government
 contracts under FAR:
  
                    RESTRICTED RIGHTS LEGEND
  
 Use, reproduction and disclosure by the US Government is
 subject to restrictions as set forth in subparagraphs (a)
 and (c) of the Commercial Computer Software - Restricted
 Rights clause in FAR 52.227-19.
  
 Gaussian, Inc.
 340 Quinnipiac St., Bldg. 40, Wallingford CT 06492
  
  
 ---------------------------------------------------------------
 Warning -- This program may not be used in any manner that
 competes with the business of Gaussian, Inc. or will provide
 assistance to any competitor of Gaussian, Inc.  The licensee
 of this program is prohibited from giving any competitor of
 Gaussian, Inc. access to this program.  By using this program,
 the user acknowledges that Gaussian, Inc. is engaged in the
 business of creating and licensing software in the field of
 computational chemistry and represents and warrants to the
 licensee that it is not a competitor of Gaussian, Inc. and that
 it will not use this program in any manner prohibited above.
 ---------------------------------------------------------------
  

 Cite this work as:
 Gaussian 16, Revision A.03,
 M. J. Frisch, G. W. Trucks, H. B. Schlegel, G. E. Scuseria, 
 M. A. Robb, J. R. Cheeseman, G. Scalmani, V. Barone, 
 G. A. Petersson, H. Nakatsuji, X. Li, M. Caricato, A. V. Marenich, 
 J. Bloino, B. G. Janesko, R. Gomperts, B. Mennucci, H. P. Hratchian, 
 J. V. Ortiz, A. F. Izmaylov, J. L. Sonnenberg, D. Williams-Young, 
 F. Ding, F. Lipparini, F. Egidi, J. Goings, B. Peng, A. Petrone, 
 T. Henderson, D. Ranasinghe, V. G. Zakrzewski, J. Gao, N. Rega, 
 G. Zheng, W. Liang, M. Hada, M. Ehara, K. Toyota, R. Fukuda, 
 J. Hasegawa, M. Ishida, T. Nakajima, Y. Honda, O. Kitao, H. Nakai, 
 T. Vreven, K. Throssell, J. A. Montgomery, Jr., J. E. Peralta, 
 F. Ogliaro, M. J. Bearpark, J. J. Heyd, E. N. Brothers, K. N. Kudin, 
 V. N. Staroverov, T. A. Keith, R. Kobayashi, J. Normand, 
 K. Raghavachari, A. P. Rendell, J. C. Burant, S. S. Iyengar, 
 J. Tomasi, M. Cossi, J. M. Millam, M. Klene, C. Adamo, R. Cammi, 
 J. W. Ochterski, R. L. Martin, K. Morokuma, O. Farkas, 
 J. B. Foresman, and D. J. Fox, Gaussian, Inc., Wallingford CT, 2016.
 
 ******************************************
 Gaussian 16:  ES64L-G16RevA.03 25-Dec-2016
                18-Mar-2022 
 ******************************************
 %nprocshared=12
 Will use up to   12 processors via shared memory.
 %chk=checkpoint.chk
 %mem=12GB
 --------------------------
 # sp B3LYP/Def2TZVP NoSymm
 --------------------------
 1/38=1,172=1/1;
 2/12=2,15=1,17=6,18=5,40=1/2;
 3/5=44,7=101,11=2,25=1,30=1,74=-5/1,2,3;
 4//1;
 5/5=2,38=5/2;
 6/7=2,8=2,9=2,10=2,28=1/1;
 99/5=1,9=1/99;
 ---------------------------
 ts_initalOpt_zmat_AlignedSp
 ---------------------------
 Symbolic Z-matrix:
 Charge =  0 Multiplicity = 1
 C
 C                    1    R2
 C                    1    R3       2    A3
 H                    1    R4       2    A4       3    D4       0
 H                    2    R5       1    A5       3    D5       0
 H                    3    R6       1    A6       2    D6       0
 C                    3    R7       1    A7       6    D7       0
 C                    2    R8       1    A8       5    D8       0
 H                    7    R9       3    A9       1    D9       0
 O                    7    R10      3    A10      9    D10      0
 H                    8    R11      2    A11      1    D11      0
 H                    8    R12      2    A12      11   D12      0
       Variables:
  R2                    1.38897                  
  R3                    1.39888                  
  R4                    1.08604                  
  R5                    1.08301                  
  R6                    1.08157                  
  R7                    1.41318                  
  R8                    1.39155                  
  R9                    1.09689                  
  R10                   1.25677                  
  R11                   1.08254                  
  R12                   1.08113                  
  A3                  120.8886                   
  A4                  120.00861                  
  A5                  120.74978                  
  A6                  119.66859                  
  A7                  118.97527                  
  A8                  117.32015                  
  A9                  115.63488                  
  A10                 128.07093                  
  A11                 120.84504                  
  A12                 118.50256                  
  D4                 -168.74001                  
  D5                  148.50587                  
  D6                 -176.82555                  
  D7                  154.18448                  
  D8                 -169.69548                  
  D9                 -142.96181                  
  D10                 171.43426                  
  D11                 163.18628                  
  D12                 152.61335                  
 
                          Input orientation:                          
 ---------------------------------------------------------------------
 Center     Atomic      Atomic             Coordinates (Angstroms)
 Number     Number       Type             X           Y           Z
 ---------------------------------------------------------------------
      1          6           0        0.000000    0.000000    0.000000
      2          6           0        0.000000    0.000000    1.388974
      3          6           0        1.200475    0.000000   -0.718145
      4          1           0       -0.922358    0.183636   -0.543164
      5          1           0       -0.793640    0.486231    1.942704
      6          1           0        1.178187    0.052041   -1.798228
      7          6           0        2.373730    0.475918   -0.090412
      8          6           0        1.152740   -0.446878    2.027642
      9          1           0        3.061441    1.038291   -0.733804
     10          8           0        2.657027    0.463768    1.133951
     11          1           0        1.328975   -0.226858    3.072832
     12          1           0        1.632170   -1.343140    1.659276
 ---------------------------------------------------------------------
                    Distance matrix (angstroms):
                    1          2          3          4          5
     1  C    0.000000
     2  C    1.388974   0.000000
     3  C    1.398883   2.425096   0.000000
     4  H    1.086045   2.148866   2.137934   0.000000
     5  H    2.154155   1.083006   3.360511   2.507523   0.000000
     6  H    2.150455   3.398395   1.081565   2.450468   4.251022
     7  C    2.422656   2.837195   1.413178   3.339851   3.763761
     8  C    2.374835   1.391548   2.782323   3.363424   2.160162
     9  H    3.314956   3.867383   2.131076   4.078901   4.725474
    10  O    2.925871   2.709227   2.401434   3.962725   3.544247
    11  H    3.355583   2.157085   3.799932   4.279303   2.508223
    12  H    2.687229   2.130978   2.764511   3.702351   3.051472
                    6          7          8          9         10
     6  H    0.000000
     7  C    2.127352   0.000000
     8  C    3.858347   2.613144   0.000000
     9  H    2.377463   1.096888   3.670756   0.000000
    10  O    3.309707   1.256770   1.972521   1.995529   0.000000
    11  H    4.881367   3.404632   1.082539   4.369498   2.449479
    12  H    3.755924   2.630645   1.081125   3.666178   2.142713
                   11         12
    11  H    0.000000
    12  H    1.826514   0.000000
 Symmetry turned off by external request.
 Stoichiometry    C5H6O
 Framework group  C1[X(C5H6O)]
 Deg. of freedom    30
 Full point group                 C1      NOp   1
 Rotational constants (GHZ):           5.5367278           4.6725769           2.7070362
 Standard basis: def2TZVP (5D, 7F)
   222 basis functions,   354 primitive gaussians,   252 cartesian basis functions
    22 alpha electrons       22 beta electrons
       nuclear repulsion energy       217.8751587660 Hartrees.
 NAtoms=   12 NActive=   12 NUniq=   12 SFac= 1.00D+00 NAtFMM=   60 NAOKFM=F Big=F
 Integral buffers will be    131072 words long.
 Raffenetti 2 integral format.
 Two-electron integral symmetry is turned off.
 One-electron integrals computed using PRISM.
   1 Symmetry operations used in ECPInt.
 ECPInt:  NShTT=    4095 NPrTT=   12396 LenC2=    4075 LenP2D=   10363.
 LDataN:  DoStor=T MaxTD1= 6 Len=  172
 NBasis=   222 RedAO= T EigKep=  1.17D-04  NBF=   222
 NBsUse=   222 1.00D-06 EigRej= -1.00D+00 NBFU=   222
 ExpMin= 9.52D-02 ExpMax= 2.70D+04 ExpMxC= 9.22D+02 IAcc=3 IRadAn=         5 AccDes= 0.00D+00
 Harris functional with IExCor=  402 and IRadAn=       5 diagonalized for initial guess.
 HarFok:  IExCor=  402 AccDes= 0.00D+00 IRadAn=         5 IDoV= 1 UseB2=F ITyADJ=14
 ICtDFT=  3500011 ScaDFX=  1.000000  1.000000  1.000000  1.000000
 FoFCou: FMM=F IPFlag=           0 FMFlag=      100000 FMFlg1=           0
         NFxFlg=           0 DoJE=T BraDBF=F KetDBF=T FulRan=T
         wScrn=  0.000000 ICntrl=       500 IOpCl=  0 I1Cent=   200000004 NGrid=           0
         NMat0=    1 NMatS0=      1 NMatT0=    0 NMatD0=    1 NMtDS0=    0 NMtDT0=    0
 Symmetry not used in FoFCou.
 Keep R1 ints in memory in canonical form, NReq=319363861.
 Requested convergence on RMS density matrix=1.00D-08 within 128 cycles.
 Requested convergence on MAX density matrix=1.00D-06.
 Requested convergence on             energy=1.00D-06.
 No special actions if energy rises.
 Integral accuracy reduced to 1.0D-05 until final iterations.
 Initial convergence to 1.0D-05 achieved.  Increase integral accuracy.
 SCF Done:  E(RB3LYP) =  -269.391778042     A.U. after   14 cycles
            NFock= 14  Conv=0.93D-08     -V/T= 2.0050

 **********************************************************************

            Population analysis using the SCF density.

 **********************************************************************

 Alpha  occ. eigenvalues --  -19.14210 -10.25216 -10.22025 -10.19713 -10.17183
 Alpha  occ. eigenvalues --  -10.16810  -1.04687  -0.82889  -0.75669  -0.66725
 Alpha  occ. eigenvalues --   -0.60755  -0.52726  -0.50981  -0.47029  -0.45940
 Alpha  occ. eigenvalues --   -0.44222  -0.39713  -0.38200  -0.37609  -0.32592
 Alpha  occ. eigenvalues --   -0.28924  -0.21522
 Alpha virt. eigenvalues --   -0.06867   0.00076   0.04601   0.05564   0.07414
 Alpha virt. eigenvalues --    0.07938   0.09478   0.11463   0.12253   0.15880
 Alpha virt. eigenvalues --    0.18106   0.19678   0.20442   0.21643   0.22018
 Alpha virt. eigenvalues --    0.22416   0.24903   0.27444   0.28037   0.29240
 Alpha virt. eigenvalues --    0.30312   0.33328   0.33800   0.36212   0.37826
 Alpha virt. eigenvalues --    0.39998   0.40608   0.42233   0.42877   0.43685
 Alpha virt. eigenvalues --    0.44350   0.44993   0.45669   0.48077   0.49905
 Alpha virt. eigenvalues --    0.52386   0.53838   0.55010   0.57000   0.58468
 Alpha virt. eigenvalues --    0.62261   0.65943   0.68763   0.69582   0.75814
 Alpha virt. eigenvalues --    0.80091   0.82253   0.86860   0.87176   0.89626
 Alpha virt. eigenvalues --    0.92851   0.94054   0.96193   0.97045   0.98037
 Alpha virt. eigenvalues --    1.01131   1.03830   1.07150   1.10757   1.12118
 Alpha virt. eigenvalues --    1.14832   1.17277   1.19506   1.23336   1.23654
 Alpha virt. eigenvalues --    1.28921   1.31306   1.34331   1.39141   1.39901
 Alpha virt. eigenvalues --    1.42831   1.43852   1.46411   1.47808   1.51386
 Alpha virt. eigenvalues --    1.53616   1.57680   1.60098   1.63226   1.65014
 Alpha virt. eigenvalues --    1.66868   1.68601   1.73920   1.77898   1.78544
 Alpha virt. eigenvalues --    1.81026   1.82849   1.85756   1.88175   1.91921
 Alpha virt. eigenvalues --    1.94709   1.97158   2.05335   2.06966   2.10342
 Alpha virt. eigenvalues --    2.15032   2.15854   2.19712   2.20677   2.26225
 Alpha virt. eigenvalues --    2.28133   2.32379   2.37960   2.40881   2.44423
 Alpha virt. eigenvalues --    2.49711   2.52139   2.53088   2.54275   2.56104
 Alpha virt. eigenvalues --    2.59211   2.61515   2.63099   2.65608   2.67862
 Alpha virt. eigenvalues --    2.70423   2.71009   2.76914   2.78183   2.79890
 Alpha virt. eigenvalues --    2.81840   2.83784   2.84265   2.86530   2.89612
 Alpha virt. eigenvalues --    2.91609   2.94743   2.96789   2.98119   3.01829
 Alpha virt. eigenvalues --    3.02894   3.04543   3.06747   3.12109   3.13514
 Alpha virt. eigenvalues --    3.15128   3.17528   3.19728   3.22909   3.23772
 Alpha virt. eigenvalues --    3.24843   3.27756   3.28920   3.35357   3.36073
 Alpha virt. eigenvalues --    3.39310   3.41606   3.43697   3.45839   3.48481
 Alpha virt. eigenvalues --    3.49619   3.52429   3.58121   3.63133   3.63492
 Alpha virt. eigenvalues --    3.68305   3.85234   3.89937   3.91834   3.94204
 Alpha virt. eigenvalues --    3.97311   4.02391   4.03637   4.08592   4.11535
 Alpha virt. eigenvalues --    4.16162   4.17873   4.25899   4.30834   4.32447
 Alpha virt. eigenvalues --    4.38753   4.44055   4.47679   4.54372   4.64696
 Alpha virt. eigenvalues --    4.67004   4.72652   4.81307   4.85645   4.86767
 Alpha virt. eigenvalues --    5.05079   5.14633   5.25059   5.28940   5.52079
 Alpha virt. eigenvalues --    5.61913   5.99667   6.22003   6.34417   6.50425
 Alpha virt. eigenvalues --    6.72620   6.78517   6.97447   7.08360  22.05936
 Alpha virt. eigenvalues --   22.33790  22.51072  22.70011  22.87317  43.80884
          Condensed to atoms (all electrons):
               1          2          3          4          5          6
     1  C    4.898915   0.483907   0.472570   0.413464  -0.052914  -0.054507
     2  C    0.483907   5.006687  -0.037003  -0.042094   0.410930   0.009803
     3  C    0.472570  -0.037003   5.245383  -0.049020   0.006301   0.408839
     4  H    0.413464  -0.042094  -0.049020   0.564568  -0.004285  -0.007948
     5  H   -0.052914   0.410930   0.006301  -0.004285   0.565535  -0.000203
     6  H   -0.054507   0.009803   0.408839  -0.007948  -0.000203   0.573019
     7  C   -0.022168  -0.046714   0.413139   0.001844  -0.002404  -0.034902
     8  C   -0.090812   0.511721  -0.001923   0.010536  -0.033490  -0.000174
     9  H    0.003966  -0.005602  -0.107536  -0.000865  -0.000002  -0.000312
    10  O   -0.008918  -0.024657  -0.123773  -0.000968   0.000620   0.005749
    11  H    0.010134  -0.039263  -0.000420  -0.000262  -0.006861   0.000018
    12  H   -0.034027  -0.032127   0.031902   0.000174   0.006847   0.000014
               7          8          9         10         11         12
     1  C   -0.022168  -0.090812   0.003966  -0.008918   0.010134  -0.034027
     2  C   -0.046714   0.511721  -0.005602  -0.024657  -0.039263  -0.032127
     3  C    0.413139  -0.001923  -0.107536  -0.123773  -0.000420   0.031902
     4  H    0.001844   0.010536  -0.000865  -0.000968  -0.000262   0.000174
     5  H   -0.002404  -0.033490  -0.000002   0.000620  -0.006861   0.006847
     6  H   -0.034902  -0.000174  -0.000312   0.005749   0.000018   0.000014
     7  C    4.658804  -0.047495   0.421363   0.508322   0.001443  -0.012428
     8  C   -0.047495   4.834262   0.003925   0.074515   0.398947   0.431797
     9  H    0.421363   0.003925   0.611073  -0.034968  -0.000014  -0.001731
    10  O    0.508322   0.074515  -0.034968   7.954909  -0.001816  -0.051546
    11  H    0.001443   0.398947  -0.000014  -0.001816   0.534285  -0.030538
    12  H   -0.012428   0.431797  -0.001731  -0.051546  -0.030538   0.560364
 Mulliken charges:
               1
     1  C   -0.019608
     2  C   -0.195587
     3  C   -0.258459
     4  H    0.114857
     5  H    0.109925
     6  H    0.100604
     7  C    0.161197
     8  C   -0.091809
     9  H    0.110702
    10  O   -0.297469
    11  H    0.134345
    12  H    0.131299
 Sum of Mulliken charges =  -0.00000
 Mulliken charges with hydrogens summed into heavy atoms:
               1
     1  C    0.095249
     2  C   -0.085661
     3  C   -0.157855
     7  C    0.271900
     8  C    0.173836
    10  O   -0.297469
 Electronic spatial extent (au):  <R**2>=            797.8911
 Charge=             -0.0000 electrons
 Dipole moment (field-independent basis, Debye):
    X=             -0.9390    Y=             -0.0201    Z=             -0.5110  Tot=              1.0692
 Quadrupole moment (field-independent basis, Debye-Ang):
   XX=            -38.6767   YY=            -37.5518   ZZ=            -32.6157
   XY=             -1.3738   XZ=             -2.9865   YZ=             -1.8066
 Traceless Quadrupole moment (field-independent basis, Debye-Ang):
   XX=             -2.3953   YY=             -1.2704   ZZ=              3.6657
   XY=             -1.3738   XZ=             -2.9865   YZ=             -1.8066
 Octapole moment (field-independent basis, Debye-Ang**2):
  XXX=           -141.0267  YYY=             -8.8165  ZZZ=            -57.0419  XYY=            -42.5939
  XXY=             -3.4371  XXZ=            -35.7017  XZZ=            -41.7112  YZZ=             -3.8225
  YYZ=            -22.6516  XYZ=             -7.0408
 Hexadecapole moment (field-independent basis, Debye-Ang**3):
 XXXX=           -639.6239 YYYY=            -75.9181 ZZZZ=           -327.8370 XXXY=            -31.9847
 XXXZ=           -117.3328 YYYX=            -31.4213 YYYZ=             10.5695 ZZZX=            -60.7722
 ZZZY=             11.6674 XXYY=           -111.5757 XXZZ=           -168.5115 YYZZ=            -78.2008
 XXYZ=            -11.2054 YYXZ=            -23.9309 ZZXY=            -17.5207
 N-N= 2.178751587660D+02 E-N=-1.063614414134D+03  KE= 2.680599422646D+02
 1\1\GINC-BHC0019\SP\RB3LYP\def2TZVP\C5H6O1\DHANAWAY\18-Mar-2022\0\\# s
 p B3LYP/Def2TZVP NoSymm\\ts_initalOpt_zmat_AlignedSp\\0,1\C\C,1,1.3889
 7396\C,1,1.39888274,2,120.88860272\H,1,1.08604499,2,120.0086075,3,-168
 .74001098,0\H,2,1.08300587,1,120.74978445,3,148.50586513,0\H,3,1.08156
 519,1,119.66859241,2,-176.82554659,0\C,3,1.41317811,1,118.97527023,6,1
 54.18448499,0\C,2,1.39154798,1,117.32014816,5,-169.69548039,0\H,7,1.09
 688771,3,115.63487628,1,-142.9618083,0\O,7,1.25677048,3,128.0709295,9,
 171.43425531,0\H,8,1.08253896,2,120.84503568,1,163.18628083,0\H,8,1.08
 112526,2,118.50256483,11,152.61335417,0\\Version=ES64L-G16RevA.03\HF=-
 269.391778\RMSD=9.291e-09\Dipole=-0.3694159,-0.0079275,-0.2010503\Quad
 rupole=-1.780839,-0.9445299,2.7253689,-1.0213658,-2.2203697,-1.3431749
 \PG=C01 [X(C5H6O1)]\\@


 ONE BIG VICE IN A MAN IS APT TO KEEP OUT MANY SMALLER ONES.

                           -- BRET HARTE
 Job cpu time:       0 days  0 hours  2 minutes 46.0 seconds.
 Elapsed time:       0 days  0 hours  0 minutes 20.8 seconds.
 File lengths (MBytes):  RWF=     25 Int=      0 D2E=      0 Chk=     32 Scr=      1
 Normal termination of Gaussian 16 at Fri Mar 18 14:05:39 2022.
