 Entering Gaussian System, Link 0=g16
 Input=ts_zmat_field_N50.gjf
 Output=ts_zmat_field_N50.out
 Initial command:
 /software/gaussian/g16-a03/l1.exe "/local_scratch/9898117/Gau-19543.inp" -scrdir="/local_scratch/9898117/"
 Entering Link 1 = /software/gaussian/g16-a03/l1.exe PID=     19544.
  
 Copyright (c) 1988,1990,1992,1993,1995,1998,2003,2009,2016,
            Gaussian, Inc.  All Rights Reserved.
  
 This is part of the Gaussian(R) 16 program.  It is based on
 the Gaussian(R) 09 system (copyright 2009, Gaussian, Inc.),
 the Gaussian(R) 03 system (copyright 2003, Gaussian, Inc.),
 the Gaussian(R) 98 system (copyright 1998, Gaussian, Inc.),
 the Gaussian(R) 94 system (copyright 1995, Gaussian, Inc.),
 the Gaussian 92(TM) system (copyright 1992, Gaussian, Inc.),
 the Gaussian 90(TM) system (copyright 1990, Gaussian, Inc.),
 the Gaussian 88(TM) system (copyright 1988, Gaussian, Inc.),
 the Gaussian 86(TM) system (copyright 1986, Carnegie Mellon
 University), and the Gaussian 82(TM) system (copyright 1983,
 Carnegie Mellon University). Gaussian is a federally registered
 trademark of Gaussian, Inc.
  
 This software contains proprietary and confidential information,
 including trade secrets, belonging to Gaussian, Inc.
  
 This software is provided under written license and may be
 used, copied, transmitted, or stored only in accord with that
 written license.
  
 The following legend is applicable only to US Government
 contracts under FAR:
  
                    RESTRICTED RIGHTS LEGEND
  
 Use, reproduction and disclosure by the US Government is
 subject to restrictions as set forth in subparagraphs (a)
 and (c) of the Commercial Computer Software - Restricted
 Rights clause in FAR 52.227-19.
  
 Gaussian, Inc.
 340 Quinnipiac St., Bldg. 40, Wallingford CT 06492
  
  
 ---------------------------------------------------------------
 Warning -- This program may not be used in any manner that
 competes with the business of Gaussian, Inc. or will provide
 assistance to any competitor of Gaussian, Inc.  The licensee
 of this program is prohibited from giving any competitor of
 Gaussian, Inc. access to this program.  By using this program,
 the user acknowledges that Gaussian, Inc. is engaged in the
 business of creating and licensing software in the field of
 computational chemistry and represents and warrants to the
 licensee that it is not a competitor of Gaussian, Inc. and that
 it will not use this program in any manner prohibited above.
 ---------------------------------------------------------------
  

 Cite this work as:
 Gaussian 16, Revision A.03,
 M. J. Frisch, G. W. Trucks, H. B. Schlegel, G. E. Scuseria, 
 M. A. Robb, J. R. Cheeseman, G. Scalmani, V. Barone, 
 G. A. Petersson, H. Nakatsuji, X. Li, M. Caricato, A. V. Marenich, 
 J. Bloino, B. G. Janesko, R. Gomperts, B. Mennucci, H. P. Hratchian, 
 J. V. Ortiz, A. F. Izmaylov, J. L. Sonnenberg, D. Williams-Young, 
 F. Ding, F. Lipparini, F. Egidi, J. Goings, B. Peng, A. Petrone, 
 T. Henderson, D. Ranasinghe, V. G. Zakrzewski, J. Gao, N. Rega, 
 G. Zheng, W. Liang, M. Hada, M. Ehara, K. Toyota, R. Fukuda, 
 J. Hasegawa, M. Ishida, T. Nakajima, Y. Honda, O. Kitao, H. Nakai, 
 T. Vreven, K. Throssell, J. A. Montgomery, Jr., J. E. Peralta, 
 F. Ogliaro, M. J. Bearpark, J. J. Heyd, E. N. Brothers, K. N. Kudin, 
 V. N. Staroverov, T. A. Keith, R. Kobayashi, J. Normand, 
 K. Raghavachari, A. P. Rendell, J. C. Burant, S. S. Iyengar, 
 J. Tomasi, M. Cossi, J. M. Millam, M. Klene, C. Adamo, R. Cammi, 
 J. W. Ochterski, R. L. Martin, K. Morokuma, O. Farkas, 
 J. B. Foresman, and D. J. Fox, Gaussian, Inc., Wallingford CT, 2016.
 
 ******************************************
 Gaussian 16:  ES64L-G16RevA.03 25-Dec-2016
                18-Mar-2022 
 ******************************************
 %nprocshared=12
 Will use up to   12 processors via shared memory.
 %chk=checkpoint.chk
 %mem=12GB
 ----------------------------------------------------------------------
 # Opt=(TS, CalcFC, noeigentest, Z-matrix, MaxStep=10) geom=allcheckpoi
 nt guess=read Field=read NoSymm B3LYP/Def2TZVP
 ----------------------------------------------------------------------
 1/5=1,8=10,10=4,11=1,18=40,26=3,29=7,38=1/1,3;
 2/12=2,15=1,29=3,40=1/2;
 3/5=44,7=101,11=2,14=-6,25=1,30=1,71=2,74=-5,116=-2,140=1/1,2,3;
 4/5=1/1;
 5/5=2,38=6/2;
 8/6=4,10=90,11=11/1;
 11/6=1,8=1,9=11,15=111,16=1,31=1/1,2,10;
 10/6=1,13=1,31=1/2;
 6/7=2,8=2,9=2,10=2,28=1/1;
 7/10=1,18=20,25=1,30=1/1,2,3,16;
 1/5=1,8=10,10=4,11=1,18=40,26=3/3(2);
 2/15=1,29=3/2;
 99//99;
 2/15=1,29=3/2;
 3/5=44,7=101,11=2,14=-2,25=1,30=1,71=1,74=-5/1,2,3;
 4/5=5,16=3,69=1/1;
 5/5=2,38=5/2;
 7/30=1/1,2,3,16;
 1/5=1,8=10,11=1,18=40,26=3/3(-5);
 2/15=1,29=3/2;
 6/7=2,8=2,9=2,10=2,19=2,28=1/1;
 99/9=1/99;
 Structure from the checkpoint file:  "checkpoint.chk"
 -----------------
 ts_zmat_initalOpt
 -----------------
 Charge =  0 Multiplicity = 1
 Z-Matrix found in chk file.
 C
 C,1,R2
 C,1,R3,2,A3
 H,1,R4,2,A4,3,D4,0
 H,2,R5,1,A5,3,D5,0
 H,3,R6,1,A6,2,D6,0
 C,3,R7,1,A7,6,D7,0
 C,2,R8,1,A8,5,D8,0
 H,7,R9,3,A9,1,D9,0
 O,7,R10,3,A10,9,D10,0
 H,8,R11,2,A11,1,D11,0
 H,8,R12,2,A12,11,D12,0
      Variables:
 R2=1.3871809
 R3=1.40057934
 R4=1.0856614
 R5=1.0828348
 R6=1.08140577
 R7=1.40990461
 R8=1.39241391
 R9=1.09695213
 R10=1.26003325
 R11=1.0826412
 R12=1.0812142
 A3=120.79742959
 A4=120.12090149
 A5=120.91611721
 A6=119.67461486
 A7=119.00575037
 A8=117.21946072
 A9=115.63708419
 A10=128.19528053
 A11=120.77920819
 A12=118.41886266
 D4=-169.14815493
 D5=149.67995844
 D6=-177.53198641
 D7=154.63121453
 D8=-170.5202162
 D9=-143.35788004
 D10=171.40367379
 D11=163.56069163
 D12=152.14944866
 Recover connectivity data from disk.

 GradGradGradGradGradGradGradGradGradGradGradGradGradGradGradGradGradGrad
 Berny optimization.
 Initialization pass.
                       ----------------------------
                       !    Initial Parameters    !
                       ! (Angstroms and Degrees)  !
 ----------------------                            ----------------------
 !      Name          Value   Derivative information (Atomic Units)     !
 ------------------------------------------------------------------------
 !       R2          1.3872   calculate D2E/DX2 analytically            !
 !       R3          1.4006   calculate D2E/DX2 analytically            !
 !       R4          1.0857   calculate D2E/DX2 analytically            !
 !       R5          1.0828   calculate D2E/DX2 analytically            !
 !       R6          1.0814   calculate D2E/DX2 analytically            !
 !       R7          1.4099   calculate D2E/DX2 analytically            !
 !       R8          1.3924   calculate D2E/DX2 analytically            !
 !       R9          1.097    calculate D2E/DX2 analytically            !
 !       R10         1.26     calculate D2E/DX2 analytically            !
 !       R11         1.0826   calculate D2E/DX2 analytically            !
 !       R12         1.0812   calculate D2E/DX2 analytically            !
 !       A3        120.7974   calculate D2E/DX2 analytically            !
 !       A4        120.1209   calculate D2E/DX2 analytically            !
 !       A5        120.9161   calculate D2E/DX2 analytically            !
 !       A6        119.6746   calculate D2E/DX2 analytically            !
 !       A7        119.0058   calculate D2E/DX2 analytically            !
 !       A8        117.2195   calculate D2E/DX2 analytically            !
 !       A9        115.6371   calculate D2E/DX2 analytically            !
 !       A10       128.1953   calculate D2E/DX2 analytically            !
 !       A11       120.7792   calculate D2E/DX2 analytically            !
 !       A12       118.4189   calculate D2E/DX2 analytically            !
 !       D4       -169.1482   calculate D2E/DX2 analytically            !
 !       D5        149.68     calculate D2E/DX2 analytically            !
 !       D6       -177.532    calculate D2E/DX2 analytically            !
 !       D7        154.6312   calculate D2E/DX2 analytically            !
 !       D8       -170.5202   calculate D2E/DX2 analytically            !
 !       D9       -143.3579   calculate D2E/DX2 analytically            !
 !       D10       171.4037   calculate D2E/DX2 analytically            !
 !       D11       163.5607   calculate D2E/DX2 analytically            !
 !       D12       152.1494   calculate D2E/DX2 analytically            !
 ------------------------------------------------------------------------
 Trust Radius=1.00D-01 FncErr=1.00D-07 GrdErr=1.00D-06 EigMax=2.50D+02 EigMin=1.00D-04
 Number of steps in this run=     40 maximum allowed number of steps=    100.
 Search for a saddle point of order  1.
 GradGradGradGradGradGradGradGradGradGradGradGradGradGradGradGradGradGrad

 ---------------------------------------------------------------------------------------------------
                            Z-MATRIX (ANGSTROMS AND DEGREES)
   CD    Cent   Atom    N1       Length/X        N2       Alpha/Y        N3        Beta/Z          J
 ---------------------------------------------------------------------------------------------------
      1      1  C 
      2      2  C        1   1.387181(     1)
      3      3  C        1   1.400579(     2)      2  120.797(    12)
      4      4  H        1   1.085661(     3)      2  120.121(    13)      3 -169.148(    22)      0
      5      5  H        2   1.082835(     4)      1  120.916(    14)      3  149.680(    23)      0
      6      6  H        3   1.081406(     5)      1  119.675(    15)      2 -177.532(    24)      0
      7      7  C        3   1.409905(     6)      1  119.006(    16)      6  154.631(    25)      0
      8      8  C        2   1.392414(     7)      1  117.219(    17)      5 -170.520(    26)      0
      9      9  H        7   1.096952(     8)      3  115.637(    18)      1 -143.358(    27)      0
     10     10  O        7   1.260033(     9)      3  128.195(    19)      9  171.404(    28)      0
     11     11  H        8   1.082641(    10)      2  120.779(    20)      1  163.561(    29)      0
     12     12  H        8   1.081214(    11)      2  118.419(    21)     11  152.149(    30)      0
 ---------------------------------------------------------------------------------------------------
                         Z-Matrix orientation:                         
 ---------------------------------------------------------------------
 Center     Atomic      Atomic             Coordinates (Angstroms)
 Number     Number       Type             X           Y           Z
 ---------------------------------------------------------------------
      1          6           0        0.000000    0.000000    0.000000
      2          6           0        0.000000    0.000000    1.387181
      3          6           0        1.203074    0.000000   -0.717103
      4          1           0       -0.922270    0.176797   -0.544813
      5          1           0       -0.801918    0.468980    1.943523
      6          1           0        1.182329    0.040460   -1.797552
      7          6           0        2.371896    0.479829   -0.091444
      8          6           0        1.157210   -0.440514    2.024071
      9          1           0        3.062409    1.035329   -0.737909
     10          8           0        2.653879    0.480999    1.136631
     11          1           0        1.329935   -0.224606    3.070810
     12          1           0        1.639598   -1.334643    1.654128
 ---------------------------------------------------------------------
                    Distance matrix (angstroms):
                    1          2          3          4          5
     1  C    0.000000
     2  C    1.387181   0.000000
     3  C    1.400579   2.423922   0.000000
     4  H    1.085661   2.148125   2.139632   0.000000
     5  H    2.154134   1.082835   3.364352   2.508320   0.000000
     6  H    2.151914   3.397361   1.081406   2.453014   4.256349
     7  C    2.421671   2.835923   1.409905   3.338997   3.770187
     8  C    2.372773   1.392414   2.776723   3.362213   2.161446
     9  H    3.315835   3.868625   2.128254   4.080689   4.737495
    10  O    2.926835   2.708728   2.402608   3.963412   3.548768
    11  H    3.353960   2.157263   3.796686   4.278584   2.509310
    12  H    2.684342   2.130919   2.755823   3.699049   3.049231
                    6          7          8          9         10
     6  H    0.000000
     7  C    2.125775   0.000000
     8  C    3.851853   2.607278   0.000000
     9  H    2.376406   1.096952   3.665573   0.000000
    10  O    3.311942   1.260033   1.968947   1.997017   0.000000
    11  H    4.877806   3.403199   1.082641   4.369810   2.447806
    12  H    3.743541   2.622135   1.081214   3.655544   2.143158
                   11         12
    11  H    0.000000
    12  H    1.826215   0.000000
 Symmetry turned off by external request.
 Stoichiometry    C5H6O
 Framework group  C1[X(C5H6O)]
 Deg. of freedom    30
 Full point group                 C1      NOp   1
 Rotational constants (GHZ):           5.5433144           4.6745945           2.7099855
 Standard basis: def2TZVP (5D, 7F)
 The following finite field(s) will be applied:
 An electric field of              0.0034  0.0034  0.0015
   222 basis functions,   354 primitive gaussians,   252 cartesian basis functions
    22 alpha electrons       22 beta electrons
       nuclear repulsion energy       217.9207673881 Hartrees.
 NAtoms=   12 NActive=   12 NUniq=   12 SFac= 1.00D+00 NAtFMM=   60 NAOKFM=F Big=F
 Integral buffers will be    131072 words long.
 Raffenetti 2 integral format.
 Two-electron integral symmetry is turned off.
 One-electron integrals computed using PRISM.
   1 Symmetry operations used in ECPInt.
 ECPInt:  NShTT=    4095 NPrTT=   12396 LenC2=    4075 LenP2D=   10363.
 LDataN:  DoStor=T MaxTD1= 6 Len=  172
 NBasis=   222 RedAO= T EigKep=  1.15D-04  NBF=   222
 NBsUse=   222 1.00D-06 EigRej= -1.00D+00 NBFU=   222
 The nuclear repulsion energy is now       218.3778733198 hartrees.
 Initial guess from the checkpoint file:  "checkpoint.chk"
 B after Tr=     0.000000   -0.000000    0.000000
         Rot=    1.000000   -0.000000    0.000000    0.000000 Ang=   0.00 deg.
 Keep R1 ints in memory in canonical form, NReq=319363861.
 Requested convergence on RMS density matrix=1.00D-08 within 128 cycles.
 Requested convergence on MAX density matrix=1.00D-06.
 Requested convergence on             energy=1.00D-06.
 No special actions if energy rises.
 SCF Done:  E(RB3LYP) =  -269.394168530     A.U. after   10 cycles
            NFock= 10  Conv=0.91D-08     -V/T= 2.0050
 DoSCS=F DFT=T ScalE2(SS,OS)=  1.000000  1.000000
 Range of M.O.s used for correlation:     1   222
 NBasis=   222 NAE=    22 NBE=    22 NFC=     0 NFV=     0
 NROrb=    222 NOA=    22 NOB=    22 NVA=   200 NVB=   200

 **** Warning!!: The largest alpha MO coefficient is  0.19243419D+02

   1 Symmetry operations used in ECPInt.
 ECPInt:  NShTT=    4095 NPrTT=   12396 LenC2=    4075 LenP2D=   10363.
 LDataN:  DoStor=T MaxTD1= 7 Len=  274
 Symmetrizing basis deriv contribution to polar:
 IMax=3 JMax=2 DiffMx= 0.00D+00
 G2DrvN: will do    13 centers at a time, making    1 passes.
 Calling FoFCou, ICntrl=  3107 FMM=F I1Cent=   0 AccDes= 0.00D+00.
 End of G2Drv F.D. properties file   721 does not exist.
 End of G2Drv F.D. properties file   722 does not exist.
 End of G2Drv F.D. properties file   788 does not exist.
          IDoAtm=111111111111
          Differentiating once with respect to nuclear coordinates.
 Keep R1 ints in memory in canonical form, NReq=319333990.
          There are    39 degrees of freedom in the 1st order CPHF.  IDoFFX=6 NUNeed=     0.
     33 vectors produced by pass  0 Test12= 1.13D-14 2.56D-09 XBig12= 1.46D-01 1.66D-01.
 AX will form    33 AO Fock derivatives at one time.
     33 vectors produced by pass  1 Test12= 1.13D-14 2.56D-09 XBig12= 1.92D-02 4.21D-02.
     33 vectors produced by pass  2 Test12= 1.13D-14 2.56D-09 XBig12= 2.51D-04 3.25D-03.
     33 vectors produced by pass  3 Test12= 1.13D-14 2.56D-09 XBig12= 1.08D-06 1.44D-04.
     33 vectors produced by pass  4 Test12= 1.13D-14 2.56D-09 XBig12= 2.64D-09 6.70D-06.
     30 vectors produced by pass  5 Test12= 1.13D-14 2.56D-09 XBig12= 5.25D-12 3.18D-07.
      9 vectors produced by pass  6 Test12= 1.13D-14 2.56D-09 XBig12= 7.90D-15 1.29D-08.
 InvSVY:  IOpt=1 It=  1 EMax= 2.22D-15
 Solved reduced A of dimension   204 with    33 vectors.
 End of Minotr F.D. properties file   721 does not exist.
 End of Minotr F.D. properties file   722 does not exist.
 End of Minotr F.D. properties file   788 does not exist.

 **********************************************************************

            Population analysis using the SCF density.

 **********************************************************************

 Alpha  occ. eigenvalues --  -19.15327 -10.26322 -10.23064 -10.20394 -10.17996
 Alpha  occ. eigenvalues --  -10.17606  -1.05768  -0.83704  -0.76606  -0.67628
 Alpha  occ. eigenvalues --   -0.61733  -0.53656  -0.51883  -0.47988  -0.46947
 Alpha  occ. eigenvalues --   -0.45263  -0.40568  -0.39125  -0.38450  -0.33666
 Alpha  occ. eigenvalues --   -0.29849  -0.22445
 Alpha virt. eigenvalues --   -0.07853  -0.00843   0.03790   0.04665   0.06162
 Alpha virt. eigenvalues --    0.07080   0.08780   0.10571   0.11862   0.14410
 Alpha virt. eigenvalues --    0.17019   0.19054   0.19493   0.20979   0.21517
 Alpha virt. eigenvalues --    0.22051   0.23933   0.26347   0.27238   0.28129
 Alpha virt. eigenvalues --    0.29825   0.32479   0.32977   0.35144   0.37334
 Alpha virt. eigenvalues --    0.38949   0.39483   0.41473   0.42015   0.42931
 Alpha virt. eigenvalues --    0.43557   0.44416   0.44751   0.47088   0.49024
 Alpha virt. eigenvalues --    0.51956   0.52859   0.54345   0.56032   0.57294
 Alpha virt. eigenvalues --    0.60983   0.64812   0.67910   0.68723   0.74486
 Alpha virt. eigenvalues --    0.78930   0.81456   0.86094   0.86396   0.88572
 Alpha virt. eigenvalues --    0.91738   0.93104   0.95436   0.95954   0.97185
 Alpha virt. eigenvalues --    1.00465   1.02902   1.06420   1.09929   1.11192
 Alpha virt. eigenvalues --    1.14087   1.16365   1.18630   1.22603   1.22724
 Alpha virt. eigenvalues --    1.28206   1.30516   1.33544   1.38513   1.39044
 Alpha virt. eigenvalues --    1.42156   1.43094   1.45621   1.46802   1.50483
 Alpha virt. eigenvalues --    1.52311   1.56799   1.59086   1.62509   1.64108
 Alpha virt. eigenvalues --    1.66121   1.67739   1.72921   1.76989   1.77740
 Alpha virt. eigenvalues --    1.80332   1.81921   1.84753   1.87699   1.90755
 Alpha virt. eigenvalues --    1.93667   1.96159   2.04549   2.05832   2.09501
 Alpha virt. eigenvalues --    2.13972   2.14875   2.19061   2.19791   2.25078
 Alpha virt. eigenvalues --    2.27045   2.31257   2.37153   2.40514   2.43693
 Alpha virt. eigenvalues --    2.48797   2.51071   2.52247   2.53830   2.55217
 Alpha virt. eigenvalues --    2.58029   2.60596   2.62207   2.64607   2.67156
 Alpha virt. eigenvalues --    2.69538   2.70081   2.76026   2.77522   2.78722
 Alpha virt. eigenvalues --    2.80879   2.82938   2.83552   2.85637   2.88480
 Alpha virt. eigenvalues --    2.90802   2.94002   2.95643   2.97301   3.01025
 Alpha virt. eigenvalues --    3.01980   3.03865   3.05674   3.11137   3.12702
 Alpha virt. eigenvalues --    3.14230   3.16843   3.18961   3.22046   3.22823
 Alpha virt. eigenvalues --    3.24138   3.27001   3.28127   3.34313   3.35350
 Alpha virt. eigenvalues --    3.38532   3.40894   3.42771   3.44737   3.47441
 Alpha virt. eigenvalues --    3.48809   3.51492   3.57392   3.62396   3.62529
 Alpha virt. eigenvalues --    3.67723   3.84512   3.88985   3.91056   3.93284
 Alpha virt. eigenvalues --    3.96411   4.01656   4.03060   4.07739   4.10718
 Alpha virt. eigenvalues --    4.15299   4.17117   4.25145   4.29712   4.31807
 Alpha virt. eigenvalues --    4.37865   4.43259   4.47114   4.53610   4.64100
 Alpha virt. eigenvalues --    4.66123   4.71688   4.80423   4.84905   4.86027
 Alpha virt. eigenvalues --    5.04769   5.14067   5.23888   5.27906   5.50423
 Alpha virt. eigenvalues --    5.60296   5.97846   6.20164   6.32585   6.49324
 Alpha virt. eigenvalues --    6.71438   6.77146   6.95914   7.07095  22.05222
 Alpha virt. eigenvalues --   22.33171  22.49843  22.69219  22.86609  43.79812
          Condensed to atoms (all electrons):
               1          2          3          4          5          6
     1  C    4.878563   0.485594   0.471539   0.419476  -0.051588  -0.047982
     2  C    0.485594   4.998091  -0.033374  -0.041491   0.418686   0.009267
     3  C    0.471539  -0.033374   5.234276  -0.048477   0.007509   0.409662
     4  H    0.419476  -0.041491  -0.048477   0.538186  -0.005040  -0.007000
     5  H   -0.051588   0.418686   0.007509  -0.005040   0.563194  -0.000201
     6  H   -0.047982   0.009267   0.409662  -0.007000  -0.000201   0.560494
     7  C   -0.021705  -0.054488   0.422132   0.002702  -0.002424  -0.038824
     8  C   -0.084022   0.504831  -0.002856   0.010648  -0.041145   0.000004
     9  H    0.001465  -0.004860  -0.106383  -0.000823   0.000044  -0.000444
    10  O   -0.010957  -0.026797  -0.127288  -0.000833   0.000870   0.005850
    11  H    0.010392  -0.043647  -0.000592  -0.000240  -0.006541   0.000015
    12  H   -0.032823  -0.024817   0.030037  -0.000002   0.006195   0.000067
               7          8          9         10         11         12
     1  C   -0.021705  -0.084022   0.001465  -0.010957   0.010392  -0.032823
     2  C   -0.054488   0.504831  -0.004860  -0.026797  -0.043647  -0.024817
     3  C    0.422132  -0.002856  -0.106383  -0.127288  -0.000592   0.030037
     4  H    0.002702   0.010648  -0.000823  -0.000833  -0.000240  -0.000002
     5  H   -0.002424  -0.041145   0.000044   0.000870  -0.006541   0.006195
     6  H   -0.038824   0.000004  -0.000444   0.005850   0.000015   0.000067
     7  C    4.670497  -0.045867   0.414368   0.502929   0.001210  -0.010817
     8  C   -0.045867   4.842780   0.003514   0.067760   0.397857   0.428379
     9  H    0.414368   0.003514   0.640835  -0.037512  -0.000053  -0.001560
    10  O    0.502929   0.067760  -0.037512   7.999408  -0.002134  -0.050338
    11  H    0.001210   0.397857  -0.000053  -0.002134   0.555835  -0.031740
    12  H   -0.010817   0.428379  -0.001560  -0.050338  -0.031740   0.547197
 Mulliken charges:
               1
     1  C   -0.017953
     2  C   -0.186996
     3  C   -0.256186
     4  H    0.132892
     5  H    0.110439
     6  H    0.109091
     7  C    0.160286
     8  C   -0.081882
     9  H    0.091409
    10  O   -0.320959
    11  H    0.119636
    12  H    0.140222
 Sum of Mulliken charges =  -0.00000
 Mulliken charges with hydrogens summed into heavy atoms:
               1
     1  C    0.114939
     2  C   -0.076557
     3  C   -0.147094
     7  C    0.251695
     8  C    0.177976
    10  O   -0.320959
 APT charges:
               1
     1  C   -0.368268
     2  C   -0.472103
     3  C   -0.523884
     4  H    0.287833
     5  H    0.381527
     6  H    0.374948
     7  C   -0.407265
     8  C   -0.678400
     9  H    0.535898
    10  O   -0.082124
    11  H    0.609314
    12  H    0.342523
 Sum of APT charges =  -0.00000
 APT charges with hydrogens summed into heavy atoms:
               1
     1  C   -0.080435
     2  C   -0.090576
     3  C   -0.148935
     7  C    0.128633
     8  C    0.273438
    10  O   -0.082124
 Electronic spatial extent (au):  <R**2>=            799.0448
 Charge=             -0.0000 electrons
 Dipole moment (field-independent basis, Debye):
    X=             -1.6177    Y=             -0.4667    Z=             -0.7048  Tot=              1.8252
 Quadrupole moment (field-independent basis, Debye-Ang):
   XX=            -40.2458   YY=            -37.6439   ZZ=            -32.7888
   XY=             -2.0435   XZ=             -3.5024   YZ=             -2.0385
 Traceless Quadrupole moment (field-independent basis, Debye-Ang):
   XX=             -3.3530   YY=             -0.7510   ZZ=              4.1040
   XY=             -2.0435   XZ=             -3.5024   YZ=             -2.0385
 Octapole moment (field-independent basis, Debye-Ang**2):
  XXX=           -147.2831  YYY=            -10.2270  ZZZ=            -58.3575  XYY=            -43.4637
  XXY=             -5.5553  XXZ=            -36.6879  XZZ=            -43.2302  YZZ=             -4.8452
  YYZ=            -22.6944  XYZ=             -7.2200
 Hexadecapole moment (field-independent basis, Debye-Ang**3):
 XXXX=           -659.5102 YYYY=            -76.3669 ZZZZ=           -330.2799 XXXY=            -38.7739
 XXXZ=           -120.3489 YYYX=            -34.0361 YYYZ=              9.4660 ZZZX=            -64.2521
 ZZZY=             10.0134 XXYY=           -114.0424 XXZZ=           -171.5394 YYZZ=            -78.2190
 XXYZ=            -12.0425 YYXZ=            -24.2232 ZZXY=            -18.8957
 N-N= 2.183778733198D+02 E-N=-1.064213005696D+03  KE= 2.680623901696D+02
  Exact polarizability:   0.000   0.000   0.000   0.000   0.000   0.000
 Approx polarizability: 133.542  13.260  67.832  -2.898  -6.725 130.179
   1 Symmetry operations used in ECPInt.
 ECPInt:  NShTT=    4095 NPrTT=   12396 LenC2=    4075 LenP2D=   10363.
 LDataN:  DoStor=T MaxTD1= 8 Len=  415
 Calling FoFJK, ICntrl=    100147 FMM=F ISym2X=0 I1Cent= 0 IOpClX= 0 NMat=1 NMatS=1 NMatT=0.
 -------------------------------------------------------------------
 Center     Atomic                   Forces (Hartrees/Bohr)
 Number     Number              X              Y              Z
 -------------------------------------------------------------------
      1        6          -0.000552745   -0.000679463    0.000222549
      2        6           0.000749410    0.000742800    0.000211021
      3        6           0.001227549    0.001238754    0.000085534
      4        1           0.000096397   -0.000256151    0.000046498
      5        1          -0.000164694   -0.000300377   -0.000054666
      6        1          -0.000083760   -0.000238757    0.000029218
      7        6          -0.001625207   -0.000878955   -0.001663885
      8        6          -0.001278125   -0.000533662   -0.000074157
      9        1           0.000050295    0.000070072   -0.000357927
     10        8           0.001770141    0.000906813    0.001410618
     11        1          -0.000146698   -0.000119307    0.000121416
     12        1          -0.000042562    0.000048231    0.000023780
 -------------------------------------------------------------------
 Cartesian Forces:  Max     0.001770141 RMS     0.000736512
 -----------------------------------------------------------------------------------------------
                       Internal Coordinate Forces (Hartree/Bohr or radian)
  Cent   Atom   N1       Length/X         N2         Alpha/Y        N3         Beta/Z          J
 -----------------------------------------------------------------------------------------------
      1  C 
      2  C        1   0.000227(     1)
      3  C        1   0.001404(     2)      2   0.004829(    12)
      4  H        1  -0.000147(     3)      2   0.000065(    13)      3  -0.000414(    22)     0
      5  H        2  -0.000036(     4)      1  -0.000086(    14)      3  -0.001950(    23)     0
      6  H        3  -0.000037(     5)      1  -0.000162(    15)      2  -0.003340(    24)     0
      7  C        3  -0.000076(     6)      1   0.005345(    16)      6  -0.002915(    25)     0
      8  C        2  -0.000996(     7)      1   0.001759(    17)      5  -0.002551(    26)     0
      9  H        7   0.000278(     8)      3  -0.000491(    18)      1  -0.000472(    27)     0
     10  O        7   0.001772(     9)      3   0.003958(    19)      9  -0.000387(    28)     0
     11  H        8   0.000070(    10)      2  -0.000154(    20)      1   0.000330(    29)     0
     12  H        8  -0.000067(    11)      2  -0.000018(    21)     11  -0.000021(    30)     0
 -----------------------------------------------------------------------------------------------
 Internal  Forces:  Max     0.005345339 RMS     0.001896010

 GradGradGradGradGradGradGradGradGradGradGradGradGradGradGradGradGradGrad
 Berny optimization.
 Search for a saddle point.
 Step number   1 out of a maximum of   40
 All quantities printed in internal units (Hartrees-Bohrs-Radians)
 Swapping is turned off.
 Second derivative matrix not updated -- analytic derivatives used.
 ITU=  0
     Eigenvalues ---   -0.74227   0.02569   0.02782   0.04008   0.04155
     Eigenvalues ---    0.04944   0.10689   0.12659   0.14354   0.16538
     Eigenvalues ---    0.18524   0.19802   0.25025   0.27136   0.29508
     Eigenvalues ---    0.32149   0.34558   0.34986   0.35351   0.35634
     Eigenvalues ---    0.36364   0.39309   0.40009   0.43626   0.46342
     Eigenvalues ---    0.52908   0.57076   0.70735   0.91575   2.75236
 Eigenvectors required to have negative eigenvalues:
                          A7        A3        D12       R8        R10
   1                    0.46404   0.41764   0.29787  -0.27593  -0.26677
                          A8        A10       R7        D11       R2
   1                    0.26044   0.23577   0.23510   0.22247   0.19432
 RFO step:  Lambda0=5.398771873D-05 Lambda=-9.32719477D-05.
 Linear search not attempted -- option 19 set.
 Variable       Old X    -DE/DX   Delta X   Delta X   Delta X     New X
                                 (Linear)    (Quad)   (Total)
    R2        2.62139   0.00023   0.00000  -0.00325  -0.00325   2.61814
    R3        2.64671   0.00140   0.00000   0.00332   0.00332   2.65003
    R4        2.05160  -0.00015   0.00000  -0.00062  -0.00062   2.05098
    R5        2.04626  -0.00004   0.00000  -0.00029  -0.00029   2.04597
    R6        2.04356  -0.00004   0.00000  -0.00026  -0.00026   2.04330
    R7        2.66433  -0.00008   0.00000  -0.00588  -0.00588   2.65846
    R8        2.63128  -0.00100   0.00000   0.00163   0.00163   2.63291
    R9        2.07294   0.00028   0.00000   0.00021   0.00021   2.07315
   R10        2.38112   0.00177   0.00000   0.00641   0.00641   2.38753
   R11        2.04590   0.00007   0.00000   0.00023   0.00023   2.04612
   R12        2.04320  -0.00007   0.00000   0.00020   0.00020   2.04339
    A3        2.10831   0.00483   0.00000  -0.00175  -0.00175   2.10656
    A4        2.09651   0.00006   0.00000   0.00205   0.00205   2.09856
    A5        2.11038  -0.00009   0.00000   0.00272   0.00272   2.11311
    A6        2.08872  -0.00016   0.00000   0.00004   0.00004   2.08875
    A7        2.07704   0.00535   0.00000   0.00060   0.00060   2.07764
    A8        2.04587   0.00176   0.00000  -0.00174  -0.00174   2.04413
    A9        2.01825  -0.00049   0.00000   0.00015   0.00015   2.01840
   A10        2.23743   0.00396   0.00000   0.00208   0.00208   2.23951
   A11        2.10799  -0.00015   0.00000  -0.00115  -0.00115   2.10684
   A12        2.06680  -0.00002   0.00000  -0.00140  -0.00140   2.06540
    D4       -2.95219  -0.00041   0.00000  -0.00769  -0.00769  -2.95988
    D5        2.61241  -0.00195   0.00000   0.02051   0.02051   2.63292
    D6       -3.09852  -0.00334   0.00000  -0.01286  -0.01286  -3.11138
    D7        2.69882  -0.00292   0.00000   0.00795   0.00795   2.70677
    D8       -2.97614  -0.00255   0.00000  -0.01428  -0.01428  -2.99042
    D9       -2.50207  -0.00047   0.00000  -0.00710  -0.00710  -2.50917
   D10        2.99156  -0.00039   0.00000  -0.00018  -0.00018   2.99138
   D11        2.85467   0.00033   0.00000   0.00633   0.00633   2.86100
   D12        2.65551  -0.00002   0.00000  -0.00763  -0.00763   2.64788
         Item               Value     Threshold  Converged?
 Maximum Force            0.005345     0.000450     NO 
 RMS     Force            0.001896     0.000300     NO 
 Maximum Displacement     0.020512     0.001800     NO 
 RMS     Displacement     0.006291     0.001200     NO 
 Predicted change in Energy=-1.969219D-05
 GradGradGradGradGradGradGradGradGradGradGradGradGradGradGradGradGradGrad

 ---------------------------------------------------------------------------------------------------
                            Z-MATRIX (ANGSTROMS AND DEGREES)
   CD    Cent   Atom    N1       Length/X        N2       Alpha/Y        N3        Beta/Z          J
 ---------------------------------------------------------------------------------------------------
      1      1  C 
      2      2  C        1   1.385459(     1)
      3      3  C        1   1.402338(     2)      2  120.697(    12)
      4      4  H        1   1.085333(     3)      2  120.238(    13)      3 -169.589(    22)      0
      5      5  H        2   1.082683(     4)      1  121.072(    14)      3  150.855(    23)      0
      6      6  H        3   1.081267(     5)      1  119.677(    15)      2 -178.269(    24)      0
      7      7  C        3   1.406794(     6)      1  119.040(    16)      6  155.087(    25)      0
      8      8  C        2   1.393277(     7)      1  117.120(    17)      5 -171.338(    26)      0
      9      9  H        7   1.097061(     8)      3  115.646(    18)      1 -143.765(    27)      0
     10     10  O        7   1.263427(     9)      3  128.315(    19)      9  171.393(    28)      0
     11     11  H        8   1.082762(    10)      2  120.713(    20)      1  163.923(    29)      0
     12     12  H        8   1.081318(    11)      2  118.339(    21)     11  151.713(    30)      0
 ---------------------------------------------------------------------------------------------------
                         Z-Matrix orientation:                         
 ---------------------------------------------------------------------
 Center     Atomic      Atomic             Coordinates (Angstroms)
 Number     Number       Type             X           Y           Z
 ---------------------------------------------------------------------
      1          6           0        0.000000    0.000000    0.000000
      2          6           0        0.000000    0.000000    1.385459
      3          6           0        1.205842    0.000000   -0.715889
      4          1           0       -0.922221    0.169450   -0.546574
      5          1           0       -0.809930    0.451631    1.944247
      6          1           0        1.186810    0.028378   -1.796616
      7          6           0        2.370222    0.484172   -0.092298
      8          6           0        1.161690   -0.433946    2.020587
      9          1           0        3.063726    1.032541   -0.741827
     10          8           0        2.650732    0.498997    1.139507
     11          1           0        1.331017   -0.222014    3.068818
     12          1           0        1.647340   -1.325739    1.648973
 ---------------------------------------------------------------------
                    Distance matrix (angstroms):
                    1          2          3          4          5
     1  C    0.000000
     2  C    1.385459   0.000000
     3  C    1.402338   2.422750   0.000000
     4  H    1.085333   2.147546   2.141502   0.000000
     5  H    2.154078   1.082683   3.368031   2.509268   0.000000
     6  H    2.153404   3.396309   1.081267   2.455711   4.261475
     7  C    2.420929   2.834809   1.406794   3.338503   3.776499
     8  C    2.370782   1.393277   2.771022   3.361114   2.162720
     9  H    3.317056   3.870129   2.125687   4.082992   4.749490
    10  O    2.928115   2.708482   2.403997   3.964526   3.553313
    11  H    3.352393   2.157451   3.793279   4.278012   2.510401
    12  H    2.681497   2.130904   2.746830   3.695763   3.047033
                    6          7          8          9         10
     6  H    0.000000
     7  C    2.124361   0.000000
     8  C    3.845181   2.601495   0.000000
     9  H    2.375655   1.097061   3.660499   0.000000
    10  O    3.314418   1.263427   1.965689   1.998662   0.000000
    11  H    4.874006   3.401661   1.082762   4.370034   2.446170
    12  H    3.730657   2.613496   1.081318   3.644661   2.143831
                   11         12
    11  H    0.000000
    12  H    1.825987   0.000000
 Symmetry turned off by external request.
 Stoichiometry    C5H6O
 Framework group  C1[X(C5H6O)]
 Deg. of freedom    30
 Full point group                 C1      NOp   1
 Rotational constants (GHZ):           5.5496394           4.6756236           2.7127083
 Standard basis: def2TZVP (5D, 7F)
 The following finite field(s) will be applied:
 An electric field of              0.0034  0.0034  0.0015
   222 basis functions,   354 primitive gaussians,   252 cartesian basis functions
    22 alpha electrons       22 beta electrons
       nuclear repulsion energy       217.9544051518 Hartrees.
 NAtoms=   12 NActive=   12 NUniq=   12 SFac= 1.00D+00 NAtFMM=   60 NAOKFM=F Big=F
 Integral buffers will be    131072 words long.
 Raffenetti 2 integral format.
 Two-electron integral symmetry is turned off.
 One-electron integrals computed using PRISM.
   1 Symmetry operations used in ECPInt.
 ECPInt:  NShTT=    4095 NPrTT=   12396 LenC2=    4075 LenP2D=   10363.
 LDataN:  DoStor=T MaxTD1= 6 Len=  172
 NBasis=   222 RedAO= T EigKep=  1.13D-04  NBF=   222
 NBsUse=   222 1.00D-06 EigRej= -1.00D+00 NBFU=   222
 The nuclear repulsion energy is now       218.4127185780 hartrees.
 Initial guess from the checkpoint file:  "checkpoint.chk"
 B after Tr=     0.002766   -0.007882   -0.002423
         Rot=    0.999996    0.001189    0.000451   -0.002701 Ang=   0.34 deg.
 ExpMin= 9.52D-02 ExpMax= 2.70D+04 ExpMxC= 9.22D+02 IAcc=2 IRadAn=         4 AccDes= 0.00D+00
 Harris functional with IExCor=  402 and IRadAn=       4 diagonalized for initial guess.
 HarFok:  IExCor=  402 AccDes= 0.00D+00 IRadAn=         4 IDoV= 1 UseB2=F ITyADJ=14
 ICtDFT=  3500011 ScaDFX=  1.000000  1.000000  1.000000  1.000000
 FoFCou: FMM=F IPFlag=           0 FMFlag=      100000 FMFlg1=           0
         NFxFlg=           0 DoJE=T BraDBF=F KetDBF=T FulRan=T
         wScrn=  0.000000 ICntrl=       500 IOpCl=  0 I1Cent=   200000004 NGrid=           0
         NMat0=    1 NMatS0=      1 NMatT0=    0 NMatD0=    1 NMtDS0=    0 NMtDT0=    0
 Symmetry not used in FoFCou.
 Keep R1 ints in memory in canonical form, NReq=319363861.
 Requested convergence on RMS density matrix=1.00D-08 within 128 cycles.
 Requested convergence on MAX density matrix=1.00D-06.
 Requested convergence on             energy=1.00D-06.
 No special actions if energy rises.
 Integral accuracy reduced to 1.0D-05 until final iterations.
 Initial convergence to 1.0D-05 achieved.  Increase integral accuracy.
 SCF Done:  E(RB3LYP) =  -269.394188085     A.U. after   12 cycles
            NFock= 12  Conv=0.40D-08     -V/T= 2.0050
   1 Symmetry operations used in ECPInt.
 ECPInt:  NShTT=    4095 NPrTT=   12396 LenC2=    4075 LenP2D=   10363.
 LDataN:  DoStor=T MaxTD1= 7 Len=  274
 Calling FoFJK, ICntrl=      2127 FMM=F ISym2X=0 I1Cent= 0 IOpClX= 0 NMat=1 NMatS=1 NMatT=0.
 -------------------------------------------------------------------
 Center     Atomic                   Forces (Hartrees/Bohr)
 Number     Number              X              Y              Z
 -------------------------------------------------------------------
      1        6           0.000007232   -0.001244795   -0.000009382
      2        6          -0.000007734    0.000590110    0.000010608
      3        6          -0.000007922    0.000662666   -0.000007927
      4        1          -0.000001330   -0.000003939   -0.000000210
      5        1          -0.000004681   -0.000001129   -0.000001954
      6        1          -0.000001846   -0.000003790   -0.000001245
      7        6           0.000010242    0.000026140   -0.000027169
      8        6           0.000004716    0.000000582    0.000010009
      9        1           0.000003363   -0.000000623   -0.000004768
     10        8          -0.000004100   -0.000028705    0.000033333
     11        1           0.000000255    0.000002229    0.000000264
     12        1           0.000001805    0.000001255   -0.000001561
 -------------------------------------------------------------------
 Cartesian Forces:  Max     0.001244795 RMS     0.000255007
 -----------------------------------------------------------------------------------------------
                       Internal Coordinate Forces (Hartree/Bohr or radian)
  Cent   Atom   N1       Length/X         N2         Alpha/Y        N3         Beta/Z          J
 -----------------------------------------------------------------------------------------------
      1  C 
      2  C        1   0.000017(     1)
      3  C        1   0.000004(     2)      2   0.000005(    12)
      4  H        1   0.000001(     3)      2  -0.000000(    13)      3  -0.000007(    22)     0
      5  H        2   0.000002(     4)      1  -0.000007(    14)      3   0.000025(    23)     0
      6  H        3   0.000001(     5)      1  -0.000004(    15)      2   0.000069(    24)     0
      7  C        3   0.000007(     6)      1  -0.000017(    16)      6   0.000076(    25)     0
      8  C        2   0.000008(     7)      1   0.000014(    17)      5   0.000019(    26)     0
      9  H        7   0.000005(     8)      3  -0.000004(    18)      1   0.000034(    27)     0
     10  O        7   0.000031(     9)      3  -0.000054(    19)      9   0.000040(    28)     0
     11  H        8   0.000001(    10)      2  -0.000002(    20)      1   0.000001(    29)     0
     12  H        8   0.000000(    11)      2   0.000001(    21)     11   0.000005(    30)     0
 -----------------------------------------------------------------------------------------------
 Internal  Forces:  Max     0.000075608 RMS     0.000025359

 GradGradGradGradGradGradGradGradGradGradGradGradGradGradGradGradGradGrad
 Berny optimization.
 Search for a saddle point.
 Step number   2 out of a maximum of   40
 All quantities printed in internal units (Hartrees-Bohrs-Radians)
 Swapping is turned off.
 Update second derivatives using D2CorN and points    1    2
 ITU=  0  0
     Eigenvalues ---   -0.74242   0.02576   0.02777   0.04012   0.04155
     Eigenvalues ---    0.04950   0.10686   0.12659   0.14355   0.16536
     Eigenvalues ---    0.18524   0.19816   0.25035   0.27136   0.29508
     Eigenvalues ---    0.32149   0.34558   0.34986   0.35351   0.35634
     Eigenvalues ---    0.36364   0.39310   0.40012   0.43631   0.46343
     Eigenvalues ---    0.52908   0.57079   0.70714   0.91581   2.75255
 Eigenvectors required to have negative eigenvalues:
                          A7        A3        D12       R8        R10
   1                    0.46402   0.41759   0.29793  -0.27595  -0.26687
                          A8        A10       R7        D11       R2
   1                    0.26037   0.23586   0.23509   0.22242   0.19428
 RFO step:  Lambda0=5.199038422D-10 Lambda=-3.49687329D-08.
 Linear search not attempted -- option 19 set.
 Variable       Old X    -DE/DX   Delta X   Delta X   Delta X     New X
                                 (Linear)    (Quad)   (Total)
    R2        2.61814   0.00002   0.00000   0.00004   0.00004   2.61817
    R3        2.65003   0.00000   0.00000  -0.00000  -0.00000   2.65003
    R4        2.05098   0.00000   0.00000   0.00000   0.00000   2.05099
    R5        2.04597   0.00000   0.00000   0.00001   0.00001   2.04598
    R6        2.04330   0.00000   0.00000   0.00000   0.00000   2.04330
    R7        2.65846   0.00001   0.00000   0.00002   0.00002   2.65847
    R8        2.63291   0.00001   0.00000   0.00001   0.00001   2.63293
    R9        2.07315   0.00000   0.00000   0.00001   0.00001   2.07315
   R10        2.38753   0.00003   0.00000   0.00005   0.00005   2.38758
   R11        2.04612   0.00000   0.00000   0.00001   0.00001   2.04613
   R12        2.04339   0.00000   0.00000  -0.00001  -0.00001   2.04339
    A3        2.10656   0.00000   0.00000   0.00004   0.00004   2.10660
    A4        2.09856  -0.00000   0.00000  -0.00004  -0.00004   2.09852
    A5        2.11311  -0.00001   0.00000  -0.00007  -0.00007   2.11304
    A6        2.08875  -0.00000   0.00000  -0.00001  -0.00001   2.08874
    A7        2.07764  -0.00002   0.00000   0.00006   0.00006   2.07770
    A8        2.04413   0.00001   0.00000   0.00008   0.00008   2.04420
    A9        2.01840  -0.00000   0.00000   0.00005   0.00005   2.01845
   A10        2.23951  -0.00005   0.00000  -0.00008  -0.00008   2.23943
   A11        2.10684  -0.00000   0.00000  -0.00002  -0.00002   2.10682
   A12        2.06540   0.00000   0.00000   0.00002   0.00002   2.06542
    D4       -2.95988  -0.00001   0.00000   0.00010   0.00010  -2.95978
    D5        2.63292   0.00003   0.00000  -0.00015  -0.00015   2.63277
    D6       -3.11138   0.00007   0.00000   0.00018   0.00018  -3.11120
    D7        2.70677   0.00008   0.00000   0.00028   0.00028   2.70705
    D8       -2.99042   0.00002   0.00000  -0.00018  -0.00018  -2.99060
    D9       -2.50917   0.00003   0.00000  -0.00014  -0.00014  -2.50931
   D10        2.99138   0.00004   0.00000   0.00016   0.00016   2.99154
   D11        2.86100   0.00000   0.00000  -0.00006  -0.00006   2.86094
   D12        2.64788   0.00000   0.00000  -0.00002  -0.00002   2.64786
         Item               Value     Threshold  Converged?
 Maximum Force            0.000076     0.000450     YES
 RMS     Force            0.000025     0.000300     YES
 Maximum Displacement     0.000277     0.001800     YES
 RMS     Displacement     0.000093     0.001200     YES
 Predicted change in Energy=-1.722441D-08
 Optimization completed.
    -- Stationary point found.
                       ----------------------------
                       !   Optimized Parameters   !
                       ! (Angstroms and Degrees)  !
 ----------------------                            ----------------------
 !      Name          Value   Derivative information (Atomic Units)     !
 ------------------------------------------------------------------------
 !       R2          1.3855   -DE/DX =    0.0                           !
 !       R3          1.4023   -DE/DX =    0.0                           !
 !       R4          1.0853   -DE/DX =    0.0                           !
 !       R5          1.0827   -DE/DX =    0.0                           !
 !       R6          1.0813   -DE/DX =    0.0                           !
 !       R7          1.4068   -DE/DX =    0.0                           !
 !       R8          1.3933   -DE/DX =    0.0                           !
 !       R9          1.0971   -DE/DX =    0.0                           !
 !       R10         1.2634   -DE/DX =    0.0                           !
 !       R11         1.0828   -DE/DX =    0.0                           !
 !       R12         1.0813   -DE/DX =    0.0                           !
 !       A3        120.6969   -DE/DX =    0.0                           !
 !       A4        120.2385   -DE/DX =    0.0                           !
 !       A5        121.072    -DE/DX =    0.0                           !
 !       A6        119.6768   -DE/DX =    0.0                           !
 !       A7        119.04     -DE/DX =    0.0                           !
 !       A8        117.1198   -DE/DX =    0.0                           !
 !       A9        115.6458   -DE/DX =    0.0                           !
 !       A10       128.3147   -DE/DX =   -0.0001                        !
 !       A11       120.7133   -DE/DX =    0.0                           !
 !       A12       118.3385   -DE/DX =    0.0                           !
 !       D4       -169.5885   -DE/DX =    0.0                           !
 !       D5        150.8552   -DE/DX =    0.0                           !
 !       D6       -178.269    -DE/DX =    0.0001                        !
 !       D7        155.0868   -DE/DX =    0.0001                        !
 !       D8       -171.3382   -DE/DX =    0.0                           !
 !       D9       -143.7649   -DE/DX =    0.0                           !
 !       D10       171.3934   -DE/DX =    0.0                           !
 !       D11       163.9232   -DE/DX =    0.0                           !
 !       D12       151.7125   -DE/DX =    0.0                           !
 ------------------------------------------------------------------------
 GradGradGradGradGradGradGradGradGradGradGradGradGradGradGradGradGradGrad

 ---------------------------------------------------------------------------------------------------
                            Z-MATRIX (ANGSTROMS AND DEGREES)
   CD    Cent   Atom    N1       Length/X        N2       Alpha/Y        N3        Beta/Z          J
 ---------------------------------------------------------------------------------------------------
      1      1  C 
      2      2  C        1   1.385459(     1)
      3      3  C        1   1.402338(     2)      2  120.697(    12)
      4      4  H        1   1.085333(     3)      2  120.238(    13)      3 -169.589(    22)      0
      5      5  H        2   1.082683(     4)      1  121.072(    14)      3  150.855(    23)      0
      6      6  H        3   1.081267(     5)      1  119.677(    15)      2 -178.269(    24)      0
      7      7  C        3   1.406794(     6)      1  119.040(    16)      6  155.087(    25)      0
      8      8  C        2   1.393277(     7)      1  117.120(    17)      5 -171.338(    26)      0
      9      9  H        7   1.097061(     8)      3  115.646(    18)      1 -143.765(    27)      0
     10     10  O        7   1.263427(     9)      3  128.315(    19)      9  171.393(    28)      0
     11     11  H        8   1.082762(    10)      2  120.713(    20)      1  163.923(    29)      0
     12     12  H        8   1.081318(    11)      2  118.339(    21)     11  151.713(    30)      0
 ---------------------------------------------------------------------------------------------------
                         Z-Matrix orientation:                         
 ---------------------------------------------------------------------
 Center     Atomic      Atomic             Coordinates (Angstroms)
 Number     Number       Type             X           Y           Z
 ---------------------------------------------------------------------
      1          6           0        0.000000    0.000000    0.000000
      2          6           0        0.000000    0.000000    1.385459
      3          6           0        1.205842    0.000000   -0.715889
      4          1           0       -0.922221    0.169450   -0.546574
      5          1           0       -0.809930    0.451631    1.944247
      6          1           0        1.186810    0.028378   -1.796616
      7          6           0        2.370222    0.484172   -0.092298
      8          6           0        1.161690   -0.433946    2.020587
      9          1           0        3.063726    1.032541   -0.741827
     10          8           0        2.650732    0.498997    1.139507
     11          1           0        1.331017   -0.222014    3.068818
     12          1           0        1.647340   -1.325739    1.648973
 ---------------------------------------------------------------------
                    Distance matrix (angstroms):
                    1          2          3          4          5
     1  C    0.000000
     2  C    1.385459   0.000000
     3  C    1.402338   2.422750   0.000000
     4  H    1.085333   2.147546   2.141502   0.000000
     5  H    2.154078   1.082683   3.368031   2.509268   0.000000
     6  H    2.153404   3.396309   1.081267   2.455711   4.261475
     7  C    2.420929   2.834809   1.406794   3.338503   3.776499
     8  C    2.370782   1.393277   2.771022   3.361114   2.162720
     9  H    3.317056   3.870129   2.125687   4.082992   4.749490
    10  O    2.928115   2.708482   2.403997   3.964526   3.553313
    11  H    3.352393   2.157451   3.793279   4.278012   2.510401
    12  H    2.681497   2.130904   2.746830   3.695763   3.047033
                    6          7          8          9         10
     6  H    0.000000
     7  C    2.124361   0.000000
     8  C    3.845181   2.601495   0.000000
     9  H    2.375655   1.097061   3.660499   0.000000
    10  O    3.314418   1.263427   1.965689   1.998662   0.000000
    11  H    4.874006   3.401661   1.082762   4.370034   2.446170
    12  H    3.730657   2.613496   1.081318   3.644661   2.143831
                   11         12
    11  H    0.000000
    12  H    1.825987   0.000000
 Symmetry turned off by external request.
 Stoichiometry    C5H6O
 Framework group  C1[X(C5H6O)]
 Deg. of freedom    30
 Full point group                 C1      NOp   1
 Rotational constants (GHZ):           5.5496394           4.6756236           2.7127083

 **********************************************************************

            Population analysis using the SCF density.

 **********************************************************************

 Alpha  occ. eigenvalues --  -19.15355 -10.26281 -10.23168 -10.20378 -10.17960
 Alpha  occ. eigenvalues --  -10.17609  -1.05626  -0.83727  -0.76629  -0.67674
 Alpha  occ. eigenvalues --   -0.61723  -0.53659  -0.51902  -0.47968  -0.46937
 Alpha  occ. eigenvalues --   -0.45249  -0.40536  -0.39090  -0.38458  -0.33731
 Alpha  occ. eigenvalues --   -0.29848  -0.22443
 Alpha virt. eigenvalues --   -0.07896  -0.00790   0.03787   0.04677   0.06174
 Alpha virt. eigenvalues --    0.07093   0.08782   0.10559   0.11856   0.14421
 Alpha virt. eigenvalues --    0.16969   0.19059   0.19498   0.21032   0.21464
 Alpha virt. eigenvalues --    0.22090   0.23941   0.26301   0.27298   0.28126
 Alpha virt. eigenvalues --    0.29839   0.32483   0.32985   0.35080   0.37300
 Alpha virt. eigenvalues --    0.38936   0.39477   0.41472   0.41953   0.42934
 Alpha virt. eigenvalues --    0.43578   0.44381   0.44707   0.47097   0.49020
 Alpha virt. eigenvalues --    0.52009   0.52859   0.54680   0.56032   0.57240
 Alpha virt. eigenvalues --    0.60942   0.64794   0.67893   0.68880   0.74633
 Alpha virt. eigenvalues --    0.78777   0.81503   0.86030   0.86601   0.88436
 Alpha virt. eigenvalues --    0.91670   0.93111   0.95447   0.95897   0.97281
 Alpha virt. eigenvalues --    1.00488   1.02921   1.06463   1.10000   1.11133
 Alpha virt. eigenvalues --    1.14153   1.16348   1.18507   1.22607   1.22777
 Alpha virt. eigenvalues --    1.28185   1.30672   1.33661   1.38579   1.39061
 Alpha virt. eigenvalues --    1.42239   1.43044   1.45589   1.46777   1.50426
 Alpha virt. eigenvalues --    1.52313   1.56840   1.59131   1.62571   1.64150
 Alpha virt. eigenvalues --    1.66200   1.67699   1.72799   1.77099   1.77729
 Alpha virt. eigenvalues --    1.80384   1.82000   1.84739   1.88087   1.90730
 Alpha virt. eigenvalues --    1.93652   1.96147   2.04675   2.05667   2.09436
 Alpha virt. eigenvalues --    2.13789   2.14826   2.19271   2.19789   2.24994
 Alpha virt. eigenvalues --    2.27027   2.31164   2.37202   2.40974   2.43875
 Alpha virt. eigenvalues --    2.48747   2.50983   2.52299   2.54173   2.55295
 Alpha virt. eigenvalues --    2.57892   2.60601   2.62154   2.64607   2.67230
 Alpha virt. eigenvalues --    2.69549   2.70109   2.75958   2.77620   2.78492
 Alpha virt. eigenvalues --    2.80769   2.82924   2.83666   2.85617   2.88319
 Alpha virt. eigenvalues --    2.90759   2.94073   2.95407   2.97368   3.00967
 Alpha virt. eigenvalues --    3.02027   3.04068   3.05605   3.11121   3.12817
 Alpha virt. eigenvalues --    3.14382   3.17048   3.19070   3.22095   3.22762
 Alpha virt. eigenvalues --    3.24297   3.27147   3.28297   3.34119   3.35511
 Alpha virt. eigenvalues --    3.38573   3.41008   3.42773   3.44513   3.47229
 Alpha virt. eigenvalues --    3.48929   3.51440   3.57472   3.62454   3.62562
 Alpha virt. eigenvalues --    3.67989   3.84670   3.88840   3.91154   3.93207
 Alpha virt. eigenvalues --    3.96325   4.01733   4.03392   4.07853   4.10755
 Alpha virt. eigenvalues --    4.15253   4.17260   4.25320   4.29502   4.32055
 Alpha virt. eigenvalues --    4.37815   4.43234   4.47654   4.53695   4.64349
 Alpha virt. eigenvalues --    4.66112   4.71576   4.80356   4.84950   4.86110
 Alpha virt. eigenvalues --    5.05176   5.14246   5.23953   5.28088   5.49991
 Alpha virt. eigenvalues --    5.59901   5.97225   6.19536   6.31934   6.49441
 Alpha virt. eigenvalues --    6.71473   6.77039   6.95622   7.07089  22.05302
 Alpha virt. eigenvalues --   22.33393  22.49409  22.69325  22.86798  43.79846
          Condensed to atoms (all electrons):
               1          2          3          4          5          6
     1  C    4.875406   0.491074   0.470500   0.419760  -0.051030  -0.047994
     2  C    0.491074   4.998059  -0.035769  -0.041595   0.418475   0.009258
     3  C    0.470500  -0.035769   5.232127  -0.048410   0.007527   0.409808
     4  H    0.419760  -0.041595  -0.048410   0.537497  -0.005128  -0.006868
     5  H   -0.051030   0.418475   0.007527  -0.005128   0.561425  -0.000194
     6  H   -0.047994   0.009258   0.409808  -0.006868  -0.000194   0.559657
     7  C   -0.024026  -0.052871   0.426642   0.002750  -0.002322  -0.038374
     8  C   -0.084252   0.501147  -0.003389   0.010667  -0.040791  -0.000022
     9  H    0.001394  -0.004508  -0.105114  -0.000802   0.000052  -0.000725
    10  O   -0.011856  -0.025337  -0.126369  -0.000820   0.000923   0.005818
    11  H    0.010226  -0.043354  -0.000456  -0.000236  -0.006420   0.000015
    12  H   -0.032685  -0.025631   0.030273  -0.000014   0.006140   0.000078
               7          8          9         10         11         12
     1  C   -0.024026  -0.084252   0.001394  -0.011856   0.010226  -0.032685
     2  C   -0.052871   0.501147  -0.004508  -0.025337  -0.043354  -0.025631
     3  C    0.426642  -0.003389  -0.105114  -0.126369  -0.000456   0.030273
     4  H    0.002750   0.010667  -0.000802  -0.000820  -0.000236  -0.000014
     5  H   -0.002322  -0.040791   0.000052   0.000923  -0.006420   0.006140
     6  H   -0.038374  -0.000022  -0.000725   0.005818   0.000015   0.000078
     7  C    4.670150  -0.045456   0.414976   0.498785   0.001185  -0.010661
     8  C   -0.045456   4.840777   0.003701   0.070518   0.397697   0.428725
     9  H    0.414976   0.003701   0.638108  -0.037519  -0.000066  -0.001535
    10  O    0.498785   0.070518  -0.037519   8.002321  -0.002436  -0.050664
    11  H    0.001185   0.397697  -0.000066  -0.002436   0.555458  -0.031610
    12  H   -0.010661   0.428725  -0.001535  -0.050664  -0.031610   0.547409
 Mulliken charges:
               1
     1  C   -0.016517
     2  C   -0.188948
     3  C   -0.257372
     4  H    0.133199
     5  H    0.111346
     6  H    0.109543
     7  C    0.159222
     8  C   -0.079320
     9  H    0.092037
    10  O   -0.323363
    11  H    0.119996
    12  H    0.140176
 Sum of Mulliken charges =  -0.00000
 Mulliken charges with hydrogens summed into heavy atoms:
               1
     1  C    0.116682
     2  C   -0.077602
     3  C   -0.147829
     7  C    0.251260
     8  C    0.180851
    10  O   -0.323363
 Electronic spatial extent (au):  <R**2>=            798.9457
 Charge=             -0.0000 electrons
 Dipole moment (field-independent basis, Debye):
    X=             -1.6347    Y=             -0.5151    Z=             -0.6939  Tot=              1.8491
 Quadrupole moment (field-independent basis, Debye-Ang):
   XX=            -40.2409   YY=            -37.7164   ZZ=            -32.7300
   XY=             -2.1002   XZ=             -3.5262   YZ=             -2.0869
 Traceless Quadrupole moment (field-independent basis, Debye-Ang):
   XX=             -3.3451   YY=             -0.8206   ZZ=              4.1657
   XY=             -2.1002   XZ=             -3.5262   YZ=             -2.0869
 Octapole moment (field-independent basis, Debye-Ang**2):
  XXX=           -147.3677  YYY=            -10.6839  ZZZ=            -58.1721  XYY=            -43.6160
  XXY=             -5.8948  XXZ=            -36.6665  XZZ=            -43.2801  YZZ=             -5.1359
  YYZ=            -22.7745  XYZ=             -7.2956
 Hexadecapole moment (field-independent basis, Debye-Ang**3):
 XXXX=           -659.3897 YYYY=            -76.8193 ZZZZ=           -329.2402 XXXY=            -40.2385
 XXXZ=           -120.5180 YYYX=            -35.1188 YYYZ=              8.7576 ZZZX=            -64.4726
 ZZZY=              9.2329 XXYY=           -114.4759 XXZZ=           -171.3308 YYZZ=            -78.2899
 XXYZ=            -12.5845 YYXZ=            -24.4159 ZZXY=            -19.3296
 N-N= 2.184127185780D+02 E-N=-1.064278058319D+03  KE= 2.680565337297D+02
 1\1\GINC-BHC0019\FTS\RB3LYP\def2TZVP\C5H6O1\DHANAWAY\18-Mar-2022\1\\# 
 Opt=(TS, CalcFC, noeigentest, Z-matrix, MaxStep=10) geom=allcheckpoint
  guess=read Field=read NoSymm B3LYP/Def2TZVP\\ts_zmat_initalOpt\\0,1\C
 \C,1,R2\C,1,R3,2,A3\H,1,R4,2,A4,3,D4,0\H,2,R5,1,A5,3,D5,0\H,3,R6,1,A6,
 2,D6,0\C,3,R7,1,A7,6,D7,0\C,2,R8,1,A8,5,D8,0\H,7,R9,3,A9,1,D9,0\O,7,R1
 0,3,A10,9,D10,0\H,8,R11,2,A11,1,D11,0\H,8,R12,2,A12,11,D12,0\\R2=1.385
 45853\R3=1.4023379\R4=1.08533308\R5=1.08268257\R6=1.08126661\R7=1.4067
 9411\R8=1.39327738\R9=1.09706133\R10=1.26342737\R11=1.0827622\R12=1.08
 13177\A3=120.69692286\A4=120.23845909\A5=121.07200544\A6=119.67677611\
 A7=119.03999033\A8=117.11979823\A9=115.64576247\A10=128.31465044\A11=1
 20.71330043\A12=118.33854681\D4=-169.58850542\D5=150.85520002\D6=-178.
 26897151\D7=155.08675018\D8=-171.33823372\D9=-143.7648966\D10=171.3933
 8331\D11=163.9232459\D12=151.71251857\\Version=ES64L-G16RevA.03\HF=-26
 9.3941881\RMSD=3.996e-09\RMSF=2.550e-04\Dipole=-0.6431426,-0.2026407,-
 0.2729983\Quadrupole=-2.4870296,-0.6100885,3.0971181,-1.5614784,-2.621
 6615,-1.5515694\PG=C01 [X(C5H6O1)]\\@


 WOMEN HOLD UP HALF THE SKY. -- MAO TSE TUNG
 Job cpu time:       0 days  0 hours 36 minutes 56.0 seconds.
 Elapsed time:       0 days  0 hours  3 minutes 19.4 seconds.
 File lengths (MBytes):  RWF=     53 Int=      0 D2E=      0 Chk=     32 Scr=      1
 Normal termination of Gaussian 16 at Fri Mar 18 14:20:26 2022.
