 Entering Gaussian System, Link 0=g16
 Input=ts_zmat_field_N25.gjf
 Output=ts_zmat_field_N25.out
 Initial command:
 /software/gaussian/g16-a03/l1.exe "/local_scratch/9896847/Gau-18581.inp" -scrdir="/local_scratch/9896847/"
 Entering Link 1 = /software/gaussian/g16-a03/l1.exe PID=     18582.
  
 Copyright (c) 1988,1990,1992,1993,1995,1998,2003,2009,2016,
            Gaussian, Inc.  All Rights Reserved.
  
 This is part of the Gaussian(R) 16 program.  It is based on
 the Gaussian(R) 09 system (copyright 2009, Gaussian, Inc.),
 the Gaussian(R) 03 system (copyright 2003, Gaussian, Inc.),
 the Gaussian(R) 98 system (copyright 1998, Gaussian, Inc.),
 the Gaussian(R) 94 system (copyright 1995, Gaussian, Inc.),
 the Gaussian 92(TM) system (copyright 1992, Gaussian, Inc.),
 the Gaussian 90(TM) system (copyright 1990, Gaussian, Inc.),
 the Gaussian 88(TM) system (copyright 1988, Gaussian, Inc.),
 the Gaussian 86(TM) system (copyright 1986, Carnegie Mellon
 University), and the Gaussian 82(TM) system (copyright 1983,
 Carnegie Mellon University). Gaussian is a federally registered
 trademark of Gaussian, Inc.
  
 This software contains proprietary and confidential information,
 including trade secrets, belonging to Gaussian, Inc.
  
 This software is provided under written license and may be
 used, copied, transmitted, or stored only in accord with that
 written license.
  
 The following legend is applicable only to US Government
 contracts under FAR:
  
                    RESTRICTED RIGHTS LEGEND
  
 Use, reproduction and disclosure by the US Government is
 subject to restrictions as set forth in subparagraphs (a)
 and (c) of the Commercial Computer Software - Restricted
 Rights clause in FAR 52.227-19.
  
 Gaussian, Inc.
 340 Quinnipiac St., Bldg. 40, Wallingford CT 06492
  
  
 ---------------------------------------------------------------
 Warning -- This program may not be used in any manner that
 competes with the business of Gaussian, Inc. or will provide
 assistance to any competitor of Gaussian, Inc.  The licensee
 of this program is prohibited from giving any competitor of
 Gaussian, Inc. access to this program.  By using this program,
 the user acknowledges that Gaussian, Inc. is engaged in the
 business of creating and licensing software in the field of
 computational chemistry and represents and warrants to the
 licensee that it is not a competitor of Gaussian, Inc. and that
 it will not use this program in any manner prohibited above.
 ---------------------------------------------------------------
  

 Cite this work as:
 Gaussian 16, Revision A.03,
 M. J. Frisch, G. W. Trucks, H. B. Schlegel, G. E. Scuseria, 
 M. A. Robb, J. R. Cheeseman, G. Scalmani, V. Barone, 
 G. A. Petersson, H. Nakatsuji, X. Li, M. Caricato, A. V. Marenich, 
 J. Bloino, B. G. Janesko, R. Gomperts, B. Mennucci, H. P. Hratchian, 
 J. V. Ortiz, A. F. Izmaylov, J. L. Sonnenberg, D. Williams-Young, 
 F. Ding, F. Lipparini, F. Egidi, J. Goings, B. Peng, A. Petrone, 
 T. Henderson, D. Ranasinghe, V. G. Zakrzewski, J. Gao, N. Rega, 
 G. Zheng, W. Liang, M. Hada, M. Ehara, K. Toyota, R. Fukuda, 
 J. Hasegawa, M. Ishida, T. Nakajima, Y. Honda, O. Kitao, H. Nakai, 
 T. Vreven, K. Throssell, J. A. Montgomery, Jr., J. E. Peralta, 
 F. Ogliaro, M. J. Bearpark, J. J. Heyd, E. N. Brothers, K. N. Kudin, 
 V. N. Staroverov, T. A. Keith, R. Kobayashi, J. Normand, 
 K. Raghavachari, A. P. Rendell, J. C. Burant, S. S. Iyengar, 
 J. Tomasi, M. Cossi, J. M. Millam, M. Klene, C. Adamo, R. Cammi, 
 J. W. Ochterski, R. L. Martin, K. Morokuma, O. Farkas, 
 J. B. Foresman, and D. J. Fox, Gaussian, Inc., Wallingford CT, 2016.
 
 ******************************************
 Gaussian 16:  ES64L-G16RevA.03 25-Dec-2016
                18-Mar-2022 
 ******************************************
 %nprocshared=12
 Will use up to   12 processors via shared memory.
 %chk=checkpoint.chk
 %mem=12GB
 ----------------------------------------------------------------------
 # Opt=(TS, CalcFC, noeigentest, Z-matrix, MaxStep=10) Field=read NoSym
 m B3LYP/Def2TZVP
 ----------------------------------------------------------------------
 1/5=1,8=10,10=4,11=1,18=40,26=3,38=1/1,3;
 2/12=2,15=1,17=6,18=5,29=3,40=1/2;
 3/5=44,7=101,11=2,14=-6,25=1,30=1,71=2,74=-5,140=1/1,2,3;
 4//1;
 5/5=2,38=5/2;
 8/6=4,10=90,11=11/1;
 11/6=1,8=1,9=11,15=111,16=1,31=1/1,2,10;
 10/6=1,13=1,31=1/2;
 6/7=2,8=2,9=2,10=2,28=1/1;
 7/10=1,18=20,25=1,30=1/1,2,3,16;
 1/5=1,8=10,10=4,11=1,18=40,26=3/3(2);
 2/15=1,29=3/2;
 99//99;
 2/15=1,29=3/2;
 3/5=44,7=101,11=2,14=-2,25=1,30=1,71=1,74=-5/1,2,3;
 4/5=5,16=3,69=1/1;
 5/5=2,38=5/2;
 7/30=1/1,2,3,16;
 1/5=1,8=10,11=1,18=40,26=3/3(-5);
 2/15=1,29=3/2;
 6/7=2,8=2,9=2,10=2,19=2,28=1/1;
 99/9=1/99;
 -----------------
 ts_zmat_initalOpt
 -----------------
 Symbolic Z-matrix:
 Charge =  0 Multiplicity = 1
 C
 C                    1    R2
 C                    1    R3       2    A3
 H                    1    R4       2    A4       3    D4       0
 H                    2    R5       1    A5       3    D5       0
 H                    3    R6       1    A6       2    D6       0
 C                    3    R7       1    A7       6    D7       0
 C                    2    R8       1    A8       5    D8       0
 H                    7    R9       3    A9       1    D9       0
 O                    7    R10      3    A10      9    D10      0
 H                    8    R11      2    A11      1    D11      0
 H                    8    R12      2    A12      11   D12      0
       Variables:
  R2                    1.38897                  
  R3                    1.39888                  
  R4                    1.08604                  
  R5                    1.08301                  
  R6                    1.08157                  
  R7                    1.41318                  
  R8                    1.39155                  
  R9                    1.09689                  
  R10                   1.25677                  
  R11                   1.08254                  
  R12                   1.08113                  
  A3                  120.8886                   
  A4                  120.00861                  
  A5                  120.74978                  
  A6                  119.66859                  
  A7                  118.97527                  
  A8                  117.32015                  
  A9                  115.63488                  
  A10                 128.07093                  
  A11                 120.84504                  
  A12                 118.50256                  
  D4                 -168.74001                  
  D5                  148.50587                  
  D6                 -176.82555                  
  D7                  154.18448                  
  D8                 -169.69548                  
  D9                 -142.96181                  
  D10                 171.43426                  
  D11                 163.18628                  
  D12                 152.61335                  
 

 GradGradGradGradGradGradGradGradGradGradGradGradGradGradGradGradGradGrad
 Berny optimization.
 Initialization pass.
                       ----------------------------
                       !    Initial Parameters    !
                       ! (Angstroms and Degrees)  !
 ----------------------                            ----------------------
 !      Name          Value   Derivative information (Atomic Units)     !
 ------------------------------------------------------------------------
 !       R2          1.389    calculate D2E/DX2 analytically            !
 !       R3          1.3989   calculate D2E/DX2 analytically            !
 !       R4          1.086    calculate D2E/DX2 analytically            !
 !       R5          1.083    calculate D2E/DX2 analytically            !
 !       R6          1.0816   calculate D2E/DX2 analytically            !
 !       R7          1.4132   calculate D2E/DX2 analytically            !
 !       R8          1.3915   calculate D2E/DX2 analytically            !
 !       R9          1.0969   calculate D2E/DX2 analytically            !
 !       R10         1.2568   calculate D2E/DX2 analytically            !
 !       R11         1.0825   calculate D2E/DX2 analytically            !
 !       R12         1.0811   calculate D2E/DX2 analytically            !
 !       A3        120.8886   calculate D2E/DX2 analytically            !
 !       A4        120.0086   calculate D2E/DX2 analytically            !
 !       A5        120.7498   calculate D2E/DX2 analytically            !
 !       A6        119.6686   calculate D2E/DX2 analytically            !
 !       A7        118.9753   calculate D2E/DX2 analytically            !
 !       A8        117.3201   calculate D2E/DX2 analytically            !
 !       A9        115.6349   calculate D2E/DX2 analytically            !
 !       A10       128.0709   calculate D2E/DX2 analytically            !
 !       A11       120.845    calculate D2E/DX2 analytically            !
 !       A12       118.5026   calculate D2E/DX2 analytically            !
 !       D4       -168.74     calculate D2E/DX2 analytically            !
 !       D5        148.5059   calculate D2E/DX2 analytically            !
 !       D6       -176.8255   calculate D2E/DX2 analytically            !
 !       D7        154.1845   calculate D2E/DX2 analytically            !
 !       D8       -169.6955   calculate D2E/DX2 analytically            !
 !       D9       -142.9618   calculate D2E/DX2 analytically            !
 !       D10       171.4343   calculate D2E/DX2 analytically            !
 !       D11       163.1863   calculate D2E/DX2 analytically            !
 !       D12       152.6134   calculate D2E/DX2 analytically            !
 ------------------------------------------------------------------------
 Trust Radius=1.00D-01 FncErr=1.00D-07 GrdErr=1.00D-06 EigMax=2.50D+02 EigMin=1.00D-04
 Number of steps in this run=     40 maximum allowed number of steps=    100.
 Search for a saddle point of order  1.
 GradGradGradGradGradGradGradGradGradGradGradGradGradGradGradGradGradGrad

 ---------------------------------------------------------------------------------------------------
                            Z-MATRIX (ANGSTROMS AND DEGREES)
   CD    Cent   Atom    N1       Length/X        N2       Alpha/Y        N3        Beta/Z          J
 ---------------------------------------------------------------------------------------------------
      1      1  C 
      2      2  C        1   1.388974(     1)
      3      3  C        1   1.398883(     2)      2  120.889(    12)
      4      4  H        1   1.086045(     3)      2  120.009(    13)      3 -168.740(    22)      0
      5      5  H        2   1.083006(     4)      1  120.750(    14)      3  148.506(    23)      0
      6      6  H        3   1.081565(     5)      1  119.669(    15)      2 -176.826(    24)      0
      7      7  C        3   1.413178(     6)      1  118.975(    16)      6  154.184(    25)      0
      8      8  C        2   1.391548(     7)      1  117.320(    17)      5 -169.695(    26)      0
      9      9  H        7   1.096888(     8)      3  115.635(    18)      1 -142.962(    27)      0
     10     10  O        7   1.256770(     9)      3  128.071(    19)      9  171.434(    28)      0
     11     11  H        8   1.082539(    10)      2  120.845(    20)      1  163.186(    29)      0
     12     12  H        8   1.081125(    11)      2  118.503(    21)     11  152.613(    30)      0
 ---------------------------------------------------------------------------------------------------
                         Z-Matrix orientation:                         
 ---------------------------------------------------------------------
 Center     Atomic      Atomic             Coordinates (Angstroms)
 Number     Number       Type             X           Y           Z
 ---------------------------------------------------------------------
      1          6           0        0.000000    0.000000    0.000000
      2          6           0        0.000000    0.000000    1.388974
      3          6           0        1.200475    0.000000   -0.718145
      4          1           0       -0.922358    0.183636   -0.543164
      5          1           0       -0.793640    0.486231    1.942704
      6          1           0        1.178187    0.052041   -1.798228
      7          6           0        2.373730    0.475918   -0.090412
      8          6           0        1.152740   -0.446878    2.027642
      9          1           0        3.061441    1.038291   -0.733804
     10          8           0        2.657027    0.463768    1.133951
     11          1           0        1.328975   -0.226858    3.072832
     12          1           0        1.632170   -1.343140    1.659276
 ---------------------------------------------------------------------
                    Distance matrix (angstroms):
                    1          2          3          4          5
     1  C    0.000000
     2  C    1.388974   0.000000
     3  C    1.398883   2.425096   0.000000
     4  H    1.086045   2.148866   2.137934   0.000000
     5  H    2.154155   1.083006   3.360511   2.507523   0.000000
     6  H    2.150455   3.398395   1.081565   2.450468   4.251022
     7  C    2.422656   2.837195   1.413178   3.339851   3.763761
     8  C    2.374835   1.391548   2.782323   3.363424   2.160162
     9  H    3.314956   3.867383   2.131076   4.078901   4.725474
    10  O    2.925871   2.709227   2.401434   3.962725   3.544247
    11  H    3.355583   2.157085   3.799932   4.279303   2.508223
    12  H    2.687229   2.130978   2.764511   3.702351   3.051472
                    6          7          8          9         10
     6  H    0.000000
     7  C    2.127352   0.000000
     8  C    3.858347   2.613144   0.000000
     9  H    2.377463   1.096888   3.670756   0.000000
    10  O    3.309707   1.256770   1.972521   1.995529   0.000000
    11  H    4.881367   3.404632   1.082539   4.369498   2.449479
    12  H    3.755924   2.630645   1.081125   3.666178   2.142713
                   11         12
    11  H    0.000000
    12  H    1.826514   0.000000
 Symmetry turned off by external request.
 Stoichiometry    C5H6O
 Framework group  C1[X(C5H6O)]
 Deg. of freedom    30
 Full point group                 C1      NOp   1
 Rotational constants (GHZ):           5.5367278           4.6725769           2.7070362
 Standard basis: def2TZVP (5D, 7F)
 The following finite field(s) will be applied:
 An electric field of              0.0017  0.0017  0.0007
   222 basis functions,   354 primitive gaussians,   252 cartesian basis functions
    22 alpha electrons       22 beta electrons
       nuclear repulsion energy       217.8751587660 Hartrees.
 NAtoms=   12 NActive=   12 NUniq=   12 SFac= 1.00D+00 NAtFMM=   60 NAOKFM=F Big=F
 Integral buffers will be    131072 words long.
 Raffenetti 2 integral format.
 Two-electron integral symmetry is turned off.
 One-electron integrals computed using PRISM.
   1 Symmetry operations used in ECPInt.
 ECPInt:  NShTT=    4095 NPrTT=   12396 LenC2=    4075 LenP2D=   10363.
 LDataN:  DoStor=T MaxTD1= 6 Len=  172
 NBasis=   222 RedAO= T EigKep=  1.17D-04  NBF=   222
 NBsUse=   222 1.00D-06 EigRej= -1.00D+00 NBFU=   222
 The nuclear repulsion energy is now       218.1031568353 hartrees.
 ExpMin= 9.52D-02 ExpMax= 2.70D+04 ExpMxC= 9.22D+02 IAcc=3 IRadAn=         5 AccDes= 0.00D+00
 Harris functional with IExCor=  402 and IRadAn=       5 diagonalized for initial guess.
 HarFok:  IExCor=  402 AccDes= 0.00D+00 IRadAn=         5 IDoV= 1 UseB2=F ITyADJ=14
 ICtDFT=  3500011 ScaDFX=  1.000000  1.000000  1.000000  1.000000
 FoFCou: FMM=F IPFlag=           0 FMFlag=      100000 FMFlg1=           0
         NFxFlg=           0 DoJE=T BraDBF=F KetDBF=T FulRan=T
         wScrn=  0.000000 ICntrl=       500 IOpCl=  0 I1Cent=   200000004 NGrid=           0
         NMat0=    1 NMatS0=      1 NMatT0=    0 NMatD0=    1 NMtDS0=    0 NMtDT0=    0
 Symmetry not used in FoFCou.
 Keep R1 ints in memory in canonical form, NReq=319363861.
 Requested convergence on RMS density matrix=1.00D-08 within 128 cycles.
 Requested convergence on MAX density matrix=1.00D-06.
 Requested convergence on             energy=1.00D-06.
 No special actions if energy rises.
 Integral accuracy reduced to 1.0D-05 until final iterations.
 Initial convergence to 1.0D-05 achieved.  Increase integral accuracy.
 SCF Done:  E(RB3LYP) =  -269.392753624     A.U. after   14 cycles
            NFock= 14  Conv=0.84D-08     -V/T= 2.0050
 DoSCS=F DFT=T ScalE2(SS,OS)=  1.000000  1.000000
 Range of M.O.s used for correlation:     1   222
 NBasis=   222 NAE=    22 NBE=    22 NFC=     0 NFV=     0
 NROrb=    222 NOA=    22 NOB=    22 NVA=   200 NVB=   200

 **** Warning!!: The largest alpha MO coefficient is  0.19338539D+02

   1 Symmetry operations used in ECPInt.
 ECPInt:  NShTT=    4095 NPrTT=   12396 LenC2=    4075 LenP2D=   10363.
 LDataN:  DoStor=T MaxTD1= 7 Len=  274
 Symmetrizing basis deriv contribution to polar:
 IMax=3 JMax=2 DiffMx= 0.00D+00
 G2DrvN: will do    13 centers at a time, making    1 passes.
 Calling FoFCou, ICntrl=  3107 FMM=F I1Cent=   0 AccDes= 0.00D+00.
 End of G2Drv F.D. properties file   721 does not exist.
 End of G2Drv F.D. properties file   722 does not exist.
 End of G2Drv F.D. properties file   788 does not exist.
          IDoAtm=111111111111
          Differentiating once with respect to nuclear coordinates.
 Keep R1 ints in memory in canonical form, NReq=319333990.
          There are    39 degrees of freedom in the 1st order CPHF.  IDoFFX=6 NUNeed=     0.
     33 vectors produced by pass  0 Test12= 1.13D-14 2.56D-09 XBig12= 1.45D-01 1.66D-01.
 AX will form    33 AO Fock derivatives at one time.
     33 vectors produced by pass  1 Test12= 1.13D-14 2.56D-09 XBig12= 1.88D-02 4.48D-02.
     33 vectors produced by pass  2 Test12= 1.13D-14 2.56D-09 XBig12= 2.58D-04 3.34D-03.
     33 vectors produced by pass  3 Test12= 1.13D-14 2.56D-09 XBig12= 1.07D-06 1.57D-04.
     33 vectors produced by pass  4 Test12= 1.13D-14 2.56D-09 XBig12= 2.63D-09 7.25D-06.
     31 vectors produced by pass  5 Test12= 1.13D-14 2.56D-09 XBig12= 5.12D-12 3.02D-07.
      9 vectors produced by pass  6 Test12= 1.13D-14 2.56D-09 XBig12= 7.61D-15 1.23D-08.
 InvSVY:  IOpt=1 It=  1 EMax= 2.44D-15
 Solved reduced A of dimension   205 with    33 vectors.
 End of Minotr F.D. properties file   721 does not exist.
 End of Minotr F.D. properties file   722 does not exist.
 End of Minotr F.D. properties file   788 does not exist.

 **********************************************************************

            Population analysis using the SCF density.

 **********************************************************************

 Alpha  occ. eigenvalues --  -19.14751 -10.25789 -10.22490 -10.20060 -10.17606
 Alpha  occ. eigenvalues --  -10.17204  -1.05292  -0.83282  -0.76122  -0.67151
 Alpha  occ. eigenvalues --   -0.61245  -0.53184  -0.51420  -0.47513  -0.46447
 Alpha  occ. eigenvalues --   -0.44748  -0.40148  -0.38683  -0.38023  -0.33091
 Alpha  occ. eigenvalues --   -0.29387  -0.21983
 Alpha virt. eigenvalues --   -0.07337  -0.00407   0.04262   0.05122   0.06808
 Alpha virt. eigenvalues --    0.07492   0.09107   0.11023   0.12026   0.15140
 Alpha virt. eigenvalues --    0.17596   0.19470   0.19879   0.21284   0.21795
 Alpha virt. eigenvalues --    0.22208   0.24415   0.26930   0.27608   0.28662
 Alpha virt. eigenvalues --    0.30066   0.32901   0.33391   0.35718   0.37580
 Alpha virt. eigenvalues --    0.39544   0.40014   0.41855   0.42495   0.43342
 Alpha virt. eigenvalues --    0.43873   0.44702   0.45217   0.47570   0.49466
 Alpha virt. eigenvalues --    0.52127   0.53357   0.54533   0.56511   0.57910
 Alpha virt. eigenvalues --    0.61636   0.65385   0.68374   0.69045   0.75069
 Alpha virt. eigenvalues --    0.79586   0.81827   0.86451   0.86729   0.89175
 Alpha virt. eigenvalues --    0.92336   0.93572   0.95808   0.96527   0.97567
 Alpha virt. eigenvalues --    1.00787   1.03358   1.06763   1.10303   1.11683
 Alpha virt. eigenvalues --    1.14424   1.16832   1.19131   1.22965   1.23162
 Alpha virt. eigenvalues --    1.28571   1.30833   1.33881   1.38795   1.39464
 Alpha virt. eigenvalues --    1.42456   1.43490   1.46031   1.47318   1.50964
 Alpha virt. eigenvalues --    1.52962   1.57221   1.59567   1.62833   1.64537
 Alpha virt. eigenvalues --    1.66463   1.68189   1.73482   1.77380   1.78155
 Alpha virt. eigenvalues --    1.80654   1.82344   1.85252   1.87751   1.91352
 Alpha virt. eigenvalues --    1.94197   1.96661   2.04877   2.06481   2.09948
 Alpha virt. eigenvalues --    2.14588   2.15396   2.19262   2.20254   2.25684
 Alpha virt. eigenvalues --    2.27602   2.31862   2.37530   2.40476   2.43966
 Alpha virt. eigenvalues --    2.49271   2.51642   2.52636   2.53874   2.55616
 Alpha virt. eigenvalues --    2.58697   2.61060   2.62672   2.65114   2.67469
 Alpha virt. eigenvalues --    2.69982   2.70530   2.76483   2.77815   2.79423
 Alpha virt. eigenvalues --    2.81382   2.83366   2.83864   2.86096   2.89127
 Alpha virt. eigenvalues --    2.91219   2.94335   2.96332   2.97688   3.01451
 Alpha virt. eigenvalues --    3.02423   3.04099   3.06252   3.11621   3.13036
 Alpha virt. eigenvalues --    3.14622   3.17092   3.19284   3.22446   3.23332
 Alpha virt. eigenvalues --    3.24412   3.27281   3.28475   3.34908   3.35646
 Alpha virt. eigenvalues --    3.38896   3.41190   3.43223   3.45396   3.48063
 Alpha virt. eigenvalues --    3.49151   3.51992   3.57707   3.62677   3.63039
 Alpha virt. eigenvalues --    3.67880   3.84780   3.89499   3.91387   3.93778
 Alpha virt. eigenvalues --    3.96915   4.01975   4.03179   4.08110   4.11110
 Alpha virt. eigenvalues --    4.15747   4.17429   4.25424   4.30371   4.32014
 Alpha virt. eigenvalues --    4.38329   4.43657   4.47137   4.53946   4.64274
 Alpha virt. eigenvalues --    4.66571   4.72229   4.80884   4.85249   4.86360
 Alpha virt. eigenvalues --    5.04715   5.14249   5.24443   5.28330   5.51458
 Alpha virt. eigenvalues --    5.61291   5.99056   6.21390   6.33806   6.49815
 Alpha virt. eigenvalues --    6.72002   6.77884   6.96818   7.07723  22.05535
 Alpha virt. eigenvalues --   22.33355  22.50657  22.69552  22.86836  43.80329
          Condensed to atoms (all electrons):
               1          2          3          4          5          6
     1  C    4.889232   0.482610   0.473138   0.416492  -0.052513  -0.051161
     2  C    0.482610   5.000808  -0.034242  -0.041623   0.414972   0.009528
     3  C    0.473138  -0.034242   5.240017  -0.048770   0.006870   0.409204
     4  H    0.416492  -0.041623  -0.048770   0.551339  -0.004622  -0.007525
     5  H   -0.052513   0.414972   0.006870  -0.004622   0.565252  -0.000206
     6  H   -0.051161   0.009528   0.409204  -0.007525  -0.000206   0.567119
     7  C   -0.020896  -0.051267   0.415851   0.002246  -0.002459  -0.037138
     8  C   -0.087572   0.510916  -0.001923   0.010560  -0.037490  -0.000069
     9  H    0.002791  -0.005419  -0.107663  -0.000852   0.000017  -0.000237
    10  O   -0.009431  -0.026478  -0.125962  -0.000905   0.000716   0.005812
    11  H    0.010332  -0.041550  -0.000562  -0.000253  -0.006762   0.000017
    12  H   -0.033454  -0.028076   0.030801   0.000088   0.006541   0.000037
               7          8          9         10         11         12
     1  C   -0.020896  -0.087572   0.002791  -0.009431   0.010332  -0.033454
     2  C   -0.051267   0.510916  -0.005419  -0.026478  -0.041550  -0.028076
     3  C    0.415851  -0.001923  -0.107663  -0.125962  -0.000562   0.030801
     4  H    0.002246   0.010560  -0.000852  -0.000905  -0.000253   0.000088
     5  H   -0.002459  -0.037490   0.000017   0.000716  -0.006762   0.006541
     6  H   -0.037138  -0.000069  -0.000237   0.005812   0.000017   0.000037
     7  C    4.664066  -0.046952   0.417840   0.507801   0.001338  -0.011661
     8  C   -0.046952   4.838646   0.003646   0.069920   0.398545   0.429978
     9  H    0.417840   0.003646   0.626929  -0.036206  -0.000026  -0.001656
    10  O    0.507801   0.069920  -0.036206   7.975453  -0.001825  -0.050788
    11  H    0.001338   0.398545  -0.000026  -0.001825   0.545086  -0.031173
    12  H   -0.011661   0.429978  -0.001656  -0.050788  -0.031173   0.553580
 Mulliken charges:
               1
     1  C   -0.019567
     2  C   -0.190179
     3  C   -0.256758
     4  H    0.123826
     5  H    0.109684
     6  H    0.104620
     7  C    0.161232
     8  C   -0.088206
     9  H    0.100837
    10  O   -0.308108
    11  H    0.126834
    12  H    0.135784
 Sum of Mulliken charges =  -0.00000
 Mulliken charges with hydrogens summed into heavy atoms:
               1
     1  C    0.104259
     2  C   -0.080494
     3  C   -0.152138
     7  C    0.262069
     8  C    0.174412
    10  O   -0.308108
 APT charges:
               1
     1  C   -0.362358
     2  C   -0.478534
     3  C   -0.512520
     4  H    0.280312
     5  H    0.381143
     6  H    0.371293
     7  C   -0.419995
     8  C   -0.688275
     9  H    0.549144
    10  O   -0.078884
    11  H    0.618990
    12  H    0.339685
 Sum of APT charges =  -0.00000
 APT charges with hydrogens summed into heavy atoms:
               1
     1  C   -0.082047
     2  C   -0.097391
     3  C   -0.141227
     7  C    0.129149
     8  C    0.270400
    10  O   -0.078884
 Electronic spatial extent (au):  <R**2>=            798.5674
 Charge=             -0.0000 electrons
 Dipole moment (field-independent basis, Debye):
    X=             -1.2699    Y=             -0.2201    Z=             -0.6141  Tot=              1.4276
 Quadrupole moment (field-independent basis, Debye-Ang):
   XX=            -39.4604   YY=            -37.5608   ZZ=            -32.7326
   XY=             -1.6796   XZ=             -3.2331   YZ=             -1.8982
 Traceless Quadrupole moment (field-independent basis, Debye-Ang):
   XX=             -2.8758   YY=             -0.9762   ZZ=              3.8520
   XY=             -1.6796   XZ=             -3.2331   YZ=             -1.8982
 Octapole moment (field-independent basis, Debye-Ang**2):
  XXX=           -144.1047  YYY=             -9.3059  ZZZ=            -57.8008  XYY=            -42.9549
  XXY=             -4.3301  XXZ=            -36.2108  XZZ=            -42.4463  YZZ=             -4.1938
  YYZ=            -22.6371  XYZ=             -7.0928
 Hexadecapole moment (field-independent basis, Debye-Ang**3):
 XXXX=           -649.5920 YYYY=            -75.9380 ZZZZ=           -329.5903 XXXY=            -34.6651
 XXXZ=           -118.7750 YYYX=            -32.2155 YYYZ=             10.3557 ZZZX=            -62.4090
 ZZZY=             11.2206 XXYY=           -112.5992 XXZZ=           -170.1312 YYZZ=            -78.1793
 XXYZ=            -11.3646 YYXZ=            -23.9907 ZZXY=            -18.0001
 N-N= 2.181031568353D+02 E-N=-1.063869728561D+03  KE= 2.680636591874D+02
  Exact polarizability:   0.000   0.000   0.000   0.000   0.000   0.000
 Approx polarizability: 133.553  12.807  67.810  -3.125  -6.900 130.616
   1 Symmetry operations used in ECPInt.
 ECPInt:  NShTT=    4095 NPrTT=   12396 LenC2=    4075 LenP2D=   10363.
 LDataN:  DoStor=T MaxTD1= 8 Len=  415
 Calling FoFJK, ICntrl=    100147 FMM=F ISym2X=0 I1Cent= 0 IOpClX= 0 NMat=1 NMatS=1 NMatT=0.
 -------------------------------------------------------------------
 Center     Atomic                   Forces (Hartrees/Bohr)
 Number     Number              X              Y              Z
 -------------------------------------------------------------------
      1        6          -0.000525443   -0.000063641    0.000218827
      2        6           0.000774596    0.000454929    0.000195648
      3        6           0.001227656    0.000938869    0.000117505
      4        1           0.000129747   -0.000251123    0.000062878
      5        1          -0.000163395   -0.000305342   -0.000048979
      6        1          -0.000079946   -0.000232954    0.000036519
      7        6          -0.001627698   -0.000889259   -0.001630055
      8        6          -0.001289370   -0.000503953   -0.000061111
      9        1           0.000019570    0.000056843   -0.000342395
     10        8           0.001735265    0.000864568    0.001316297
     11        1          -0.000155409   -0.000128657    0.000110962
     12        1          -0.000045571    0.000059719    0.000023904
 -------------------------------------------------------------------
 Cartesian Forces:  Max     0.001735265 RMS     0.000697867
 -----------------------------------------------------------------------------------------------
                       Internal Coordinate Forces (Hartree/Bohr or radian)
  Cent   Atom   N1       Length/X         N2         Alpha/Y        N3         Beta/Z          J
 -----------------------------------------------------------------------------------------------
      1  C 
      2  C        1   0.000220(     1)
      3  C        1   0.001352(     2)      2   0.004911(    12)
      4  H        1  -0.000184(     3)      2   0.000069(    13)      3  -0.000393(    22)     0
      5  H        2  -0.000042(     4)      1  -0.000065(    14)      3  -0.001900(    23)     0
      6  H        3  -0.000046(     5)      1  -0.000152(    15)      2  -0.003212(    24)     0
      7  C        3  -0.000175(     6)      1   0.005340(    16)      6  -0.002798(    25)     0
      8  C        2  -0.001017(     7)      1   0.001802(    17)      5  -0.002508(    26)     0
      9  H        7   0.000242(     8)      3  -0.000509(    18)      1  -0.000427(    27)     0
     10  O        7   0.001665(     9)      3   0.003891(    19)      9  -0.000348(    28)     0
     11  H        8   0.000056(    10)      2  -0.000155(    20)      1   0.000356(    29)     0
     12  H        8  -0.000078(    11)      2  -0.000020(    21)     11  -0.000013(    30)     0
 -----------------------------------------------------------------------------------------------
 Internal  Forces:  Max     0.005340018 RMS     0.001877750

 GradGradGradGradGradGradGradGradGradGradGradGradGradGradGradGradGradGrad
 Berny optimization.
 Search for a saddle point.
 Step number   1 out of a maximum of   40
 All quantities printed in internal units (Hartrees-Bohrs-Radians)
 Swapping is turned off.
 Second derivative matrix not updated -- analytic derivatives used.
 ITU=  0
     Eigenvalues ---   -0.70593   0.02566   0.02801   0.03985   0.04151
     Eigenvalues ---    0.04925   0.10623   0.12646   0.14335   0.16489
     Eigenvalues ---    0.18559   0.19778   0.24850   0.27084   0.29512
     Eigenvalues ---    0.32205   0.34426   0.34908   0.35346   0.35561
     Eigenvalues ---    0.36393   0.39021   0.39961   0.43603   0.46351
     Eigenvalues ---    0.52952   0.57584   0.71073   0.91046   2.74870
 Eigenvectors required to have negative eigenvalues:
                          A7        A3        D12       R8        R10
   1                    0.45994   0.41281   0.30353  -0.27671  -0.26628
                          A8        R7        A10       D11       R2
   1                    0.26515   0.23741   0.22440   0.22438   0.19624
 RFO step:  Lambda0=5.508835994D-05 Lambda=-9.22971620D-05.
 Linear search not attempted -- option 19 set.
 Variable       Old X    -DE/DX   Delta X   Delta X   Delta X     New X
                                 (Linear)    (Quad)   (Total)
    R2        2.62478   0.00022   0.00000  -0.00339  -0.00339   2.62139
    R3        2.64351   0.00135   0.00000   0.00321   0.00321   2.64671
    R4        2.05233  -0.00018   0.00000  -0.00072  -0.00072   2.05160
    R5        2.04658  -0.00004   0.00000  -0.00032  -0.00032   2.04626
    R6        2.04386  -0.00005   0.00000  -0.00030  -0.00030   2.04356
    R7        2.67052  -0.00018   0.00000  -0.00619  -0.00619   2.66433
    R8        2.62964  -0.00102   0.00000   0.00164   0.00164   2.63128
    R9        2.07282   0.00024   0.00000   0.00012   0.00012   2.07294
   R10        2.37495   0.00167   0.00000   0.00617   0.00617   2.38112
   R11        2.04570   0.00006   0.00000   0.00019   0.00019   2.04590
   R12        2.04303  -0.00008   0.00000   0.00017   0.00017   2.04320
    A3        2.10990   0.00491   0.00000  -0.00159  -0.00159   2.10831
    A4        2.09455   0.00007   0.00000   0.00196   0.00196   2.09651
    A5        2.10748  -0.00007   0.00000   0.00290   0.00290   2.11038
    A6        2.08861  -0.00015   0.00000   0.00011   0.00011   2.08872
    A7        2.07651   0.00534   0.00000   0.00053   0.00053   2.07704
    A8        2.04762   0.00180   0.00000  -0.00176  -0.00176   2.04587
    A9        2.01821  -0.00051   0.00000   0.00004   0.00004   2.01825
   A10        2.23526   0.00389   0.00000   0.00217   0.00217   2.23743
   A11        2.10914  -0.00015   0.00000  -0.00115  -0.00115   2.10799
   A12        2.06826  -0.00002   0.00000  -0.00146  -0.00146   2.06680
    D4       -2.94507  -0.00039   0.00000  -0.00712  -0.00712  -2.95219
    D5        2.59192  -0.00190   0.00000   0.02049   0.02049   2.61241
    D6       -3.08619  -0.00321   0.00000  -0.01233  -0.01233  -3.09852
    D7        2.69103  -0.00280   0.00000   0.00780   0.00780   2.69882
    D8       -2.96174  -0.00251   0.00000  -0.01439  -0.01439  -2.97614
    D9       -2.49515  -0.00043   0.00000  -0.00691  -0.00691  -2.50207
   D10        2.99209  -0.00035   0.00000  -0.00053  -0.00053   2.99156
   D11        2.84814   0.00036   0.00000   0.00653   0.00653   2.85467
   D12        2.66361  -0.00001   0.00000  -0.00810  -0.00810   2.65551
         Item               Value     Threshold  Converged?
 Maximum Force            0.005340     0.000450     NO 
 RMS     Force            0.001878     0.000300     NO 
 Maximum Displacement     0.020492     0.001800     NO 
 RMS     Displacement     0.006258     0.001200     NO 
 Predicted change in Energy=-1.865293D-05
 GradGradGradGradGradGradGradGradGradGradGradGradGradGradGradGradGradGrad

 ---------------------------------------------------------------------------------------------------
                            Z-MATRIX (ANGSTROMS AND DEGREES)
   CD    Cent   Atom    N1       Length/X        N2       Alpha/Y        N3        Beta/Z          J
 ---------------------------------------------------------------------------------------------------
      1      1  C 
      2      2  C        1   1.387181(     1)
      3      3  C        1   1.400579(     2)      2  120.797(    12)
      4      4  H        1   1.085661(     3)      2  120.121(    13)      3 -169.148(    22)      0
      5      5  H        2   1.082835(     4)      1  120.916(    14)      3  149.680(    23)      0
      6      6  H        3   1.081406(     5)      1  119.675(    15)      2 -177.532(    24)      0
      7      7  C        3   1.409905(     6)      1  119.006(    16)      6  154.631(    25)      0
      8      8  C        2   1.392414(     7)      1  117.219(    17)      5 -170.520(    26)      0
      9      9  H        7   1.096952(     8)      3  115.637(    18)      1 -143.358(    27)      0
     10     10  O        7   1.260033(     9)      3  128.195(    19)      9  171.404(    28)      0
     11     11  H        8   1.082641(    10)      2  120.779(    20)      1  163.561(    29)      0
     12     12  H        8   1.081214(    11)      2  118.419(    21)     11  152.149(    30)      0
 ---------------------------------------------------------------------------------------------------
                         Z-Matrix orientation:                         
 ---------------------------------------------------------------------
 Center     Atomic      Atomic             Coordinates (Angstroms)
 Number     Number       Type             X           Y           Z
 ---------------------------------------------------------------------
      1          6           0        0.000000    0.000000    0.000000
      2          6           0        0.000000    0.000000    1.387181
      3          6           0        1.203074    0.000000   -0.717103
      4          1           0       -0.922270    0.176797   -0.544813
      5          1           0       -0.801918    0.468980    1.943523
      6          1           0        1.182329    0.040460   -1.797552
      7          6           0        2.371896    0.479829   -0.091444
      8          6           0        1.157210   -0.440514    2.024071
      9          1           0        3.062409    1.035329   -0.737909
     10          8           0        2.653879    0.480999    1.136631
     11          1           0        1.329935   -0.224606    3.070810
     12          1           0        1.639598   -1.334643    1.654128
 ---------------------------------------------------------------------
                    Distance matrix (angstroms):
                    1          2          3          4          5
     1  C    0.000000
     2  C    1.387181   0.000000
     3  C    1.400579   2.423922   0.000000
     4  H    1.085661   2.148125   2.139632   0.000000
     5  H    2.154134   1.082835   3.364352   2.508320   0.000000
     6  H    2.151914   3.397361   1.081406   2.453014   4.256349
     7  C    2.421671   2.835923   1.409905   3.338997   3.770187
     8  C    2.372773   1.392414   2.776723   3.362213   2.161446
     9  H    3.315835   3.868625   2.128254   4.080689   4.737495
    10  O    2.926835   2.708728   2.402608   3.963412   3.548768
    11  H    3.353960   2.157263   3.796686   4.278584   2.509310
    12  H    2.684342   2.130919   2.755823   3.699049   3.049231
                    6          7          8          9         10
     6  H    0.000000
     7  C    2.125775   0.000000
     8  C    3.851853   2.607278   0.000000
     9  H    2.376406   1.096952   3.665573   0.000000
    10  O    3.311942   1.260033   1.968947   1.997017   0.000000
    11  H    4.877806   3.403199   1.082641   4.369810   2.447806
    12  H    3.743541   2.622135   1.081214   3.655544   2.143158
                   11         12
    11  H    0.000000
    12  H    1.826215   0.000000
 Symmetry turned off by external request.
 Stoichiometry    C5H6O
 Framework group  C1[X(C5H6O)]
 Deg. of freedom    30
 Full point group                 C1      NOp   1
 Rotational constants (GHZ):           5.5433144           4.6745945           2.7099855
 Standard basis: def2TZVP (5D, 7F)
 The following finite field(s) will be applied:
 An electric field of              0.0017  0.0017  0.0007
   222 basis functions,   354 primitive gaussians,   252 cartesian basis functions
    22 alpha electrons       22 beta electrons
       nuclear repulsion energy       217.9207673881 Hartrees.
 NAtoms=   12 NActive=   12 NUniq=   12 SFac= 1.00D+00 NAtFMM=   60 NAOKFM=F Big=F
 Integral buffers will be    131072 words long.
 Raffenetti 2 integral format.
 Two-electron integral symmetry is turned off.
 One-electron integrals computed using PRISM.
   1 Symmetry operations used in ECPInt.
 ECPInt:  NShTT=    4095 NPrTT=   12396 LenC2=    4075 LenP2D=   10363.
 LDataN:  DoStor=T MaxTD1= 6 Len=  172
 NBasis=   222 RedAO= T EigKep=  1.15D-04  NBF=   222
 NBsUse=   222 1.00D-06 EigRej= -1.00D+00 NBFU=   222
 The nuclear repulsion energy is now       218.1493203540 hartrees.
 Initial guess from the checkpoint file:  "checkpoint.chk"
 B after Tr=     0.002446   -0.007648   -0.002489
         Rot=    0.999996    0.001137    0.000413   -0.002590 Ang=   0.33 deg.
 ExpMin= 9.52D-02 ExpMax= 2.70D+04 ExpMxC= 9.22D+02 IAcc=2 IRadAn=         4 AccDes= 0.00D+00
 Harris functional with IExCor=  402 and IRadAn=       4 diagonalized for initial guess.
 HarFok:  IExCor=  402 AccDes= 0.00D+00 IRadAn=         4 IDoV= 1 UseB2=F ITyADJ=14
 ICtDFT=  3500011 ScaDFX=  1.000000  1.000000  1.000000  1.000000
 FoFCou: FMM=F IPFlag=           0 FMFlag=      100000 FMFlg1=           0
         NFxFlg=           0 DoJE=T BraDBF=F KetDBF=T FulRan=T
         wScrn=  0.000000 ICntrl=       500 IOpCl=  0 I1Cent=   200000004 NGrid=           0
         NMat0=    1 NMatS0=      1 NMatT0=    0 NMatD0=    1 NMtDS0=    0 NMtDT0=    0
 Symmetry not used in FoFCou.
 Keep R1 ints in memory in canonical form, NReq=319363861.
 Requested convergence on RMS density matrix=1.00D-08 within 128 cycles.
 Requested convergence on MAX density matrix=1.00D-06.
 Requested convergence on             energy=1.00D-06.
 No special actions if energy rises.
 Integral accuracy reduced to 1.0D-05 until final iterations.
 Initial convergence to 1.0D-05 achieved.  Increase integral accuracy.
 SCF Done:  E(RB3LYP) =  -269.392772150     A.U. after   12 cycles
            NFock= 12  Conv=0.35D-08     -V/T= 2.0050
   1 Symmetry operations used in ECPInt.
 ECPInt:  NShTT=    4095 NPrTT=   12396 LenC2=    4075 LenP2D=   10363.
 LDataN:  DoStor=T MaxTD1= 7 Len=  274
 Calling FoFJK, ICntrl=      2127 FMM=F ISym2X=0 I1Cent= 0 IOpClX= 0 NMat=1 NMatS=1 NMatT=0.
 -------------------------------------------------------------------
 Center     Atomic                   Forces (Hartrees/Bohr)
 Number     Number              X              Y              Z
 -------------------------------------------------------------------
      1        6          -0.000014230   -0.000588367   -0.000008827
      2        6           0.000013072    0.000291364    0.000009806
      3        6          -0.000008802    0.000305049   -0.000008199
      4        1          -0.000001235   -0.000003827   -0.000000286
      5        1          -0.000004830   -0.000001363   -0.000001877
      6        1          -0.000001773   -0.000003776   -0.000001265
      7        6           0.000011160    0.000026574   -0.000026223
      8        6           0.000006812    0.000000740    0.000009189
      9        1           0.000003159   -0.000000582   -0.000004231
     10        8          -0.000005265   -0.000028940    0.000033471
     11        1           0.000000340    0.000002313    0.000000134
     12        1           0.000001591    0.000000814   -0.000001691
 -------------------------------------------------------------------
 Cartesian Forces:  Max     0.000588367 RMS     0.000121170
 -----------------------------------------------------------------------------------------------
                       Internal Coordinate Forces (Hartree/Bohr or radian)
  Cent   Atom   N1       Length/X         N2         Alpha/Y        N3         Beta/Z          J
 -----------------------------------------------------------------------------------------------
      1  C 
      2  C        1   0.000016(     1)
      3  C        1   0.000002(     2)      2  -0.000004(    12)
      4  H        1   0.000001(     3)      2   0.000000(    13)      3  -0.000007(    22)     0
      5  H        2   0.000002(     4)      1  -0.000007(    14)      3   0.000026(    23)     0
      6  H        3   0.000001(     5)      1  -0.000003(    15)      2   0.000069(    24)     0
      7  C        3   0.000008(     6)      1  -0.000025(    16)      6   0.000076(    25)     0
      8  C        2   0.000010(     7)      1   0.000009(    17)      5   0.000020(    26)     0
      9  H        7   0.000004(     8)      3  -0.000003(    18)      1   0.000033(    27)     0
     10  O        7   0.000031(     9)      3  -0.000057(    19)      9   0.000039(    28)     0
     11  H        8   0.000001(    10)      2  -0.000002(    20)      1   0.000001(    29)     0
     12  H        8   0.000001(    11)      2  -0.000000(    21)     11   0.000004(    30)     0
 -----------------------------------------------------------------------------------------------
 Internal  Forces:  Max     0.000076183 RMS     0.000025674

 GradGradGradGradGradGradGradGradGradGradGradGradGradGradGradGradGradGrad
 Berny optimization.
 Search for a saddle point.
 Step number   2 out of a maximum of   40
 All quantities printed in internal units (Hartrees-Bohrs-Radians)
 Swapping is turned off.
 Update second derivatives using D2CorN and points    1    2
 ITU=  0  0
     Eigenvalues ---   -0.70615   0.02572   0.02796   0.03988   0.04152
     Eigenvalues ---    0.04929   0.10620   0.12646   0.14336   0.16487
     Eigenvalues ---    0.18559   0.19793   0.24859   0.27084   0.29512
     Eigenvalues ---    0.32205   0.34426   0.34909   0.35346   0.35561
     Eigenvalues ---    0.36393   0.39022   0.39964   0.43609   0.46352
     Eigenvalues ---    0.52952   0.57588   0.71055   0.91052   2.74890
 Eigenvectors required to have negative eigenvalues:
                          A7        A3        D12       R8        R10
   1                    0.45991   0.41276   0.30361  -0.27672  -0.26639
                          A8        R7        A10       D11       R2
   1                    0.26509   0.23740   0.22448   0.22428   0.19620
 RFO step:  Lambda0=1.082902490D-09 Lambda=-3.44703605D-08.
 Linear search not attempted -- option 19 set.
 Variable       Old X    -DE/DX   Delta X   Delta X   Delta X     New X
                                 (Linear)    (Quad)   (Total)
    R2        2.62139   0.00002   0.00000   0.00004   0.00004   2.62143
    R3        2.64671   0.00000   0.00000  -0.00001  -0.00001   2.64671
    R4        2.05160   0.00000   0.00000   0.00000   0.00000   2.05161
    R5        2.04626   0.00000   0.00000   0.00001   0.00001   2.04627
    R6        2.04356   0.00000   0.00000   0.00000   0.00000   2.04356
    R7        2.66433   0.00001   0.00000   0.00002   0.00002   2.66436
    R8        2.63128   0.00001   0.00000   0.00001   0.00001   2.63129
    R9        2.07294   0.00000   0.00000   0.00001   0.00001   2.07295
   R10        2.38112   0.00003   0.00000   0.00005   0.00005   2.38117
   R11        2.04590   0.00000   0.00000   0.00001   0.00001   2.04590
   R12        2.04320   0.00000   0.00000  -0.00001  -0.00001   2.04319
    A3        2.10831  -0.00000   0.00000   0.00004   0.00004   2.10835
    A4        2.09651   0.00000   0.00000  -0.00003  -0.00003   2.09647
    A5        2.11038  -0.00001   0.00000  -0.00006  -0.00006   2.11032
    A6        2.08872  -0.00000   0.00000  -0.00001  -0.00001   2.08870
    A7        2.07704  -0.00002   0.00000   0.00006   0.00006   2.07710
    A8        2.04587   0.00001   0.00000   0.00007   0.00007   2.04594
    A9        2.01825  -0.00000   0.00000   0.00005   0.00005   2.01830
   A10        2.23743  -0.00006   0.00000  -0.00008  -0.00008   2.23735
   A11        2.10799  -0.00000   0.00000  -0.00002  -0.00002   2.10797
   A12        2.06680  -0.00000   0.00000   0.00002   0.00002   2.06682
    D4       -2.95219  -0.00001   0.00000   0.00010   0.00010  -2.95209
    D5        2.61241   0.00003   0.00000  -0.00016  -0.00016   2.61225
    D6       -3.09852   0.00007   0.00000   0.00018   0.00018  -3.09834
    D7        2.69882   0.00008   0.00000   0.00027   0.00027   2.69910
    D8       -2.97614   0.00002   0.00000  -0.00019  -0.00019  -2.97633
    D9       -2.50207   0.00003   0.00000  -0.00013  -0.00013  -2.50220
   D10        2.99156   0.00004   0.00000   0.00016   0.00016   2.99172
   D11        2.85467   0.00000   0.00000  -0.00005  -0.00005   2.85462
   D12        2.65551   0.00000   0.00000  -0.00001  -0.00001   2.65549
         Item               Value     Threshold  Converged?
 Maximum Force            0.000076     0.000450     YES
 RMS     Force            0.000026     0.000300     YES
 Maximum Displacement     0.000275     0.001800     YES
 RMS     Displacement     0.000092     0.001200     YES
 Predicted change in Energy=-1.669373D-08
 Optimization completed.
    -- Stationary point found.
                       ----------------------------
                       !   Optimized Parameters   !
                       ! (Angstroms and Degrees)  !
 ----------------------                            ----------------------
 !      Name          Value   Derivative information (Atomic Units)     !
 ------------------------------------------------------------------------
 !       R2          1.3872   -DE/DX =    0.0                           !
 !       R3          1.4006   -DE/DX =    0.0                           !
 !       R4          1.0857   -DE/DX =    0.0                           !
 !       R5          1.0828   -DE/DX =    0.0                           !
 !       R6          1.0814   -DE/DX =    0.0                           !
 !       R7          1.4099   -DE/DX =    0.0                           !
 !       R8          1.3924   -DE/DX =    0.0                           !
 !       R9          1.097    -DE/DX =    0.0                           !
 !       R10         1.26     -DE/DX =    0.0                           !
 !       R11         1.0826   -DE/DX =    0.0                           !
 !       R12         1.0812   -DE/DX =    0.0                           !
 !       A3        120.7974   -DE/DX =    0.0                           !
 !       A4        120.1209   -DE/DX =    0.0                           !
 !       A5        120.9161   -DE/DX =    0.0                           !
 !       A6        119.6746   -DE/DX =    0.0                           !
 !       A7        119.0058   -DE/DX =    0.0                           !
 !       A8        117.2195   -DE/DX =    0.0                           !
 !       A9        115.6371   -DE/DX =    0.0                           !
 !       A10       128.1953   -DE/DX =   -0.0001                        !
 !       A11       120.7792   -DE/DX =    0.0                           !
 !       A12       118.4189   -DE/DX =    0.0                           !
 !       D4       -169.1482   -DE/DX =    0.0                           !
 !       D5        149.68     -DE/DX =    0.0                           !
 !       D6       -177.532    -DE/DX =    0.0001                        !
 !       D7        154.6312   -DE/DX =    0.0001                        !
 !       D8       -170.5202   -DE/DX =    0.0                           !
 !       D9       -143.3579   -DE/DX =    0.0                           !
 !       D10       171.4037   -DE/DX =    0.0                           !
 !       D11       163.5607   -DE/DX =    0.0                           !
 !       D12       152.1494   -DE/DX =    0.0                           !
 ------------------------------------------------------------------------
 GradGradGradGradGradGradGradGradGradGradGradGradGradGradGradGradGradGrad

 ---------------------------------------------------------------------------------------------------
                            Z-MATRIX (ANGSTROMS AND DEGREES)
   CD    Cent   Atom    N1       Length/X        N2       Alpha/Y        N3        Beta/Z          J
 ---------------------------------------------------------------------------------------------------
      1      1  C 
      2      2  C        1   1.387181(     1)
      3      3  C        1   1.400579(     2)      2  120.797(    12)
      4      4  H        1   1.085661(     3)      2  120.121(    13)      3 -169.148(    22)      0
      5      5  H        2   1.082835(     4)      1  120.916(    14)      3  149.680(    23)      0
      6      6  H        3   1.081406(     5)      1  119.675(    15)      2 -177.532(    24)      0
      7      7  C        3   1.409905(     6)      1  119.006(    16)      6  154.631(    25)      0
      8      8  C        2   1.392414(     7)      1  117.219(    17)      5 -170.520(    26)      0
      9      9  H        7   1.096952(     8)      3  115.637(    18)      1 -143.358(    27)      0
     10     10  O        7   1.260033(     9)      3  128.195(    19)      9  171.404(    28)      0
     11     11  H        8   1.082641(    10)      2  120.779(    20)      1  163.561(    29)      0
     12     12  H        8   1.081214(    11)      2  118.419(    21)     11  152.149(    30)      0
 ---------------------------------------------------------------------------------------------------
                         Z-Matrix orientation:                         
 ---------------------------------------------------------------------
 Center     Atomic      Atomic             Coordinates (Angstroms)
 Number     Number       Type             X           Y           Z
 ---------------------------------------------------------------------
      1          6           0        0.000000    0.000000    0.000000
      2          6           0        0.000000    0.000000    1.387181
      3          6           0        1.203074    0.000000   -0.717103
      4          1           0       -0.922270    0.176797   -0.544813
      5          1           0       -0.801918    0.468980    1.943523
      6          1           0        1.182329    0.040460   -1.797552
      7          6           0        2.371896    0.479829   -0.091444
      8          6           0        1.157210   -0.440514    2.024071
      9          1           0        3.062409    1.035329   -0.737909
     10          8           0        2.653879    0.480999    1.136631
     11          1           0        1.329935   -0.224606    3.070810
     12          1           0        1.639598   -1.334643    1.654128
 ---------------------------------------------------------------------
                    Distance matrix (angstroms):
                    1          2          3          4          5
     1  C    0.000000
     2  C    1.387181   0.000000
     3  C    1.400579   2.423922   0.000000
     4  H    1.085661   2.148125   2.139632   0.000000
     5  H    2.154134   1.082835   3.364352   2.508320   0.000000
     6  H    2.151914   3.397361   1.081406   2.453014   4.256349
     7  C    2.421671   2.835923   1.409905   3.338997   3.770187
     8  C    2.372773   1.392414   2.776723   3.362213   2.161446
     9  H    3.315835   3.868625   2.128254   4.080689   4.737495
    10  O    2.926835   2.708728   2.402608   3.963412   3.548768
    11  H    3.353960   2.157263   3.796686   4.278584   2.509310
    12  H    2.684342   2.130919   2.755823   3.699049   3.049231
                    6          7          8          9         10
     6  H    0.000000
     7  C    2.125775   0.000000
     8  C    3.851853   2.607278   0.000000
     9  H    2.376406   1.096952   3.665573   0.000000
    10  O    3.311942   1.260033   1.968947   1.997017   0.000000
    11  H    4.877806   3.403199   1.082641   4.369810   2.447806
    12  H    3.743541   2.622135   1.081214   3.655544   2.143158
                   11         12
    11  H    0.000000
    12  H    1.826215   0.000000
 Symmetry turned off by external request.
 Stoichiometry    C5H6O
 Framework group  C1[X(C5H6O)]
 Deg. of freedom    30
 Full point group                 C1      NOp   1
 Rotational constants (GHZ):           5.5433144           4.6745945           2.7099855

 **********************************************************************

            Population analysis using the SCF density.

 **********************************************************************

 Alpha  occ. eigenvalues --  -19.14780 -10.25746 -10.22592 -10.20041 -10.17564
 Alpha  occ. eigenvalues --  -10.17206  -1.05157  -0.83304  -0.76146  -0.67197
 Alpha  occ. eigenvalues --   -0.61237  -0.53190  -0.51437  -0.47496  -0.46437
 Alpha  occ. eigenvalues --   -0.44735  -0.40121  -0.38644  -0.38032  -0.33156
 Alpha  occ. eigenvalues --   -0.29386  -0.21977
 Alpha virt. eigenvalues --   -0.07375  -0.00351   0.04259   0.05143   0.06818
 Alpha virt. eigenvalues --    0.07501   0.09110   0.11007   0.12022   0.15154
 Alpha virt. eigenvalues --    0.17551   0.19464   0.19897   0.21336   0.21742
 Alpha virt. eigenvalues --    0.22250   0.24423   0.26892   0.27681   0.28651
 Alpha virt. eigenvalues --    0.30082   0.32931   0.33379   0.35651   0.37553
 Alpha virt. eigenvalues --    0.39516   0.40029   0.41854   0.42459   0.43329
 Alpha virt. eigenvalues --    0.43903   0.44665   0.45174   0.47591   0.49464
 Alpha virt. eigenvalues --    0.52275   0.53321   0.54788   0.56524   0.57861
 Alpha virt. eigenvalues --    0.61595   0.65379   0.68399   0.69163   0.75224
 Alpha virt. eigenvalues --    0.79438   0.81886   0.86521   0.86832   0.89037
 Alpha virt. eigenvalues --    0.92260   0.93585   0.95825   0.96471   0.97655
 Alpha virt. eigenvalues --    1.00812   1.03381   1.06811   1.10386   1.11628
 Alpha virt. eigenvalues --    1.14498   1.16815   1.19010   1.22978   1.23219
 Alpha virt. eigenvalues --    1.28554   1.30994   1.33996   1.38863   1.39485
 Alpha virt. eigenvalues --    1.42542   1.43452   1.46000   1.47299   1.50909
 Alpha virt. eigenvalues --    1.52975   1.57256   1.59618   1.62902   1.64588
 Alpha virt. eigenvalues --    1.66533   1.68154   1.73367   1.77516   1.78133
 Alpha virt. eigenvalues --    1.80708   1.82424   1.85262   1.88122   1.91330
 Alpha virt. eigenvalues --    1.94185   1.96658   2.05011   2.06323   2.09897
 Alpha virt. eigenvalues --    2.14417   2.15338   2.19511   2.20224   2.25625
 Alpha virt. eigenvalues --    2.27579   2.31777   2.37588   2.40925   2.44153
 Alpha virt. eigenvalues --    2.49240   2.51570   2.52709   2.54240   2.55707
 Alpha virt. eigenvalues --    2.58540   2.61060   2.62641   2.65107   2.67556
 Alpha virt. eigenvalues --    2.69983   2.70561   2.76456   2.77897   2.79195
 Alpha virt. eigenvalues --    2.81333   2.83356   2.83961   2.86079   2.88969
 Alpha virt. eigenvalues --    2.91195   2.94417   2.96097   2.97742   3.01413
 Alpha virt. eigenvalues --    3.02451   3.04310   3.06177   3.11629   3.13184
 Alpha virt. eigenvalues --    3.14739   3.17286   3.19409   3.22515   3.23270
 Alpha virt. eigenvalues --    3.24572   3.27485   3.28567   3.34771   3.35780
 Alpha virt. eigenvalues --    3.38951   3.41317   3.43247   3.45183   3.47865
 Alpha virt. eigenvalues --    3.49281   3.51931   3.57812   3.62857   3.62987
 Alpha virt. eigenvalues --    3.68154   3.84972   3.89425   3.91509   3.93711
 Alpha virt. eigenvalues --    3.96815   4.02077   4.03521   4.08227   4.11149
 Alpha virt. eigenvalues --    4.15719   4.17564   4.25622   4.30179   4.32247
 Alpha virt. eigenvalues --    4.38295   4.43663   4.47662   4.54042   4.64527
 Alpha virt. eigenvalues --    4.66562   4.72114   4.80848   4.85312   4.86435
 Alpha virt. eigenvalues --    5.05137   5.14457   5.24510   5.28521   5.51049
 Alpha virt. eigenvalues --    5.60924   5.98462   6.20782   6.33202   6.49940
 Alpha virt. eigenvalues --    6.72063   6.77785   6.96549   7.07738  22.05630
 Alpha virt. eigenvalues --   22.33614  22.50265  22.69683  22.87091  43.80374
          Condensed to atoms (all electrons):
               1          2          3          4          5          6
     1  C    4.886644   0.487623   0.471631   0.416859  -0.052168  -0.051243
     2  C    0.487623   5.001044  -0.036380  -0.041778   0.414940   0.009547
     3  C    0.471631  -0.036380   5.238374  -0.048744   0.006927   0.409467
     4  H    0.416859  -0.041778  -0.048744   0.550752  -0.004736  -0.007389
     5  H   -0.052168   0.414940   0.006927  -0.004736   0.563944  -0.000198
     6  H   -0.051243   0.009547   0.409467  -0.007389  -0.000198   0.566419
     7  C   -0.022900  -0.049879   0.420139   0.002306  -0.002371  -0.036760
     8  C   -0.087719   0.507207  -0.002450   0.010590  -0.037274  -0.000095
     9  H    0.002741  -0.005105  -0.106535  -0.000830   0.000025  -0.000530
    10  O   -0.010279  -0.025089  -0.125109  -0.000891   0.000775   0.005779
    11  H    0.010203  -0.041323  -0.000442  -0.000249  -0.006660   0.000016
    12  H   -0.033481  -0.028717   0.031165   0.000076   0.006506   0.000049
               7          8          9         10         11         12
     1  C   -0.022900  -0.087719   0.002741  -0.010279   0.010203  -0.033481
     2  C   -0.049879   0.507207  -0.005105  -0.025089  -0.041323  -0.028717
     3  C    0.420139  -0.002450  -0.106535  -0.125109  -0.000442   0.031165
     4  H    0.002306   0.010590  -0.000830  -0.000891  -0.000249   0.000076
     5  H   -0.002371  -0.037274   0.000025   0.000775  -0.006660   0.006506
     6  H   -0.036760  -0.000095  -0.000530   0.005779   0.000016   0.000049
     7  C    4.663789  -0.046639   0.418426   0.503821   0.001328  -0.011579
     8  C   -0.046639   4.836736   0.003823   0.072745   0.398397   0.430222
     9  H    0.418426   0.003823   0.624433  -0.036186  -0.000039  -0.001639
    10  O    0.503821   0.072745  -0.036186   7.977972  -0.002114  -0.051143
    11  H    0.001328   0.398397  -0.000039  -0.002114   0.544808  -0.031075
    12  H   -0.011579   0.430222  -0.001639  -0.051143  -0.031075   0.553895
 Mulliken charges:
               1
     1  C   -0.017911
     2  C   -0.192088
     3  C   -0.258043
     4  H    0.124035
     5  H    0.110290
     6  H    0.104938
     7  C    0.160318
     8  C   -0.085544
     9  H    0.101415
    10  O   -0.310282
    11  H    0.127149
    12  H    0.135721
 Sum of Mulliken charges =  -0.00000
 Mulliken charges with hydrogens summed into heavy atoms:
               1
     1  C    0.106124
     2  C   -0.081799
     3  C   -0.153104
     7  C    0.261734
     8  C    0.177327
    10  O   -0.310282
 Electronic spatial extent (au):  <R**2>=            798.3579
 Charge=             -0.0000 electrons
 Dipole moment (field-independent basis, Debye):
    X=             -1.2862    Y=             -0.2663    Z=             -0.6017  Tot=              1.4447
 Quadrupole moment (field-independent basis, Debye-Ang):
   XX=            -39.4537   YY=            -37.6294   ZZ=            -32.6716
   XY=             -1.7317   XZ=             -3.2543   YZ=             -1.9459
 Traceless Quadrupole moment (field-independent basis, Debye-Ang):
   XX=             -2.8688   YY=             -1.0445   ZZ=              3.9133
   XY=             -1.7317   XZ=             -3.2543   YZ=             -1.9459
 Octapole moment (field-independent basis, Debye-Ang**2):
  XXX=           -144.1755  YYY=             -9.7358  ZZZ=            -57.5993  XYY=            -43.0938
  XXY=             -4.6461  XXZ=            -36.1760  XZZ=            -42.4918  YZZ=             -4.4724
  YYZ=            -22.7049  XYZ=             -7.1619
 Hexadecapole moment (field-independent basis, Debye-Ang**3):
 XXXX=           -649.4006 YYYY=            -76.3197 ZZZZ=           -328.5217 XXXY=            -36.0332
 XXXZ=           -118.8966 YYYX=            -33.2223 YYYZ=              9.6808 ZZZX=            -62.6064
 ZZZY=             10.4628 XXYY=           -112.9858 XXZZ=           -169.8986 YYZZ=            -78.2279
 XXYZ=            -11.8724 YYXZ=            -24.1563 ZZXY=            -18.4001
 N-N= 2.181493203540D+02 E-N=-1.063958360619D+03  KE= 2.680588208815D+02
 1\1\GINC-BHC0019\FTS\RB3LYP\def2TZVP\C5H6O1\DHANAWAY\18-Mar-2022\1\\# 
 Opt=(TS, CalcFC, noeigentest, Z-matrix, MaxStep=10) Field=read NoSymm 
 B3LYP/Def2TZVP\\ts_zmat_initalOpt\\0,1\C\C,1,R2\C,1,R3,2,A3\H,1,R4,2,A
 4,3,D4,0\H,2,R5,1,A5,3,D5,0\H,3,R6,1,A6,2,D6,0\C,3,R7,1,A7,6,D7,0\C,2,
 R8,1,A8,5,D8,0\H,7,R9,3,A9,1,D9,0\O,7,R10,3,A10,9,D10,0\H,8,R11,2,A11,
 1,D11,0\H,8,R12,2,A12,11,D12,0\\R2=1.3871809\R3=1.40057934\R4=1.085661
 4\R5=1.0828348\R6=1.08140577\R7=1.40990461\R8=1.39241391\R9=1.09695213
 \R10=1.26003325\R11=1.0826412\R12=1.0812142\A3=120.79742959\A4=120.120
 90149\A5=120.91611721\A6=119.67461486\A7=119.00575037\A8=117.21946072\
 A9=115.63708419\A10=128.19528053\A11=120.77920819\A12=118.41886266\D4=
 -169.14815493\D5=149.67995844\D6=-177.53198641\D7=154.63121453\D8=-170
 .5202162\D9=-143.35788004\D10=171.40367379\D11=163.56069163\D12=152.14
 944866\\Version=ES64L-G16RevA.03\HF=-269.3927722\RMSD=3.512e-09\RMSF=1
 .212e-04\Dipole=-0.5060458,-0.1047518,-0.2367089\Quadrupole=-2.132877,
 -0.7765747,2.9094517,-1.2874691,-2.419464,-1.4466988\PG=C01 [X(C5H6O1)
 ]\\@


 MAN IS A SINGULAR CREATURE.  HE HAS A SET OF GIFTS
 WHICH MAKE HIM UNIQUE AMONG THE ANIMALS: SO THAT, 
 UNLIKE THEM, HE IS NOT A FIGURE IN THE LANDSCAPE --
 HE IS A SHAPER OF THE LANDSCAPE.

                       -- JACOB BRONOWSKI
 Job cpu time:       0 days  0 hours 36 minutes 58.5 seconds.
 Elapsed time:       0 days  0 hours  3 minutes 18.9 seconds.
 File lengths (MBytes):  RWF=     54 Int=      0 D2E=      0 Chk=     32 Scr=      1
 Normal termination of Gaussian 16 at Fri Mar 18 14:16:38 2022.
