 Entering Gaussian System, Link 0=g16
 Input=ts_initalOpt_zmat_sp.gjf
 Output=ts_initalOpt_zmat_sp.out
 Initial command:
 /software/gaussian/g16-a03/l1.exe "/local_scratch/11171285/Gau-14818.inp" -scrdir="/local_scratch/11171285/"
 Entering Link 1 = /software/gaussian/g16-a03/l1.exe PID=     14819.
  
 Copyright (c) 1988,1990,1992,1993,1995,1998,2003,2009,2016,
            Gaussian, Inc.  All Rights Reserved.
  
 This is part of the Gaussian(R) 16 program.  It is based on
 the Gaussian(R) 09 system (copyright 2009, Gaussian, Inc.),
 the Gaussian(R) 03 system (copyright 2003, Gaussian, Inc.),
 the Gaussian(R) 98 system (copyright 1998, Gaussian, Inc.),
 the Gaussian(R) 94 system (copyright 1995, Gaussian, Inc.),
 the Gaussian 92(TM) system (copyright 1992, Gaussian, Inc.),
 the Gaussian 90(TM) system (copyright 1990, Gaussian, Inc.),
 the Gaussian 88(TM) system (copyright 1988, Gaussian, Inc.),
 the Gaussian 86(TM) system (copyright 1986, Carnegie Mellon
 University), and the Gaussian 82(TM) system (copyright 1983,
 Carnegie Mellon University). Gaussian is a federally registered
 trademark of Gaussian, Inc.
  
 This software contains proprietary and confidential information,
 including trade secrets, belonging to Gaussian, Inc.
  
 This software is provided under written license and may be
 used, copied, transmitted, or stored only in accord with that
 written license.
  
 The following legend is applicable only to US Government
 contracts under FAR:
  
                    RESTRICTED RIGHTS LEGEND
  
 Use, reproduction and disclosure by the US Government is
 subject to restrictions as set forth in subparagraphs (a)
 and (c) of the Commercial Computer Software - Restricted
 Rights clause in FAR 52.227-19.
  
 Gaussian, Inc.
 340 Quinnipiac St., Bldg. 40, Wallingford CT 06492
  
  
 ---------------------------------------------------------------
 Warning -- This program may not be used in any manner that
 competes with the business of Gaussian, Inc. or will provide
 assistance to any competitor of Gaussian, Inc.  The licensee
 of this program is prohibited from giving any competitor of
 Gaussian, Inc. access to this program.  By using this program,
 the user acknowledges that Gaussian, Inc. is engaged in the
 business of creating and licensing software in the field of
 computational chemistry and represents and warrants to the
 licensee that it is not a competitor of Gaussian, Inc. and that
 it will not use this program in any manner prohibited above.
 ---------------------------------------------------------------
  

 Cite this work as:
 Gaussian 16, Revision A.03,
 M. J. Frisch, G. W. Trucks, H. B. Schlegel, G. E. Scuseria, 
 M. A. Robb, J. R. Cheeseman, G. Scalmani, V. Barone, 
 G. A. Petersson, H. Nakatsuji, X. Li, M. Caricato, A. V. Marenich, 
 J. Bloino, B. G. Janesko, R. Gomperts, B. Mennucci, H. P. Hratchian, 
 J. V. Ortiz, A. F. Izmaylov, J. L. Sonnenberg, D. Williams-Young, 
 F. Ding, F. Lipparini, F. Egidi, J. Goings, B. Peng, A. Petrone, 
 T. Henderson, D. Ranasinghe, V. G. Zakrzewski, J. Gao, N. Rega, 
 G. Zheng, W. Liang, M. Hada, M. Ehara, K. Toyota, R. Fukuda, 
 J. Hasegawa, M. Ishida, T. Nakajima, Y. Honda, O. Kitao, H. Nakai, 
 T. Vreven, K. Throssell, J. A. Montgomery, Jr., J. E. Peralta, 
 F. Ogliaro, M. J. Bearpark, J. J. Heyd, E. N. Brothers, K. N. Kudin, 
 V. N. Staroverov, T. A. Keith, R. Kobayashi, J. Normand, 
 K. Raghavachari, A. P. Rendell, J. C. Burant, S. S. Iyengar, 
 J. Tomasi, M. Cossi, J. M. Millam, M. Klene, C. Adamo, R. Cammi, 
 J. W. Ochterski, R. L. Martin, K. Morokuma, O. Farkas, 
 J. B. Foresman, and D. J. Fox, Gaussian, Inc., Wallingford CT, 2016.
 
 ******************************************
 Gaussian 16:  ES64L-G16RevA.03 25-Dec-2016
                10-Jun-2022 
 ******************************************
 %nprocshared=12
 Will use up to   12 processors via shared memory.
 %chk=checkpoint.chk
 %mem=12GB
 --------------------------
 # sp B3LYP/Def2TZVP NoSymm
 --------------------------
 1/38=1,172=1/1;
 2/12=2,15=1,17=6,18=5,40=1/2;
 3/5=44,7=101,11=2,25=1,30=1,74=-5/1,2,3;
 4//1;
 5/5=2,38=5/2;
 6/7=2,8=2,9=2,10=2,28=1/1;
 99/5=1,9=1/99;
 ---------------------------
 ts_initalOpt_zmat_AlignedSp
 ---------------------------
 Symbolic Z-matrix:
 Charge =  0 Multiplicity = 1
 C
 C                    1    R2
 C                    1    R3       2    A3
 C                    1    R4       2    A4       3    D4       0
 H                    2    R5       1    A5       3    D5       0
 C                    2    R6       1    A6       5    D6       0
 C                    3    R2       1    A3       2    D7       0
 C                    3    R4       1    A8       7    D8       0
 H                    4    R9       1    A9       2    D9       0
 H                    4    R10      1    A10      9    D10      0
 C                    6    R11      2    A11      1    D11      0
 H                    6    R12      2    A12      11   D12      0
 H                    7    R5       3    A5       1    D5       0
 H                    8    R9       3    A9       1    D14      0
 H                    8    R10      3    A10      14   D10      0
 H                    11   R12      6    A16      2    D16      0
       Variables:
  R2                    1.40545                  
  R3                    1.41211                  
  R4                    1.42383                  
  R5                    1.08353                  
  R6                    1.38053                  
  R9                    1.07814                  
  R10                   1.0882                   
  R11                   1.41374                  
  R12                   1.08298                  
  A3                  120.32938                  
  A4                  133.35746                  
  A5                  121.62316                  
  A6                  117.09468                  
  A8                  106.24712                  
  A9                  117.95382                  
  A10                 123.04379                  
  A11                 121.49926                  
  A12                 119.65225                  
  A16                 118.80285                  
  D4                  176.59725                  
  D5                  172.99099                  
  D6                  174.71696                  
  D7                   18.37994                  
  D8                 -177.42364                  
  D9                 -120.94221                  
  D10                 156.53444                  
  D11                   1.0691                   
  D12                -177.51326                  
  D14                  55.99892                  
  D16                -177.85978                  
 
                          Input orientation:                          
 ---------------------------------------------------------------------
 Center     Atomic      Atomic             Coordinates (Angstroms)
 Number     Number       Type             X           Y           Z
 ---------------------------------------------------------------------
      1          6           0        0.000000    0.000000    0.000000
      2          6           0        0.000000    0.000000    1.405453
      3          6           0        1.218848    0.000000   -0.713076
      4          6           0       -1.033416   -0.061446   -0.977524
      5          1           0       -0.915748    0.112586    1.973581
      6          6           0        1.200848   -0.261653    2.034232
      7          6           0        2.412755   -0.382510   -0.077805
      8          6           0        0.918070    0.488902   -2.016067
      9          1           0       -1.016157   -0.878678   -1.680530
     10          1           0       -2.003968    0.412690   -0.845572
     11          6           0        2.384505   -0.496541    1.297717
     12          1           0        1.236446   -0.329150    3.114521
     13          1           0        3.338081   -0.498165   -0.629561
     14          1           0        0.442321    1.453027   -2.096748
     15          1           0        1.442872    0.157578   -2.909931
     16          1           0        3.295033   -0.732167    1.834623
 ---------------------------------------------------------------------
                    Distance matrix (angstroms):
                    1          2          3          4          5
     1  C    0.000000
     2  C    1.405453   0.000000
     3  C    1.412115   2.444127   0.000000
     4  C    1.423825   2.598135   2.268569   0.000000
     5  H    2.178599   1.083531   3.433264   2.958573   0.000000
     6  C    2.376678   1.380529   2.759798   3.755355   2.150282
     7  C    2.444127   2.857928   1.405453   3.576126   3.941096
     8  C    2.268569   3.576126   1.423825   2.278103   4.407016
     9  H    2.151472   3.365701   2.589071   1.078139   3.787508
    10  H    2.213863   3.041926   3.251832   1.088203   3.036759
    11  C    2.759798   2.438037   2.376678   4.128949   3.423375
    12  H    3.367103   2.134960   3.841764   4.687086   2.475644
    13  H    3.433264   3.941096   2.178599   4.407016   5.024384
    14  H    2.589071   3.817374   2.151472   2.392508   4.495410
    15  H    3.251832   4.552939   2.213863   3.148678   5.423450
    16  H    3.841764   3.402572   3.367103   5.205143   4.296928
                    6          7          8          9         10
     6  C    0.000000
     7  C    2.438037   0.000000
     8  C    4.128949   2.598135   0.000000
     9  H    4.369815   3.817374   2.392508   0.000000
    10  H    4.361061   4.552939   3.148678   1.827720   0.000000
    11  C    1.413743   1.380529   3.755355   4.536572   4.967804
    12  H    1.082981   3.402572   5.205143   5.326229   5.170391
    13  H    3.423375   1.083531   2.958573   4.495410   5.423450
    14  H    4.536572   3.365701   1.078139   2.781590   2.938039
    15  H    4.967804   3.041926   1.088203   2.938039   4.025837
    16  H    2.155652   2.134960   4.687086   5.564541   6.047607
                   11         12         13         14         15
    11  C    0.000000
    12  H    2.155652   0.000000
    13  H    2.150282   4.296928   0.000000
    14  H    4.369815   5.564541   3.787508   0.000000
    15  H    4.361061   6.047607   3.036759   1.827720   0.000000
    16  H    1.082981   2.457304   2.475644   5.326229   5.170391
                   16
    16  H    0.000000
 Symmetry turned off by external request.
 Stoichiometry    C8H8
 Framework group  C2[X(C8H8)]
 Deg. of freedom    22
 Full point group                 C2      NOp   2
 Rotational constants (GHZ):           3.8306242           2.2229067           1.4568655
 Standard basis: def2TZVP (5D, 7F)
   296 basis functions,   472 primitive gaussians,   336 cartesian basis functions
    28 alpha electrons       28 beta electrons
       nuclear repulsion energy       329.7208474928 Hartrees.
 NAtoms=   16 NActive=   16 NUniq=   16 SFac= 1.00D+00 NAtFMM=   60 NAOKFM=F Big=F
 Integral buffers will be    131072 words long.
 Raffenetti 2 integral format.
 Two-electron integral symmetry is turned off.
 One-electron integrals computed using PRISM.
   1 Symmetry operations used in ECPInt.
 ECPInt:  NShTT=    7260 NPrTT=   21936 LenC2=    7161 LenP2D=   17614.
 LDataN:  DoStor=T MaxTD1= 6 Len=  172
 NBasis=   296 RedAO= T EigKep=  1.25D-05  NBF=   296
 NBsUse=   296 1.00D-06 EigRej= -1.00D+00 NBFU=   296
 ExpMin= 9.52D-02 ExpMax= 1.36D+04 ExpMxC= 4.63D+02 IAcc=3 IRadAn=         5 AccDes= 0.00D+00
 Harris functional with IExCor=  402 and IRadAn=       5 diagonalized for initial guess.
 HarFok:  IExCor=  402 AccDes= 0.00D+00 IRadAn=         5 IDoV= 1 UseB2=F ITyADJ=14
 ICtDFT=  3500011 ScaDFX=  1.000000  1.000000  1.000000  1.000000
 FoFCou: FMM=F IPFlag=           0 FMFlag=      100000 FMFlg1=           0
         NFxFlg=           0 DoJE=T BraDBF=F KetDBF=T FulRan=T
         wScrn=  0.000000 ICntrl=       500 IOpCl=  0 I1Cent=   200000004 NGrid=           0
         NMat0=    1 NMatS0=      1 NMatT0=    0 NMatD0=    1 NMtDS0=    0 NMtDT0=    0
 Symmetry not used in FoFCou.
 Requested convergence on RMS density matrix=1.00D-08 within 128 cycles.
 Requested convergence on MAX density matrix=1.00D-06.
 Requested convergence on             energy=1.00D-06.
 No special actions if energy rises.
 Integral accuracy reduced to 1.0D-05 until final iterations.
 Initial convergence to 1.0D-05 achieved.  Increase integral accuracy.
 SCF Done:  E(RB3LYP) =  -309.678349546     A.U. after   14 cycles
            NFock= 14  Conv=0.77D-08     -V/T= 2.0053

 **********************************************************************

            Population analysis using the SCF density.

 **********************************************************************

 Alpha  occ. eigenvalues --  -10.19119 -10.19119 -10.18024 -10.17978 -10.17685
 Alpha  occ. eigenvalues --  -10.17684 -10.17570 -10.17525  -0.87271  -0.79379
 Alpha  occ. eigenvalues --   -0.75980  -0.68333  -0.66637  -0.59379  -0.56988
 Alpha  occ. eigenvalues --   -0.51025  -0.47434  -0.45895  -0.44913  -0.42905
 Alpha  occ. eigenvalues --   -0.41364  -0.40141  -0.36344  -0.35282  -0.34451
 Alpha  occ. eigenvalues --   -0.27423  -0.24837  -0.21797
 Alpha virt. eigenvalues --   -0.06621  -0.00702  -0.00261   0.05535   0.05897
 Alpha virt. eigenvalues --    0.07497   0.09649   0.10165   0.11225   0.11310
 Alpha virt. eigenvalues --    0.12560   0.13340   0.14220   0.16656   0.18311
 Alpha virt. eigenvalues --    0.19335   0.19959   0.20341   0.22473   0.22741
 Alpha virt. eigenvalues --    0.24667   0.24851   0.26529   0.26590   0.26861
 Alpha virt. eigenvalues --    0.28936   0.31016   0.31551   0.32202   0.33853
 Alpha virt. eigenvalues --    0.35573   0.36793   0.37649   0.39040   0.40840
 Alpha virt. eigenvalues --    0.40844   0.42193   0.42247   0.42898   0.44142
 Alpha virt. eigenvalues --    0.44482   0.44916   0.45363   0.46981   0.49592
 Alpha virt. eigenvalues --    0.50020   0.50202   0.51038   0.51886   0.53392
 Alpha virt. eigenvalues --    0.55386   0.55667   0.56915   0.61300   0.62021
 Alpha virt. eigenvalues --    0.66885   0.68113   0.68443   0.70923   0.72987
 Alpha virt. eigenvalues --    0.73919   0.76335   0.76958   0.78686   0.81933
 Alpha virt. eigenvalues --    0.84258   0.86059   0.90026   0.90121   0.91504
 Alpha virt. eigenvalues --    0.94385   0.95116   0.96294   0.97796   1.00236
 Alpha virt. eigenvalues --    1.01056   1.04619   1.05466   1.06687   1.09350
 Alpha virt. eigenvalues --    1.09915   1.11945   1.13156   1.13273   1.17759
 Alpha virt. eigenvalues --    1.19211   1.20788   1.22474   1.24220   1.27646
 Alpha virt. eigenvalues --    1.28427   1.30437   1.31505   1.37738   1.39252
 Alpha virt. eigenvalues --    1.39459   1.41575   1.41878   1.44568   1.49694
 Alpha virt. eigenvalues --    1.50950   1.51391   1.51462   1.53781   1.55765
 Alpha virt. eigenvalues --    1.56057   1.58115   1.58891   1.59496   1.59674
 Alpha virt. eigenvalues --    1.65686   1.66875   1.68860   1.71963   1.73052
 Alpha virt. eigenvalues --    1.74029   1.78576   1.81823   1.82284   1.87257
 Alpha virt. eigenvalues --    1.88364   1.88461   1.94317   1.95599   1.97690
 Alpha virt. eigenvalues --    2.00016   2.01307   2.02364   2.08813   2.09239
 Alpha virt. eigenvalues --    2.10657   2.12430   2.12889   2.17231   2.18937
 Alpha virt. eigenvalues --    2.23693   2.24119   2.32570   2.32581   2.35744
 Alpha virt. eigenvalues --    2.39647   2.41514   2.41628   2.43915   2.45695
 Alpha virt. eigenvalues --    2.48425   2.49844   2.53489   2.55722   2.57031
 Alpha virt. eigenvalues --    2.58581   2.58659   2.60113   2.62778   2.64134
 Alpha virt. eigenvalues --    2.64526   2.69155   2.69700   2.69777   2.70500
 Alpha virt. eigenvalues --    2.75072   2.75527   2.76885   2.80466   2.81479
 Alpha virt. eigenvalues --    2.83595   2.84233   2.86715   2.88074   2.88083
 Alpha virt. eigenvalues --    2.89827   2.91180   2.93861   2.94350   2.99424
 Alpha virt. eigenvalues --    3.00601   3.02648   3.03005   3.06852   3.09844
 Alpha virt. eigenvalues --    3.10424   3.11924   3.14247   3.14958   3.16667
 Alpha virt. eigenvalues --    3.17941   3.19306   3.20212   3.20475   3.22517
 Alpha virt. eigenvalues --    3.22546   3.25108   3.27113   3.27425   3.28758
 Alpha virt. eigenvalues --    3.30386   3.35011   3.35867   3.36844   3.37763
 Alpha virt. eigenvalues --    3.38372   3.40038   3.42770   3.43489   3.48843
 Alpha virt. eigenvalues --    3.49925   3.51640   3.51759   3.53327   3.56452
 Alpha virt. eigenvalues --    3.57442   3.58062   3.64855   3.65007   3.71005
 Alpha virt. eigenvalues --    3.71329   3.72049   3.78139   3.80860   3.84811
 Alpha virt. eigenvalues --    3.86144   3.87157   3.89795   3.98558   3.99138
 Alpha virt. eigenvalues --    4.01309   4.03200   4.09325   4.09910   4.13671
 Alpha virt. eigenvalues --    4.14835   4.18600   4.19201   4.24395   4.25432
 Alpha virt. eigenvalues --    4.27539   4.28774   4.32704   4.39008   4.44619
 Alpha virt. eigenvalues --    4.44786   4.49796   4.54265   4.64105   4.64709
 Alpha virt. eigenvalues --    4.67447   4.72979   4.75016   4.77882   4.85358
 Alpha virt. eigenvalues --    4.91202   4.93779   5.02617   5.08125   5.18806
 Alpha virt. eigenvalues --    5.24403   5.27587   5.33672   5.47483   5.68093
 Alpha virt. eigenvalues --   22.04424  22.27754  22.42118  22.56798  22.64426
 Alpha virt. eigenvalues --   22.74463  22.87363  23.46401
          Condensed to atoms (all electrons):
               1          2          3          4          5          6
     1  C    4.961357   0.437450   0.457515   0.413194  -0.055218  -0.038513
     2  C    0.437450   5.011771  -0.037619  -0.074936   0.420920   0.522694
     3  C    0.457515  -0.037619   4.961585  -0.120485   0.011176  -0.053164
     4  C    0.413194  -0.074936  -0.120485   5.126235  -0.001549   0.004508
     5  H   -0.055218   0.420920   0.011176  -0.001549   0.567106  -0.045799
     6  C   -0.038513   0.522694  -0.053164   0.004508  -0.045799   4.881692
     7  C   -0.037658  -0.042419   0.437386   0.012917  -0.002112  -0.018064
     8  C   -0.120451   0.012907   0.413142   0.145516  -0.000911  -0.000295
     9  H   -0.010440  -0.000310  -0.023964   0.400913  -0.000099   0.000331
    10  H   -0.069386   0.004697   0.011350   0.403675   0.002873  -0.000510
    11  C   -0.053107  -0.018097  -0.038545  -0.000301   0.008911   0.463858
    12  H    0.009265  -0.047429  -0.000960  -0.000528  -0.008019   0.419465
    13  H    0.011175  -0.002112  -0.055224  -0.000911   0.000118   0.008912
    14  H   -0.023959   0.002986  -0.010432  -0.018608   0.000022  -0.000144
    15  H    0.011348  -0.001387  -0.069391   0.000628   0.000031   0.000277
    16  H   -0.000963   0.007835   0.009272   0.000123  -0.000328  -0.048105
               7          8          9         10         11         12
     1  C   -0.037658  -0.120451  -0.010440  -0.069386  -0.053107   0.009265
     2  C   -0.042419   0.012907  -0.000310   0.004697  -0.018097  -0.047429
     3  C    0.437386   0.413142  -0.023964   0.011350  -0.038545  -0.000960
     4  C    0.012917   0.145516   0.400913   0.403675  -0.000301  -0.000528
     5  H   -0.002112  -0.000911  -0.000099   0.002873   0.008911  -0.008019
     6  C   -0.018064  -0.000295   0.000331  -0.000510   0.463858   0.419465
     7  C    5.011729  -0.074901   0.002987  -0.001388   0.522745   0.007831
     8  C   -0.074901   5.126218  -0.018606   0.000628   0.004499   0.000123
     9  H    0.002987  -0.018606   0.540057  -0.037006  -0.000144   0.000028
    10  H   -0.001388   0.000628  -0.037006   0.565283   0.000277  -0.000021
    11  C    0.522745   0.004499  -0.000144   0.000277   4.881667  -0.048102
    12  H    0.007831   0.000123   0.000028  -0.000021  -0.048102   0.566619
    13  H    0.420925  -0.001547   0.000022   0.000031  -0.045802  -0.000328
    14  H   -0.000314   0.400912  -0.002035   0.001540   0.000332  -0.000007
    15  H    0.004701   0.403681   0.001540  -0.000268  -0.000510  -0.000002
    16  H   -0.047437  -0.000528  -0.000007  -0.000002   0.419472  -0.006201
              13         14         15         16
     1  C    0.011175  -0.023959   0.011348  -0.000963
     2  C   -0.002112   0.002986  -0.001387   0.007835
     3  C   -0.055224  -0.010432  -0.069391   0.009272
     4  C   -0.000911  -0.018608   0.000628   0.000123
     5  H    0.000118   0.000022   0.000031  -0.000328
     6  C    0.008912  -0.000144   0.000277  -0.048105
     7  C    0.420925  -0.000314   0.004701  -0.047437
     8  C   -0.001547   0.400912   0.403681  -0.000528
     9  H    0.000022  -0.002035   0.001540  -0.000007
    10  H    0.000031   0.001540  -0.000268  -0.000002
    11  C   -0.045802   0.000332  -0.000510   0.419472
    12  H   -0.000328  -0.000007  -0.000002  -0.006201
    13  H    0.567107  -0.000100   0.002874  -0.008020
    14  H   -0.000100   0.540054  -0.037003   0.000028
    15  H    0.002874  -0.037003   0.565274  -0.000021
    16  H   -0.008020   0.000028  -0.000021   0.566615
 Mulliken charges:
               1
     1  C    0.108390
     2  C   -0.196950
     3  C    0.108357
     4  C   -0.290392
     5  H    0.102878
     6  C   -0.097143
     7  C   -0.196928
     8  C   -0.290388
     9  H    0.146734
    10  H    0.118227
    11  C   -0.097154
    12  H    0.108265
    13  H    0.102879
    14  H    0.146730
    15  H    0.118229
    16  H    0.108265
 Sum of Mulliken charges =  -0.00000
 Mulliken charges with hydrogens summed into heavy atoms:
               1
     1  C    0.108390
     2  C   -0.094071
     3  C    0.108357
     4  C   -0.025432
     6  C    0.011122
     7  C   -0.094050
     8  C   -0.025429
    11  C    0.011112
 Electronic spatial extent (au):  <R**2>=           1003.2430
 Charge=             -0.0000 electrons
 Dipole moment (field-independent basis, Debye):
    X=             -0.0992    Y=              0.0318    Z=             -0.1696  Tot=              0.1991
 Quadrupole moment (field-independent basis, Debye-Ang):
   XX=            -44.7943   YY=            -50.8588   ZZ=            -44.6364
   XY=             -1.5895   XZ=             -0.5758   YZ=             -0.1633
 Traceless Quadrupole moment (field-independent basis, Debye-Ang):
   XX=              1.9689   YY=             -4.0956   ZZ=              2.1268
   XY=             -1.5895   XZ=             -0.5758   YZ=             -0.1633
 Octapole moment (field-independent basis, Debye-Ang**2):
  XXX=           -114.5224  YYY=             14.6870  ZZZ=             -4.8013  XYY=            -45.7294
  XXY=             -0.1559  XXZ=             -2.5184  XZZ=            -35.6684  YZZ=              1.6661
  YYZ=             -7.6605  XYZ=             -1.6236
 Hexadecapole moment (field-independent basis, Debye-Ang**3):
 XXXX=           -658.4984 YYYY=           -100.9239 ZZZZ=           -591.1110 XXXY=             16.5594
 XXXZ=            -61.0576 YYYX=             41.7799 YYYZ=             43.6869 ZZZX=            -66.6249
 ZZZY=             40.3523 XXYY=           -144.4019 XXZZ=           -206.7671 YYZZ=           -125.3411
 XXYZ=             11.6843 YYXZ=            -22.7107 ZZXY=              7.3483
 N-N= 3.297208474928D+02 E-N=-1.377168422541D+03  KE= 3.080316077390D+02
 1\1\GINC-BHC0019\SP\RB3LYP\def2TZVP\C8H8\DHANAWAY\10-Jun-2022\0\\# sp 
 B3LYP/Def2TZVP NoSymm\\ts_initalOpt_zmat_AlignedSp\\0,1\C\C,1,1.405452
 92\C,1,1.41211469,2,120.32937964\C,1,1.42382546,2,133.35745774,3,176.5
 9725072,0\H,2,1.08353118,1,121.6231624,3,172.99099312,0\C,2,1.38052918
 ,1,117.09467541,5,174.71696244,0\C,3,1.40545292,1,120.32937964,2,18.37
 993993,0\C,3,1.42382546,1,106.2471211,7,-177.42364441,0\H,4,1.07813891
 ,1,117.953817,2,-120.94221345,0\H,4,1.08820331,1,123.04379355,9,156.53
 443995,0\C,6,1.41374326,2,121.49926127,1,1.06909636,0\H,6,1.08298136,2
 ,119.65225245,11,-177.51325615,0\H,7,1.08353118,3,121.6231624,1,172.99
 099312,0\H,8,1.07813891,3,117.953817,1,55.99892093,0\H,8,1.08820331,3,
 123.04379355,14,156.53443995,0\H,11,1.08298136,6,118.80285074,2,-177.8
 5977671,0\\Version=ES64L-G16RevA.03\HF=-309.6783495\RMSD=7.723e-09\Dip
 ole=-0.0390362,0.0125251,-0.0667342\Quadrupole=1.4637929,-3.0450034,1.
 5812105,-1.1817429,-0.4281303,-0.1213781\PG=C02 [X(C8H8)]\\@


 LIVE PURE, SPEAK TRUE, RIGHT WRONG, FOLLOW THE KING...
 ELSE, WHEREFORE BORN......
           IDYLLS OF THE KING, TENNYSON
 Job cpu time:       0 days  0 hours 12 minutes  4.2 seconds.
 Elapsed time:       0 days  0 hours  1 minutes  5.1 seconds.
 File lengths (MBytes):  RWF=     52 Int=      0 D2E=      0 Chk=     32 Scr=      1
 Normal termination of Gaussian 16 at Fri Jun 10 02:30:28 2022.
