 Entering Gaussian System, Link 0=g16
 Input=ts_zmat_field_N100.gjf
 Output=ts_zmat_field_N100.out
 Initial command:
 /software/gaussian/g16-a03/l1.exe "/local_scratch/11172530/Gau-4912.inp" -scrdir="/local_scratch/11172530/"
 Entering Link 1 = /software/gaussian/g16-a03/l1.exe PID=      4913.
  
 Copyright (c) 1988,1990,1992,1993,1995,1998,2003,2009,2016,
            Gaussian, Inc.  All Rights Reserved.
  
 This is part of the Gaussian(R) 16 program.  It is based on
 the Gaussian(R) 09 system (copyright 2009, Gaussian, Inc.),
 the Gaussian(R) 03 system (copyright 2003, Gaussian, Inc.),
 the Gaussian(R) 98 system (copyright 1998, Gaussian, Inc.),
 the Gaussian(R) 94 system (copyright 1995, Gaussian, Inc.),
 the Gaussian 92(TM) system (copyright 1992, Gaussian, Inc.),
 the Gaussian 90(TM) system (copyright 1990, Gaussian, Inc.),
 the Gaussian 88(TM) system (copyright 1988, Gaussian, Inc.),
 the Gaussian 86(TM) system (copyright 1986, Carnegie Mellon
 University), and the Gaussian 82(TM) system (copyright 1983,
 Carnegie Mellon University). Gaussian is a federally registered
 trademark of Gaussian, Inc.
  
 This software contains proprietary and confidential information,
 including trade secrets, belonging to Gaussian, Inc.
  
 This software is provided under written license and may be
 used, copied, transmitted, or stored only in accord with that
 written license.
  
 The following legend is applicable only to US Government
 contracts under FAR:
  
                    RESTRICTED RIGHTS LEGEND
  
 Use, reproduction and disclosure by the US Government is
 subject to restrictions as set forth in subparagraphs (a)
 and (c) of the Commercial Computer Software - Restricted
 Rights clause in FAR 52.227-19.
  
 Gaussian, Inc.
 340 Quinnipiac St., Bldg. 40, Wallingford CT 06492
  
  
 ---------------------------------------------------------------
 Warning -- This program may not be used in any manner that
 competes with the business of Gaussian, Inc. or will provide
 assistance to any competitor of Gaussian, Inc.  The licensee
 of this program is prohibited from giving any competitor of
 Gaussian, Inc. access to this program.  By using this program,
 the user acknowledges that Gaussian, Inc. is engaged in the
 business of creating and licensing software in the field of
 computational chemistry and represents and warrants to the
 licensee that it is not a competitor of Gaussian, Inc. and that
 it will not use this program in any manner prohibited above.
 ---------------------------------------------------------------
  

 Cite this work as:
 Gaussian 16, Revision A.03,
 M. J. Frisch, G. W. Trucks, H. B. Schlegel, G. E. Scuseria, 
 M. A. Robb, J. R. Cheeseman, G. Scalmani, V. Barone, 
 G. A. Petersson, H. Nakatsuji, X. Li, M. Caricato, A. V. Marenich, 
 J. Bloino, B. G. Janesko, R. Gomperts, B. Mennucci, H. P. Hratchian, 
 J. V. Ortiz, A. F. Izmaylov, J. L. Sonnenberg, D. Williams-Young, 
 F. Ding, F. Lipparini, F. Egidi, J. Goings, B. Peng, A. Petrone, 
 T. Henderson, D. Ranasinghe, V. G. Zakrzewski, J. Gao, N. Rega, 
 G. Zheng, W. Liang, M. Hada, M. Ehara, K. Toyota, R. Fukuda, 
 J. Hasegawa, M. Ishida, T. Nakajima, Y. Honda, O. Kitao, H. Nakai, 
 T. Vreven, K. Throssell, J. A. Montgomery, Jr., J. E. Peralta, 
 F. Ogliaro, M. J. Bearpark, J. J. Heyd, E. N. Brothers, K. N. Kudin, 
 V. N. Staroverov, T. A. Keith, R. Kobayashi, J. Normand, 
 K. Raghavachari, A. P. Rendell, J. C. Burant, S. S. Iyengar, 
 J. Tomasi, M. Cossi, J. M. Millam, M. Klene, C. Adamo, R. Cammi, 
 J. W. Ochterski, R. L. Martin, K. Morokuma, O. Farkas, 
 J. B. Foresman, and D. J. Fox, Gaussian, Inc., Wallingford CT, 2016.
 
 ******************************************
 Gaussian 16:  ES64L-G16RevA.03 25-Dec-2016
                10-Jun-2022 
 ******************************************
 %nprocshared=12
 Will use up to   12 processors via shared memory.
 %chk=checkpoint.chk
 %mem=12GB
 ----------------------------------------------------------------------
 # Opt=(TS, CalcFC, noeigentest, Z-matrix, MaxStep=10) geom=allcheckpoi
 nt guess=read Field=read NoSymm B3LYP/Def2TZVP freq=noraman pop=none
 ----------------------------------------------------------------------
 1/5=1,8=10,10=4,11=1,18=40,26=3,29=7,38=1/1,3;
 2/12=2,15=1,29=3,40=1/2;
 3/5=44,7=101,11=2,14=-6,25=1,30=1,71=2,74=-5,116=-2,140=1/1,2,3;
 4/5=1/1;
 5/5=2,38=6/2;
 8/6=4,10=90,11=11/1;
 11/6=1,8=1,9=11,15=111,16=1,31=1/1,2,10;
 10/6=1,13=1,31=1/2;
 7/10=1,18=20,25=1,30=1/1,2,3,16;
 1/5=1,8=10,10=4,11=1,18=40,26=3/3(2);
 2/15=1,29=3/2;
 99//99;
 2/15=1,29=3/2;
 3/5=44,7=101,11=2,14=-2,25=1,30=1,71=1,74=-5/1,2,3;
 4/5=5,16=3,69=1/1;
 5/5=2,38=5/2;
 7/30=1/1,2,3,16;
 1/5=1,8=10,11=1,18=40,26=3/3(-5);
 2/15=1,29=3/2;
 99/9=1/99;
 Structure from the checkpoint file:  "checkpoint.chk"
 -----------------
 ts_zmat_initalOpt
 -----------------
 Charge =  0 Multiplicity = 1
 Z-Matrix found in chk file.
 C
 C,1,R2
 C,1,R3,2,A3
 C,2,R4,1,A4,3,D4,0
 O,3,R5,1,A5,2,D5,0
 H,3,R6,1,A6,5,D6,0
 H,3,R7,1,A7,5,D7,0
 H,4,R8,2,A8,1,D8,0
 H,4,R9,2,A9,8,D9,0
 H,4,R10,2,A10,8,D10,0
 C,5,R11,3,A11,1,D11,0
 C,11,R12,5,A12,3,D12,0
 H,11,R13,5,A13,12,D13,0
 H,11,R14,5,A14,12,D14,0
 C,12,R15,11,A15,5,D15,0
 H,12,R16,11,A16,15,D16,0
 C,15,R17,12,A17,11,D17,0
 H,15,R18,12,A18,17,D18,0
 H,17,R19,15,A19,12,D19,0
 H,17,R20,15,A20,19,D20,0
 H,17,R21,15,A21,19,D21,0
      Variables:
 R2=1.24924313
 R3=1.46382444
 R4=1.48485373
 R5=1.44471287
 R6=1.09458971
 R7=1.09373943
 R8=1.09063887
 R9=1.0918703
 R10=1.09205976
 R11=1.43302426
 R12=1.49728304
 R13=1.09606044
 R14=1.09598748
 R15=1.38001761
 R16=1.08849702
 R17=1.40794761
 R18=1.08604879
 R19=1.35533935
 R20=1.08635845
 R21=1.08481269
 A3=154.20223034
 A4=146.66945843
 A5=110.61025075
 A6=111.75194529
 A7=110.15588522
 A8=111.4881106
 A9=110.53552032
 A10=110.88102977
 A11=112.409199
 A12=110.10810317
 A13=104.51906702
 A14=110.94842848
 A15=129.51240413
 A16=111.67585605
 A17=124.20822099
 A18=115.48734969
 A19=93.98473137
 A20=119.87391092
 A21=118.01216476
 D4=-28.9360966
 D5=-112.72382472
 D6=-121.68776328
 D7=118.02390857
 D8=6.74849521
 D9=-120.30357118
 D10=121.30148335
 D11=-15.52019181
 D12=-34.98768736
 D13=-119.37867854
 D14=124.33709426
 D15=145.53206261
 D16=157.50023226
 D17=-40.61801539
 D18=-154.97170578
 D19=-59.59963338
 D20=100.19560436
 D21=-114.20612535
 Recover connectivity data from disk.

 GradGradGradGradGradGradGradGradGradGradGradGradGradGradGradGradGradGrad
 Berny optimization.
 Initialization pass.
                       ----------------------------
                       !    Initial Parameters    !
                       ! (Angstroms and Degrees)  !
 ----------------------                            ----------------------
 !      Name          Value   Derivative information (Atomic Units)     !
 ------------------------------------------------------------------------
 !       R2          1.2492   calculate D2E/DX2 analytically            !
 !       R3          1.4638   calculate D2E/DX2 analytically            !
 !       R4          1.4849   calculate D2E/DX2 analytically            !
 !       R5          1.4447   calculate D2E/DX2 analytically            !
 !       R6          1.0946   calculate D2E/DX2 analytically            !
 !       R7          1.0937   calculate D2E/DX2 analytically            !
 !       R8          1.0906   calculate D2E/DX2 analytically            !
 !       R9          1.0919   calculate D2E/DX2 analytically            !
 !       R10         1.0921   calculate D2E/DX2 analytically            !
 !       R11         1.433    calculate D2E/DX2 analytically            !
 !       R12         1.4973   calculate D2E/DX2 analytically            !
 !       R13         1.0961   calculate D2E/DX2 analytically            !
 !       R14         1.096    calculate D2E/DX2 analytically            !
 !       R15         1.38     calculate D2E/DX2 analytically            !
 !       R16         1.0885   calculate D2E/DX2 analytically            !
 !       R17         1.4079   calculate D2E/DX2 analytically            !
 !       R18         1.086    calculate D2E/DX2 analytically            !
 !       R19         1.3553   calculate D2E/DX2 analytically            !
 !       R20         1.0864   calculate D2E/DX2 analytically            !
 !       R21         1.0848   calculate D2E/DX2 analytically            !
 !       A3        154.2022   calculate D2E/DX2 analytically            !
 !       A4        146.6695   calculate D2E/DX2 analytically            !
 !       A5        110.6103   calculate D2E/DX2 analytically            !
 !       A6        111.7519   calculate D2E/DX2 analytically            !
 !       A7        110.1559   calculate D2E/DX2 analytically            !
 !       A8        111.4881   calculate D2E/DX2 analytically            !
 !       A9        110.5355   calculate D2E/DX2 analytically            !
 !       A10       110.881    calculate D2E/DX2 analytically            !
 !       A11       112.4092   calculate D2E/DX2 analytically            !
 !       A12       110.1081   calculate D2E/DX2 analytically            !
 !       A13       104.5191   calculate D2E/DX2 analytically            !
 !       A14       110.9484   calculate D2E/DX2 analytically            !
 !       A15       129.5124   calculate D2E/DX2 analytically            !
 !       A16       111.6759   calculate D2E/DX2 analytically            !
 !       A17       124.2082   calculate D2E/DX2 analytically            !
 !       A18       115.4873   calculate D2E/DX2 analytically            !
 !       A19        93.9847   calculate D2E/DX2 analytically            !
 !       A20       119.8739   calculate D2E/DX2 analytically            !
 !       A21       118.0122   calculate D2E/DX2 analytically            !
 !       D4        -28.9361   calculate D2E/DX2 analytically            !
 !       D5       -112.7238   calculate D2E/DX2 analytically            !
 !       D6       -121.6878   calculate D2E/DX2 analytically            !
 !       D7        118.0239   calculate D2E/DX2 analytically            !
 !       D8          6.7485   calculate D2E/DX2 analytically            !
 !       D9       -120.3036   calculate D2E/DX2 analytically            !
 !       D10       121.3015   calculate D2E/DX2 analytically            !
 !       D11       -15.5202   calculate D2E/DX2 analytically            !
 !       D12       -34.9877   calculate D2E/DX2 analytically            !
 !       D13      -119.3787   calculate D2E/DX2 analytically            !
 !       D14       124.3371   calculate D2E/DX2 analytically            !
 !       D15       145.5321   calculate D2E/DX2 analytically            !
 !       D16       157.5002   calculate D2E/DX2 analytically            !
 !       D17       -40.618    calculate D2E/DX2 analytically            !
 !       D18      -154.9717   calculate D2E/DX2 analytically            !
 !       D19       -59.5996   calculate D2E/DX2 analytically            !
 !       D20       100.1956   calculate D2E/DX2 analytically            !
 !       D21      -114.2061   calculate D2E/DX2 analytically            !
 ------------------------------------------------------------------------
 Trust Radius=1.00D-01 FncErr=1.00D-07 GrdErr=1.00D-06 EigMax=2.50D+02 EigMin=1.00D-04
 Number of steps in this run=     67 maximum allowed number of steps=    114.
 Search for a saddle point of order  1.
 GradGradGradGradGradGradGradGradGradGradGradGradGradGradGradGradGradGrad

 ---------------------------------------------------------------------------------------------------
                            Z-MATRIX (ANGSTROMS AND DEGREES)
   CD    Cent   Atom    N1       Length/X        N2       Alpha/Y        N3        Beta/Z          J
 ---------------------------------------------------------------------------------------------------
      1      1  C 
      2      2  C        1   1.249243(     1)
      3      3  C        1   1.463824(     2)      2  154.202(    21)
      4      4  C        2   1.484854(     3)      1  146.669(    22)      3  -28.936(    40)      0
      5      5  O        3   1.444713(     4)      1  110.610(    23)      2 -112.724(    41)      0
      6      6  H        3   1.094590(     5)      1  111.752(    24)      5 -121.688(    42)      0
      7      7  H        3   1.093739(     6)      1  110.156(    25)      5  118.024(    43)      0
      8      8  H        4   1.090639(     7)      2  111.488(    26)      1    6.748(    44)      0
      9      9  H        4   1.091870(     8)      2  110.536(    27)      8 -120.304(    45)      0
     10     10  H        4   1.092060(     9)      2  110.881(    28)      8  121.301(    46)      0
     11     11  C        5   1.433024(    10)      3  112.409(    29)      1  -15.520(    47)      0
     12     12  C       11   1.497283(    11)      5  110.108(    30)      3  -34.988(    48)      0
     13     13  H       11   1.096060(    12)      5  104.519(    31)     12 -119.379(    49)      0
     14     14  H       11   1.095987(    13)      5  110.948(    32)     12  124.337(    50)      0
     15     15  C       12   1.380018(    14)     11  129.512(    33)      5  145.532(    51)      0
     16     16  H       12   1.088497(    15)     11  111.676(    34)     15  157.500(    52)      0
     17     17  C       15   1.407948(    16)     12  124.208(    35)     11  -40.618(    53)      0
     18     18  H       15   1.086049(    17)     12  115.487(    36)     17 -154.972(    54)      0
     19     19  H       17   1.355339(    18)     15   93.985(    37)     12  -59.600(    55)      0
     20     20  H       17   1.086358(    19)     15  119.874(    38)     19  100.196(    56)      0
     21     21  H       17   1.084813(    20)     15  118.012(    39)     19 -114.206(    57)      0
 ---------------------------------------------------------------------------------------------------
                         Z-Matrix orientation:                         
 ---------------------------------------------------------------------
 Center     Atomic      Atomic             Coordinates (Angstroms)
 Number     Number       Type             X           Y           Z
 ---------------------------------------------------------------------
      1          6           0        0.000000    0.000000    0.000000
      2          6           0        0.000000    0.000000    1.249243
      3          6           0        0.637051    0.000000   -1.317933
      4          6           0        0.714025   -0.394750    2.489860
      5          8           0        0.388072    1.247282   -2.003129
      6          1           0        0.280902   -0.826760   -1.940632
      7          1           0        1.721539   -0.094844   -1.212318
      8          1           0        1.700751   -0.803998    2.269902
      9          1           0        0.145930   -1.151670    3.034397
     10          1           0        0.830111    0.459175    3.160628
     11          6           0       -0.676710    1.996447   -1.404340
     12          6           0       -1.728216    1.068030   -0.880668
     13          1           0       -1.068338    2.616502   -2.218900
     14          1           0       -0.295384    2.662813   -0.622204
     15          6           0       -2.530120    1.189977    0.235812
     16          1           0       -2.115135    0.416908   -1.662436
     17          6           0       -2.085814    1.676137    1.480222
     18          1           0       -3.390611    0.528132    0.267712
     19          1           0       -1.144777    0.711924    1.627488
     20          1           0       -1.408197    2.524369    1.519120
     21          1           0       -2.773150    1.634223    2.318453
 ---------------------------------------------------------------------
                    Distance matrix (angstroms):
                    1          2          3          4          5
     1  C    0.000000
     2  C    1.249243   0.000000
     3  C    1.463824   2.645039   0.000000
     4  C    2.620127   1.484854   3.828974   0.000000
     5  O    2.391409   3.504888   1.444713   4.794734   0.000000
     6  H    2.128025   3.307225   1.094590   4.472525   2.077749
     7  H    2.107702   3.005325   1.093739   3.848526   2.050565
     8  H    2.948122   2.140260   3.827588   1.090639   4.918299
     9  H    3.248877   2.129416   4.528832   1.091870   5.584825
    10  H    3.299924   2.133851   4.506177   1.092060   5.242223
    11  C    2.532965   3.388989   2.391492   4.776690   1.433024
    12  C    2.214271   2.943458   2.631801   4.411886   2.402234
    13  H    3.593181   4.473863   3.250565   5.866591   2.010585
    14  H    2.750448   3.268048   2.905864   4.478007   2.092318
    15  C    2.805915   2.973987   3.723055   4.256357   3.678585
    16  H    2.722370   3.622911   2.804821   5.089646   2.659255
    17  C    3.057959   2.685779   4.248894   3.625885   4.293922
    18  H    3.441923   3.569113   4.360648   4.757909   4.466805
    19  H    2.113307   1.400150   3.515288   2.328854   3.977137
    20  H    3.265453   2.903151   4.313276   3.737301   4.154970
    21  H    3.966897   3.391792   5.246280   4.038132   5.368345
                    6          7          8          9         10
     6  H    0.000000
     7  H    1.772450   0.000000
     8  H    4.443544   3.553756   0.000000
     9  H    4.987453   4.651238   1.767144   0.000000
    10  H    5.289434   4.497137   1.773983   1.754669   0.000000
    11  C    3.029047   3.187785   5.195659   5.503614   5.047044
    12  C    2.958092   3.655555   5.018805   4.875165   4.821599
    13  H    3.708630   4.018460   6.286256   6.578047   6.098975
    14  H    3.774583   3.467115   4.936356   5.302431   4.520241
    15  C    4.087295   4.671665   5.100366   4.525112   4.514396
    16  H    2.713871   3.896738   5.613811   5.443628   5.651389
    17  C    4.854696   4.988194   4.594860   3.923345   3.578740
    18  H    4.493609   5.358420   5.630746   4.794101   5.117442
    19  H    4.139032   4.114747   3.287514   2.668015   2.512884
    20  H    5.104214   4.910832   4.615978   4.269032   3.459710
    21  H    5.789946   5.971453   5.095397   4.098147   3.882459
                   11         12         13         14         15
    11  C    0.000000
    12  C    1.497283   0.000000
    13  H    1.096060   2.150365   0.000000
    14  H    1.095987   2.159431   1.774554   0.000000
    15  C    2.603003   1.380018   3.193335   2.810601   0.000000
    16  H    2.151888   1.088497   2.498729   3.072077   2.091218
    17  C    3.226279   2.464036   3.950070   2.932467   1.407948
    18  H    3.509554   2.091369   3.992178   3.863838   1.086049
    19  H    3.325819   2.599627   4.292780   3.096539   2.021008
    20  H    3.059477   2.825300   3.754569   2.417186   2.164762
    21  H    4.287827   3.412746   4.945587   3.980551   2.143318
                   16         17         18         19         20
    16  H    0.000000
    17  C    3.385678   0.000000
    18  H    2.316178   2.119102   0.000000
    19  H    3.442706   1.355339   2.631832   0.000000
    20  H    3.881166   1.086358   3.079115   1.834691   0.000000
    21  H    4.214536   1.084813   2.410443   1.994910   1.815045
                   21
    21  H    0.000000
 Symmetry turned off by external request.
 Stoichiometry    C8H12O
 Framework group  C1[X(C8H12O)]
 Deg. of freedom    57
 Full point group                 C1      NOp   1
 Rotational constants (GHZ):           1.9853432           1.4937875           0.9603796
 Standard basis: def2TZVP (5D, 7F)
 The following finite field(s) will be applied:
 An electric field of             -0.0015  0.0079 -0.0059
   351 basis functions,   555 primitive gaussians,   396 cartesian basis functions
    34 alpha electrons       34 beta electrons
       nuclear repulsion energy       444.8868098845 Hartrees.
 NAtoms=   21 NActive=   21 NUniq=   21 SFac= 1.00D+00 NAtFMM=   60 NAOKFM=F Big=F
 Integral buffers will be    131072 words long.
 Raffenetti 2 integral format.
 Two-electron integral symmetry is turned off.
 One-electron integrals computed using PRISM.
   1 Symmetry operations used in ECPInt.
 ECPInt:  NShTT=   10878 NPrTT=   32112 LenC2=   10635 LenP2D=   24937.
 LDataN:  DoStor=T MaxTD1= 6 Len=  172
 NBasis=   351 RedAO= T EigKep=  2.17D-05  NBF=   351
 NBsUse=   351 1.00D-06 EigRej= -1.00D+00 NBFU=   351
 The nuclear repulsion energy is now       445.7543434222 hartrees.
 Initial guess from the checkpoint file:  "checkpoint.chk"
 B after Tr=    -0.000000    0.000000    0.000000
         Rot=    1.000000    0.000000   -0.000000    0.000000 Ang=   0.00 deg.
 Requested convergence on RMS density matrix=1.00D-08 within 128 cycles.
 Requested convergence on MAX density matrix=1.00D-06.
 Requested convergence on             energy=1.00D-06.
 No special actions if energy rises.
 SCF Done:  E(RB3LYP) =  -387.298665138     A.U. after   11 cycles
            NFock= 11  Conv=0.36D-08     -V/T= 2.0053
 DoSCS=F DFT=T ScalE2(SS,OS)=  1.000000  1.000000
 Range of M.O.s used for correlation:     1   351
 NBasis=   351 NAE=    34 NBE=    34 NFC=     0 NFV=     0
 NROrb=    351 NOA=    34 NOB=    34 NVA=   317 NVB=   317

 **** Warning!!: The largest alpha MO coefficient is  0.32284186D+02

   1 Symmetry operations used in ECPInt.
 ECPInt:  NShTT=   10878 NPrTT=   32112 LenC2=   10635 LenP2D=   24937.
 LDataN:  DoStor=T MaxTD1= 7 Len=  274
 Symmetrizing basis deriv contribution to polar:
 IMax=3 JMax=2 DiffMx= 0.00D+00
 G2DrvN: will do    22 centers at a time, making    1 passes.
 Calling FoFCou, ICntrl=  3107 FMM=F I1Cent=   0 AccDes= 0.00D+00.
 End of G2Drv F.D. properties file   721 does not exist.
 End of G2Drv F.D. properties file   722 does not exist.
 End of G2Drv F.D. properties file   788 does not exist.
          IDoAtm=111111111111111111111
          Differentiating once with respect to nuclear coordinates.
 CalDSu exits because no D1Ps are significant.
          There are    66 degrees of freedom in the 1st order CPHF.  IDoFFX=6 NUNeed=     0.
     60 vectors produced by pass  0 Test12= 1.63D-14 1.52D-09 XBig12= 2.01D-01 1.48D-01.
 AX will form    60 AO Fock derivatives at one time.
     60 vectors produced by pass  1 Test12= 1.63D-14 1.52D-09 XBig12= 2.91D-02 3.78D-02.
     60 vectors produced by pass  2 Test12= 1.63D-14 1.52D-09 XBig12= 3.46D-04 2.18D-03.
     60 vectors produced by pass  3 Test12= 1.63D-14 1.52D-09 XBig12= 1.47D-06 1.15D-04.
     60 vectors produced by pass  4 Test12= 1.63D-14 1.52D-09 XBig12= 3.51D-09 6.12D-06.
     55 vectors produced by pass  5 Test12= 1.63D-14 1.52D-09 XBig12= 6.26D-12 3.26D-07.
     12 vectors produced by pass  6 Test12= 1.63D-14 1.52D-09 XBig12= 7.90D-15 9.48D-09.
 InvSVY:  IOpt=1 It=  1 EMax= 7.22D-16
 Solved reduced A of dimension   367 with    66 vectors.
 End of Minotr F.D. properties file   721 does not exist.
 End of Minotr F.D. properties file   722 does not exist.
 End of Minotr F.D. properties file   788 does not exist.
   1 Symmetry operations used in ECPInt.
 ECPInt:  NShTT=   10878 NPrTT=   32112 LenC2=   10635 LenP2D=   24937.
 LDataN:  DoStor=T MaxTD1= 8 Len=  415
 Calling FoFJK, ICntrl=    100147 FMM=F ISym2X=0 I1Cent= 0 IOpClX= 0 NMat=1 NMatS=1 NMatT=0.
 -------------------------------------------------------------------
 Center     Atomic                   Forces (Hartrees/Bohr)
 Number     Number              X              Y              Z
 -------------------------------------------------------------------
      1        6          -0.000181635    0.002152163   -0.000012926
      2        6           0.000926048   -0.001671383   -0.000283615
      3        6           0.000053821   -0.001617804    0.000904573
      4        6          -0.000076095   -0.000100723    0.000506309
      5        8          -0.000203553    0.001795859   -0.001035970
      6        1           0.000053502    0.000110273    0.000031940
      7        1          -0.000118679   -0.000050894    0.000060406
      8        1          -0.000253359   -0.000054824   -0.000122228
      9        1           0.000084859   -0.000000123   -0.000052279
     10        1          -0.000102514   -0.000073092    0.000021336
     11        6           0.000267757   -0.001203993    0.000497663
     12        6          -0.000191149    0.000179517    0.000006662
     13        1          -0.000134765    0.000421003   -0.000629024
     14        1          -0.000026235    0.000110535    0.000205644
     15        6          -0.000620207    0.000595062   -0.000238280
     16        1           0.000070519   -0.000093079   -0.000028538
     17        6          -0.000184287   -0.000028032    0.000042793
     18        1           0.000186542   -0.000161399    0.000101058
     19        1           0.000074275   -0.000112631   -0.000110631
     20        1           0.000209049   -0.000001536    0.000054626
     21        1           0.000166105   -0.000194898    0.000080480
 -------------------------------------------------------------------
 Cartesian Forces:  Max     0.002152163 RMS     0.000565441
 -----------------------------------------------------------------------------------------------
                       Internal Coordinate Forces (Hartree/Bohr or radian)
  Cent   Atom   N1       Length/X         N2         Alpha/Y        N3         Beta/Z          J
 -----------------------------------------------------------------------------------------------
      1  C 
      2  C        1   0.000070(     1)
      3  C        1  -0.000122(     2)      2   0.000404(    21)
      4  C        2   0.000189(     3)      1   0.000664(    22)      3  -0.000595(    40)     0
      5  O        3   0.001694(     4)      1  -0.000657(    23)      2   0.000015(    41)     0
      6  H        3  -0.000119(     5)      1   0.000086(    24)      5   0.000026(    42)     0
      7  H        3  -0.000107(     6)      1  -0.000152(    25)      5   0.000113(    43)     0
      8  H        4  -0.000184(     7)      2  -0.000314(    26)      1   0.000048(    44)     0
      9  H        4  -0.000070(     8)      2   0.000048(    27)      8   0.000129(    45)     0
     10  H        4  -0.000055(     9)      2   0.000017(    28)      8   0.000222(    46)     0
     11  C        5  -0.000128(    10)      3  -0.000934(    29)      1  -0.000773(    47)     0
     12  C       11   0.000057(    11)      5   0.000401(    30)      3  -0.001311(    48)     0
     13  H       11   0.000754(    12)      5  -0.000282(    31)     12  -0.000133(    49)     0
     14  H       11   0.000205(    13)      5   0.000200(    32)     12  -0.000122(    50)     0
     15  C       12   0.000050(    14)     11   0.000254(    33)      5  -0.001197(    51)     0
     16  H       12   0.000051(    15)     11  -0.000046(    34)     15   0.000204(    52)     0
     17  C       15   0.000027(    16)     12  -0.000844(    35)     11  -0.000813(    53)     0
     18  H       15  -0.000046(    17)     12  -0.000048(    36)     17   0.000484(    54)     0
     19  H       17   0.000120(    18)     15  -0.000312(    37)     12   0.000260(    55)     0
     20  H       17   0.000131(    19)     15   0.000115(    38)     19  -0.000289(    56)     0
     21  H       17  -0.000036(    20)     15   0.000169(    39)     19   0.000458(    57)     0
 -----------------------------------------------------------------------------------------------
 Internal  Forces:  Max     0.001694049 RMS     0.000466776

 GradGradGradGradGradGradGradGradGradGradGradGradGradGradGradGradGradGrad
 Berny optimization.
 Search for a saddle point.
 Step number   1 out of a maximum of   67
 All quantities printed in internal units (Hartrees-Bohrs-Radians)
 Swapping is turned off.
 Second derivative matrix not updated -- analytic derivatives used.
 ITU=  0
     Eigenvalues ---   -0.28389   0.00466   0.00748   0.01148   0.01374
     Eigenvalues ---    0.05161   0.05556   0.05775   0.06314   0.07292
     Eigenvalues ---    0.09257   0.09453   0.10635   0.11805   0.11926
     Eigenvalues ---    0.12574   0.13011   0.14653   0.15399   0.16780
     Eigenvalues ---    0.17729   0.20894   0.21389   0.21943   0.22424
     Eigenvalues ---    0.23213   0.24260   0.24764   0.26580   0.27554
     Eigenvalues ---    0.28247   0.30345   0.30732   0.31234   0.31743
     Eigenvalues ---    0.32136   0.33277   0.33563   0.34414   0.34502
     Eigenvalues ---    0.34555   0.34826   0.34890   0.34952   0.35972
     Eigenvalues ---    0.36585   0.36624   0.37673   0.41805   0.43399
     Eigenvalues ---    0.46263   0.48141   0.65803   0.80054   1.36592
     Eigenvalues ---    2.57718   5.54601
 Eigenvectors required to have negative eigenvalues:
                          R19       A3        A4        D12       R17
   1                    0.56972  -0.36851  -0.36683   0.25065  -0.23122
                          R2        A5        D15       D20       R15
   1                    0.19128  -0.17110   0.16490  -0.16461   0.16408
 RFO step:  Lambda0=8.838490552D-07 Lambda=-6.75087770D-05.
 Linear search not attempted -- option 19 set.
 Variable       Old X    -DE/DX   Delta X   Delta X   Delta X     New X
                                 (Linear)    (Quad)   (Total)
    R2        2.36073   0.00007   0.00000   0.00053   0.00053   2.36126
    R3        2.76623  -0.00012   0.00000  -0.00240  -0.00240   2.76382
    R4        2.80597   0.00019   0.00000   0.00167   0.00167   2.80764
    R5        2.73011   0.00169   0.00000   0.00723   0.00723   2.73735
    R6        2.06847  -0.00012   0.00000  -0.00069  -0.00069   2.06779
    R7        2.06687  -0.00011   0.00000  -0.00053  -0.00053   2.06633
    R8        2.06101  -0.00018   0.00000  -0.00074  -0.00074   2.06027
    R9        2.06334  -0.00007   0.00000  -0.00009  -0.00009   2.06324
   R10        2.06369  -0.00005   0.00000  -0.00052  -0.00052   2.06317
   R11        2.70802  -0.00013   0.00000  -0.00089  -0.00089   2.70714
   R12        2.82945   0.00006   0.00000  -0.00126  -0.00126   2.82820
   R13        2.07125   0.00075   0.00000   0.00275   0.00275   2.07400
   R14        2.07112   0.00020   0.00000   0.00066   0.00066   2.07177
   R15        2.60786   0.00005   0.00000   0.00059   0.00059   2.60844
   R16        2.05696   0.00005   0.00000   0.00004   0.00004   2.05700
   R17        2.66064   0.00003   0.00000  -0.00087  -0.00087   2.65977
   R18        2.05233  -0.00005   0.00000   0.00001   0.00001   2.05234
   R19        2.56122   0.00012   0.00000   0.01311   0.01311   2.57433
   R20        2.05292   0.00013   0.00000   0.00004   0.00004   2.05296
   R21        2.05000  -0.00004   0.00000  -0.00029  -0.00029   2.04971
    A3        2.69134   0.00040   0.00000   0.00580   0.00580   2.69714
    A4        2.55986   0.00066   0.00000  -0.00036  -0.00036   2.55951
    A5        1.93051  -0.00066   0.00000   0.00101   0.00101   1.93153
    A6        1.95044   0.00009   0.00000   0.00103   0.00103   1.95147
    A7        1.92258  -0.00015   0.00000   0.00063   0.00063   1.92322
    A8        1.94583  -0.00031   0.00000  -0.00128  -0.00128   1.94456
    A9        1.92921   0.00005   0.00000  -0.00238  -0.00238   1.92683
   A10        1.93524   0.00002   0.00000   0.00166   0.00166   1.93690
   A11        1.96191  -0.00093   0.00000  -0.00083  -0.00083   1.96108
   A12        1.92175   0.00040   0.00000   0.00412   0.00412   1.92587
   A13        1.82420  -0.00028   0.00000  -0.00229  -0.00229   1.82191
   A14        1.93642   0.00020   0.00000   0.00054   0.00054   1.93696
   A15        2.26042   0.00025   0.00000  -0.00120  -0.00120   2.25922
   A16        1.94911  -0.00005   0.00000   0.00227   0.00227   1.95138
   A17        2.16784  -0.00084   0.00000   0.00088   0.00088   2.16872
   A18        2.01563  -0.00005   0.00000  -0.00108  -0.00108   2.01456
   A19        1.64034  -0.00031   0.00000  -0.00254  -0.00254   1.63781
   A20        2.09219   0.00011   0.00000   0.00259   0.00259   2.09478
   A21        2.05970   0.00017   0.00000   0.00218   0.00218   2.06188
    D4       -0.50503  -0.00059   0.00000  -0.04584  -0.04584  -0.55087
    D5       -1.96740   0.00001   0.00000   0.02228   0.02228  -1.94513
    D6       -2.12385   0.00003   0.00000   0.00079   0.00079  -2.12306
    D7        2.05991   0.00011   0.00000  -0.00132  -0.00132   2.05859
    D8        0.11778   0.00005   0.00000   0.03163   0.03163   0.14941
    D9       -2.09969   0.00013   0.00000   0.00327   0.00327  -2.09642
   D10        2.11711   0.00022   0.00000   0.00326   0.00326   2.12037
   D11       -0.27088  -0.00077   0.00000  -0.00608  -0.00608  -0.27696
   D12       -0.61065  -0.00131   0.00000   0.00036   0.00036  -0.61029
   D13       -2.08355  -0.00013   0.00000  -0.00194  -0.00194  -2.08549
   D14        2.17009  -0.00012   0.00000   0.00065   0.00065   2.17074
   D15        2.54001  -0.00120   0.00000  -0.00504  -0.00504   2.53497
   D16        2.74890   0.00020   0.00000   0.00803   0.00803   2.75693
   D17       -0.70892  -0.00081   0.00000   0.00673   0.00673  -0.70219
   D18       -2.70477   0.00048   0.00000   0.00458   0.00458  -2.70019
   D19       -1.04021   0.00026   0.00000   0.00305   0.00305  -1.03716
   D20        1.74874  -0.00029   0.00000  -0.00690  -0.00690   1.74185
   D21       -1.99327   0.00046   0.00000   0.00559   0.00559  -1.98768
         Item               Value     Threshold  Converged?
 Maximum Force            0.001694     0.000450     NO 
 RMS     Force            0.000467     0.000300     NO 
 Maximum Displacement     0.045838     0.001800     NO 
 RMS     Displacement     0.008634     0.001200     NO 
 Predicted change in Energy=-3.345640D-05
 GradGradGradGradGradGradGradGradGradGradGradGradGradGradGradGradGradGrad

 ---------------------------------------------------------------------------------------------------
                            Z-MATRIX (ANGSTROMS AND DEGREES)
   CD    Cent   Atom    N1       Length/X        N2       Alpha/Y        N3        Beta/Z          J
 ---------------------------------------------------------------------------------------------------
      1      1  C 
      2      2  C        1   1.249523(     1)
      3      3  C        1   1.462553(     2)      2  154.535(    21)
      4      4  C        2   1.485737(     3)      1  146.649(    22)      3  -31.562(    40)      0
      5      5  O        3   1.448541(     4)      1  110.668(    23)      2 -111.448(    41)      0
      6      6  H        3   1.094226(     5)      1  111.811(    24)      5 -121.643(    42)      0
      7      7  H        3   1.093456(     6)      1  110.192(    25)      5  117.948(    43)      0
      8      8  H        4   1.090246(     7)      2  111.415(    26)      1    8.561(    44)      0
      9      9  H        4   1.091821(     8)      2  110.399(    27)      8 -120.116(    45)      0
     10     10  H        4   1.091783(     9)      2  110.976(    28)      8  121.489(    46)      0
     11     11  C        5   1.432556(    10)      3  112.362(    29)      1  -15.869(    47)      0
     12     12  C       11   1.496619(    11)      5  110.344(    30)      3  -34.967(    48)      0
     13     13  H       11   1.097515(    12)      5  104.388(    31)     12 -119.490(    49)      0
     14     14  H       11   1.096334(    13)      5  110.980(    32)     12  124.374(    50)      0
     15     15  C       12   1.380328(    14)     11  129.444(    33)      5  145.243(    51)      0
     16     16  H       12   1.088517(    15)     11  111.806(    34)     15  157.960(    52)      0
     17     17  C       15   1.407490(    16)     12  124.259(    35)     11  -40.233(    53)      0
     18     18  H       15   1.086054(    17)     12  115.426(    36)     17 -154.709(    54)      0
     19     19  H       17   1.362275(    18)     15   93.839(    37)     12  -59.425(    55)      0
     20     20  H       17   1.086378(    19)     15  120.022(    38)     19   99.800(    56)      0
     21     21  H       17   1.084661(    20)     15  118.137(    39)     19 -113.886(    57)      0
 ---------------------------------------------------------------------------------------------------
                         Z-Matrix orientation:                         
 ---------------------------------------------------------------------
 Center     Atomic      Atomic             Coordinates (Angstroms)
 Number     Number       Type             X           Y           Z
 ---------------------------------------------------------------------
      1          6           0        0.000000    0.000000    0.000000
      2          6           0        0.000000    0.000000    1.249523
      3          6           0        0.628844    0.000000   -1.320460
      4          6           0        0.695981   -0.427541    2.490584
      5          8           0        0.401251    1.261461   -1.995137
      6          1           0        0.252814   -0.812291   -1.949837
      7          1           0        1.711715   -0.116193   -1.222806
      8          1           0        1.675898   -0.852184    2.271314
      9          1           0        0.108465   -1.183652    3.015173
     10          1           0        0.820659    0.411712    3.177679
     11          6           0       -0.649931    2.022277   -1.388184
     12          6           0       -1.719457    1.111905   -0.871267
     13          1           0       -1.028955    2.658369   -2.198287
     14          1           0       -0.257182    2.675051   -0.599779
     15          6           0       -2.513539    1.240078    0.250478
     16          1           0       -2.119816    0.472142   -1.655668
     17          6           0       -2.055663    1.709304    1.495952
     18          1           0       -3.382640    0.589619    0.283341
     19          1           0       -1.124299    0.723935    1.627871
     20          1           0       -1.360456    2.542919    1.540574
     21          1           0       -2.735519    1.666590    2.340025
 ---------------------------------------------------------------------
                    Distance matrix (angstroms):
                    1          2          3          4          5
     1  C    0.000000
     2  C    1.249523   0.000000
     3  C    1.462553   2.645801   0.000000
     4  C    2.621105   1.485737   3.835539   0.000000
     5  O    2.394339   3.504299   1.448541   4.802218   0.000000
     6  H    2.127345   3.310535   1.094226   4.479037   2.079551
     7  H    2.106828   3.009300   1.093456   3.862373   2.052253
     8  H    2.948511   2.139838   3.837106   1.090246   4.928978
     9  H    3.240997   2.128453   4.524328   1.091821   5.582787
    10  H    3.307663   2.135596   4.521013   1.091783   5.258898
    11  C    2.537532   3.386667   2.393628   4.780997   1.432556
    12  C    2.225303   2.947985   2.636784   4.416592   2.404757
    13  H    3.599742   4.473597   3.253583   5.872288   2.009505
    14  H    2.753502   3.262201   2.908663   4.481623   2.092557
    15  C    2.813967   2.975527   3.725615   4.254415   3.679571
    16  H    2.730893   3.627213   2.808989   5.092107   2.663465
    17  C    3.063551   2.684809   4.249762   3.623113   4.292399
    18  H    3.445313   3.566989   4.360256   4.747809   4.467735
    19  H    2.106679   1.389704   3.505745   2.320257   3.967672
    20  H    3.269655   2.898618   4.313846   3.735651   4.152951
    21  H    3.966901   3.383753   5.243627   4.022841   5.366292
                    6          7          8          9         10
     6  H    0.000000
     7  H    1.772434   0.000000
     8  H    4.454759   3.570972   0.000000
     9  H    4.980970   4.655142   1.766365   0.000000
    10  H    5.302080   4.520723   1.774927   1.754655   0.000000
    11  C    3.027405   3.190262   5.202301   5.499336   5.060006
    12  C    2.959003   3.661250   5.026121   4.869835   4.830778
    13  H    3.708119   4.020078   6.294247   6.575333   6.113064
    14  H    3.774163   3.472140   4.941797   5.300109   4.533611
    15  C    4.087335   4.675768   5.100266   4.515850   4.513487
    16  H    2.713978   3.900531   5.619829   5.433566   5.657852
    17  C    4.853964   4.991716   4.592054   3.919270   3.575637
    18  H    4.490986   5.359020   5.623134   4.774432   5.106521
    19  H    4.129943   4.107938   3.277083   2.661428   2.506442
    20  H    5.103239   4.913795   4.613041   4.268430   3.461129
    21  H    5.786010   5.970760   5.080309   4.082640   3.863002
                   11         12         13         14         15
    11  C    0.000000
    12  C    1.496619   0.000000
    13  H    1.097515   2.151587   0.000000
    14  H    1.096334   2.157633   1.775145   0.000000
    15  C    2.601938   1.380328   3.195620   2.805927   0.000000
    16  H    2.152912   1.088517   2.502799   3.071989   2.092400
    17  C    3.223705   2.464476   3.949969   2.925626   1.407490
    18  H    3.509160   2.090951   3.997254   3.859716   1.086054
    19  H    3.317726   2.598157   4.288427   3.085639   2.023264
    20  H    3.058356   2.827306   3.755304   2.411593   2.165950
    21  H    4.286693   3.413569   4.948966   3.975122   2.144154
                   16         17         18         19         20
    16  H    0.000000
    17  C    3.386354   0.000000
    18  H    2.316955   2.117779   0.000000
    19  H    3.440361   1.362275   2.631711   0.000000
    20  H    3.883389   1.086378   3.079812   1.836326   0.000000
    21  H    4.215609   1.084661   2.410100   1.997947   1.816004
                   21
    21  H    0.000000
 Symmetry turned off by external request.
 Stoichiometry    C8H12O
 Framework group  C1[X(C8H12O)]
 Deg. of freedom    57
 Full point group                 C1      NOp   1
 Rotational constants (GHZ):           1.9859820           1.4909677           0.9593264
 Standard basis: def2TZVP (5D, 7F)
 The following finite field(s) will be applied:
 An electric field of             -0.0015  0.0079 -0.0059
   351 basis functions,   555 primitive gaussians,   396 cartesian basis functions
    34 alpha electrons       34 beta electrons
       nuclear repulsion energy       444.6941006236 Hartrees.
 NAtoms=   21 NActive=   21 NUniq=   21 SFac= 1.00D+00 NAtFMM=   60 NAOKFM=F Big=F
 Integral buffers will be    131072 words long.
 Raffenetti 2 integral format.
 Two-electron integral symmetry is turned off.
 One-electron integrals computed using PRISM.
   1 Symmetry operations used in ECPInt.
 ECPInt:  NShTT=   10878 NPrTT=   32112 LenC2=   10635 LenP2D=   24933.
 LDataN:  DoStor=T MaxTD1= 6 Len=  172
 NBasis=   351 RedAO= T EigKep=  2.17D-05  NBF=   351
 NBsUse=   351 1.00D-06 EigRej= -1.00D+00 NBFU=   351
 The nuclear repulsion energy is now       445.5688065779 hartrees.
 Initial guess from the checkpoint file:  "checkpoint.chk"
 B after Tr=    -0.013833    0.005912    0.000168
         Rot=    0.999944   -0.004050   -0.000657    0.009705 Ang=  -1.21 deg.
 ExpMin= 9.52D-02 ExpMax= 2.70D+04 ExpMxC= 9.22D+02 IAcc=2 IRadAn=         4 AccDes= 0.00D+00
 Harris functional with IExCor=  402 and IRadAn=       4 diagonalized for initial guess.
 HarFok:  IExCor=  402 AccDes= 0.00D+00 IRadAn=         4 IDoV= 1 UseB2=F ITyADJ=14
 ICtDFT=  3500011 ScaDFX=  1.000000  1.000000  1.000000  1.000000
 FoFCou: FMM=F IPFlag=           0 FMFlag=      100000 FMFlg1=           0
         NFxFlg=           0 DoJE=T BraDBF=F KetDBF=T FulRan=T
         wScrn=  0.000000 ICntrl=       500 IOpCl=  0 I1Cent=   200000004 NGrid=           0
         NMat0=    1 NMatS0=      1 NMatT0=    0 NMatD0=    1 NMtDS0=    0 NMtDT0=    0
 Symmetry not used in FoFCou.
 Requested convergence on RMS density matrix=1.00D-08 within 128 cycles.
 Requested convergence on MAX density matrix=1.00D-06.
 Requested convergence on             energy=1.00D-06.
 No special actions if energy rises.
 Integral accuracy reduced to 1.0D-05 until final iterations.
 Initial convergence to 1.0D-05 achieved.  Increase integral accuracy.
 SCF Done:  E(RB3LYP) =  -387.298698467     A.U. after   11 cycles
            NFock= 11  Conv=0.75D-08     -V/T= 2.0054
   1 Symmetry operations used in ECPInt.
 ECPInt:  NShTT=   10878 NPrTT=   32112 LenC2=   10635 LenP2D=   24933.
 LDataN:  DoStor=T MaxTD1= 7 Len=  274
 Calling FoFJK, ICntrl=      2127 FMM=F ISym2X=0 I1Cent= 0 IOpClX= 0 NMat=1 NMatS=1 NMatT=0.
 -------------------------------------------------------------------
 Center     Atomic                   Forces (Hartrees/Bohr)
 Number     Number              X              Y              Z
 -------------------------------------------------------------------
      1        6          -0.000285520    0.002924807   -0.000000638
      2        6           0.000324047   -0.002579063    0.000008978
      3        6          -0.000010160   -0.000384184    0.000004402
      4        6           0.000005950   -0.000003863    0.000002723
      5        8          -0.000000678    0.000021462   -0.000011384
      6        1          -0.000000431   -0.000000468    0.000000234
      7        1           0.000001730   -0.000000067    0.000000640
      8        1           0.000003288   -0.000000892    0.000002230
      9        1          -0.000000324   -0.000000388   -0.000001216
     10        1           0.000000295    0.000000794   -0.000002234
     11        6           0.000001213   -0.000001407    0.000000575
     12        6          -0.000002355    0.000003645   -0.000001376
     13        1          -0.000001356    0.000002102   -0.000003020
     14        1           0.000000634   -0.000000644    0.000000776
     15        6          -0.000007770   -0.000000146   -0.000005486
     16        1           0.000000282   -0.000000464   -0.000001172
     17        6          -0.000009419    0.000013246    0.000002621
     18        1          -0.000000898    0.000000831   -0.000000745
     19        1          -0.000021755    0.000008638    0.000006276
     20        1           0.000003738    0.000000142   -0.000002349
     21        1          -0.000000511   -0.000004079    0.000000164
 -------------------------------------------------------------------
 Cartesian Forces:  Max     0.002924807 RMS     0.000496689
 -----------------------------------------------------------------------------------------------
                       Internal Coordinate Forces (Hartree/Bohr or radian)
  Cent   Atom   N1       Length/X         N2         Alpha/Y        N3         Beta/Z          J
 -----------------------------------------------------------------------------------------------
      1  C 
      2  C        1   0.000010(     1)
      3  C        1  -0.000012(     2)      2  -0.000084(    21)
      4  C        2   0.000007(     3)      1  -0.000014(    22)      3   0.000002(    40)     0
      5  O        3   0.000051(     4)      1   0.000186(    23)      2  -0.000019(    41)     0
      6  H        3   0.000000(     5)      1  -0.000001(    24)      5  -0.000000(    42)     0
      7  H        3   0.000002(     6)      1  -0.000001(    25)      5  -0.000000(    43)     0
      8  H        4   0.000003(     7)      2   0.000006(    26)      1   0.000000(    44)     0
      9  H        4  -0.000000(     8)      2  -0.000002(    27)      8   0.000001(    45)     0
     10  H        4  -0.000001(     9)      2  -0.000004(    28)      8  -0.000003(    46)     0
     11  C        5   0.000038(    10)      3   0.000266(    29)      1  -0.000154(    47)     0
     12  C       11   0.000014(    11)      5   0.000141(    30)      3  -0.000085(    48)     0
     13  H       11   0.000004(    12)      5  -0.000000(    31)     12   0.000000(    49)     0
     14  H       11   0.000000(    13)      5  -0.000001(    32)     12  -0.000002(    50)     0
     15  C       12   0.000023(    14)     11   0.000019(    33)      5   0.000159(    51)     0
     16  H       12   0.000001(    15)     11  -0.000002(    34)     15   0.000001(    52)     0
     17  C       15   0.000003(    16)     12   0.000073(    35)     11   0.000028(    53)     0
     18  H       15   0.000000(    17)     12  -0.000000(    36)     17  -0.000003(    54)     0
     19  H       17  -0.000021(    18)     15   0.000007(    37)     12  -0.000031(    55)     0
     20  H       17   0.000002(    19)     15  -0.000005(    38)     19  -0.000005(    56)     0
     21  H       17   0.000001(    20)     15  -0.000004(    39)     19   0.000007(    57)     0
 -----------------------------------------------------------------------------------------------
 Internal  Forces:  Max     0.000265697 RMS     0.000059538

 GradGradGradGradGradGradGradGradGradGradGradGradGradGradGradGradGradGrad
 Berny optimization.
 Search for a saddle point.
 Step number   2 out of a maximum of   67
 All quantities printed in internal units (Hartrees-Bohrs-Radians)
 Swapping is turned off.
 Update second derivatives using D2CorN and points    1    2
 ITU=  0  0
     Eigenvalues ---   -0.28385   0.00470   0.00748   0.01149   0.01376
     Eigenvalues ---    0.05162   0.05556   0.05775   0.06313   0.07292
     Eigenvalues ---    0.09257   0.09453   0.10635   0.11805   0.11926
     Eigenvalues ---    0.12573   0.13011   0.14653   0.15399   0.16780
     Eigenvalues ---    0.17728   0.20894   0.21389   0.21943   0.22424
     Eigenvalues ---    0.23213   0.24260   0.24764   0.26580   0.27553
     Eigenvalues ---    0.28246   0.30345   0.30732   0.31234   0.31743
     Eigenvalues ---    0.32136   0.33277   0.33563   0.34414   0.34502
     Eigenvalues ---    0.34555   0.34826   0.34890   0.34952   0.35972
     Eigenvalues ---    0.36585   0.36623   0.37673   0.41805   0.43399
     Eigenvalues ---    0.46263   0.48141   0.65804   0.80054   1.36591
     Eigenvalues ---    2.57717   5.54604
 Eigenvectors required to have negative eigenvalues:
                          R19       A3        A4        D12       R17
   1                    0.56931  -0.36872  -0.36680   0.25062  -0.23120
                          R2        A5        D15       D20       R15
   1                    0.19127  -0.17115   0.16510  -0.16441   0.16409
 RFO step:  Lambda0=2.947810498D-08 Lambda=-4.99737981D-08.
 Linear search not attempted -- option 19 set.
 Variable       Old X    -DE/DX   Delta X   Delta X   Delta X     New X
                                 (Linear)    (Quad)   (Total)
    R2        2.36126   0.00001   0.00000   0.00004   0.00004   2.36130
    R3        2.76382  -0.00001   0.00000  -0.00001  -0.00001   2.76382
    R4        2.80764   0.00001   0.00000   0.00003   0.00003   2.80766
    R5        2.73735   0.00005   0.00000   0.00009   0.00009   2.73743
    R6        2.06779   0.00000   0.00000  -0.00000  -0.00000   2.06778
    R7        2.06633   0.00000   0.00000   0.00000   0.00000   2.06634
    R8        2.06027   0.00000   0.00000   0.00001   0.00001   2.06027
    R9        2.06324  -0.00000   0.00000  -0.00000  -0.00000   2.06324
   R10        2.06317  -0.00000   0.00000  -0.00000  -0.00000   2.06317
   R11        2.70714   0.00004   0.00000   0.00001   0.00001   2.70715
   R12        2.82820   0.00001   0.00000   0.00000   0.00000   2.82820
   R13        2.07400   0.00000   0.00000   0.00001   0.00001   2.07402
   R14        2.07177   0.00000   0.00000   0.00000   0.00000   2.07177
   R15        2.60844   0.00002   0.00000   0.00003   0.00003   2.60847
   R16        2.05700   0.00000   0.00000   0.00000   0.00000   2.05700
   R17        2.65977   0.00000   0.00000  -0.00003  -0.00003   2.65974
   R18        2.05234   0.00000   0.00000  -0.00000  -0.00000   2.05234
   R19        2.57433  -0.00002   0.00000   0.00030   0.00030   2.57462
   R20        2.05296   0.00000   0.00000   0.00000   0.00000   2.05296
   R21        2.04971   0.00000   0.00000  -0.00000  -0.00000   2.04971
    A3        2.69714  -0.00008   0.00000   0.00008   0.00008   2.69723
    A4        2.55951  -0.00001   0.00000  -0.00016  -0.00016   2.55935
    A5        1.93153   0.00019   0.00000  -0.00002  -0.00002   1.93151
    A6        1.95147  -0.00000   0.00000   0.00000   0.00000   1.95147
    A7        1.92322  -0.00000   0.00000   0.00003   0.00003   1.92325
    A8        1.94456   0.00001   0.00000   0.00003   0.00003   1.94459
    A9        1.92683  -0.00000   0.00000  -0.00001  -0.00001   1.92681
   A10        1.93690  -0.00000   0.00000  -0.00003  -0.00003   1.93687
   A11        1.96108   0.00027   0.00000  -0.00005  -0.00005   1.96104
   A12        1.92587   0.00014   0.00000  -0.00001  -0.00001   1.92586
   A13        1.82191  -0.00000   0.00000   0.00002   0.00002   1.82193
   A14        1.93696  -0.00000   0.00000  -0.00002  -0.00002   1.93694
   A15        2.25922   0.00002   0.00000  -0.00000  -0.00000   2.25921
   A16        1.95138  -0.00000   0.00000  -0.00001  -0.00001   1.95136
   A17        2.16872   0.00007   0.00000  -0.00001  -0.00001   2.16871
   A18        2.01456  -0.00000   0.00000   0.00001   0.00001   2.01456
   A19        1.63781   0.00001   0.00000  -0.00004  -0.00004   1.63777
   A20        2.09478  -0.00000   0.00000   0.00001   0.00001   2.09479
   A21        2.06188  -0.00000   0.00000   0.00002   0.00002   2.06190
    D4       -0.55087   0.00000   0.00000   0.00029   0.00029  -0.55057
    D5       -1.94513  -0.00002   0.00000   0.00008   0.00008  -1.94504
    D6       -2.12306  -0.00000   0.00000  -0.00001  -0.00001  -2.12307
    D7        2.05859  -0.00000   0.00000  -0.00005  -0.00005   2.05854
    D8        0.14941   0.00000   0.00000  -0.00003  -0.00003   0.14938
    D9       -2.09642   0.00000   0.00000  -0.00002  -0.00002  -2.09644
   D10        2.12037  -0.00000   0.00000  -0.00001  -0.00001   2.12037
   D11       -0.27696  -0.00015   0.00000  -0.00034  -0.00034  -0.27730
   D12       -0.61029  -0.00009   0.00000   0.00026   0.00026  -0.61003
   D13       -2.08549   0.00000   0.00000  -0.00002  -0.00002  -2.08550
   D14        2.17074  -0.00000   0.00000  -0.00003  -0.00003   2.17072
   D15        2.53497   0.00016   0.00000   0.00009   0.00009   2.53506
   D16        2.75693   0.00000   0.00000  -0.00011  -0.00011   2.75682
   D17       -0.70219   0.00003   0.00000  -0.00007  -0.00007  -0.70226
   D18       -2.70019  -0.00000   0.00000  -0.00004  -0.00004  -2.70023
   D19       -1.03716  -0.00003   0.00000  -0.00003  -0.00003  -1.03719
   D20        1.74185  -0.00001   0.00000  -0.00012  -0.00012   1.74173
   D21       -1.98768   0.00001   0.00000   0.00010   0.00010  -1.98758
         Item               Value     Threshold  Converged?
 Maximum Force            0.000266     0.000450     YES
 RMS     Force            0.000060     0.000300     YES
 Maximum Displacement     0.000339     0.001800     YES
 RMS     Displacement     0.000091     0.001200     YES
 Predicted change in Energy=-1.024785D-08
 Optimization completed.
    -- Stationary point found.
                       ----------------------------
                       !   Optimized Parameters   !
                       ! (Angstroms and Degrees)  !
 ----------------------                            ----------------------
 !      Name          Value   Derivative information (Atomic Units)     !
 ------------------------------------------------------------------------
 !       R2          1.2495   -DE/DX =    0.0                           !
 !       R3          1.4626   -DE/DX =    0.0                           !
 !       R4          1.4857   -DE/DX =    0.0                           !
 !       R5          1.4485   -DE/DX =    0.0001                        !
 !       R6          1.0942   -DE/DX =    0.0                           !
 !       R7          1.0935   -DE/DX =    0.0                           !
 !       R8          1.0902   -DE/DX =    0.0                           !
 !       R9          1.0918   -DE/DX =    0.0                           !
 !       R10         1.0918   -DE/DX =    0.0                           !
 !       R11         1.4326   -DE/DX =    0.0                           !
 !       R12         1.4966   -DE/DX =    0.0                           !
 !       R13         1.0975   -DE/DX =    0.0                           !
 !       R14         1.0963   -DE/DX =    0.0                           !
 !       R15         1.3803   -DE/DX =    0.0                           !
 !       R16         1.0885   -DE/DX =    0.0                           !
 !       R17         1.4075   -DE/DX =    0.0                           !
 !       R18         1.0861   -DE/DX =    0.0                           !
 !       R19         1.3623   -DE/DX =    0.0                           !
 !       R20         1.0864   -DE/DX =    0.0                           !
 !       R21         1.0847   -DE/DX =    0.0                           !
 !       A3        154.5348   -DE/DX =   -0.0001                        !
 !       A4        146.6488   -DE/DX =    0.0                           !
 !       A5        110.6683   -DE/DX =    0.0002                        !
 !       A6        111.8107   -DE/DX =    0.0                           !
 !       A7        110.1922   -DE/DX =    0.0                           !
 !       A8        111.415    -DE/DX =    0.0                           !
 !       A9        110.399    -DE/DX =    0.0                           !
 !       A10       110.9763   -DE/DX =    0.0                           !
 !       A11       112.3618   -DE/DX =    0.0003                        !
 !       A12       110.3444   -DE/DX =    0.0001                        !
 !       A13       104.3878   -DE/DX =    0.0                           !
 !       A14       110.9796   -DE/DX =    0.0                           !
 !       A15       129.4436   -DE/DX =    0.0                           !
 !       A16       111.8058   -DE/DX =    0.0                           !
 !       A17       124.2586   -DE/DX =    0.0001                        !
 !       A18       115.4257   -DE/DX =    0.0                           !
 !       A19        93.8394   -DE/DX =    0.0                           !
 !       A20       120.0223   -DE/DX =    0.0                           !
 !       A21       118.137    -DE/DX =    0.0                           !
 !       D4        -31.5624   -DE/DX =    0.0                           !
 !       D5       -111.4475   -DE/DX =    0.0                           !
 !       D6       -121.6425   -DE/DX =    0.0                           !
 !       D7        117.9485   -DE/DX =    0.0                           !
 !       D8          8.5608   -DE/DX =    0.0                           !
 !       D9       -120.116    -DE/DX =    0.0                           !
 !       D10       121.4885   -DE/DX =    0.0                           !
 !       D11       -15.8685   -DE/DX =   -0.0002                        !
 !       D12       -34.9669   -DE/DX =   -0.0001                        !
 !       D13      -119.4896   -DE/DX =    0.0                           !
 !       D14       124.3744   -DE/DX =    0.0                           !
 !       D15       145.2431   -DE/DX =    0.0002                        !
 !       D16       157.9602   -DE/DX =    0.0                           !
 !       D17       -40.2326   -DE/DX =    0.0                           !
 !       D18      -154.7094   -DE/DX =    0.0                           !
 !       D19       -59.4247   -DE/DX =    0.0                           !
 !       D20        99.8004   -DE/DX =    0.0                           !
 !       D21      -113.8858   -DE/DX =    0.0                           !
 ------------------------------------------------------------------------
 GradGradGradGradGradGradGradGradGradGradGradGradGradGradGradGradGradGrad

 ---------------------------------------------------------------------------------------------------
                            Z-MATRIX (ANGSTROMS AND DEGREES)
   CD    Cent   Atom    N1       Length/X        N2       Alpha/Y        N3        Beta/Z          J
 ---------------------------------------------------------------------------------------------------
      1      1  C 
      2      2  C        1   1.249523(     1)
      3      3  C        1   1.462553(     2)      2  154.535(    21)
      4      4  C        2   1.485737(     3)      1  146.649(    22)      3  -31.562(    40)      0
      5      5  O        3   1.448541(     4)      1  110.668(    23)      2 -111.448(    41)      0
      6      6  H        3   1.094226(     5)      1  111.811(    24)      5 -121.643(    42)      0
      7      7  H        3   1.093456(     6)      1  110.192(    25)      5  117.948(    43)      0
      8      8  H        4   1.090246(     7)      2  111.415(    26)      1    8.561(    44)      0
      9      9  H        4   1.091821(     8)      2  110.399(    27)      8 -120.116(    45)      0
     10     10  H        4   1.091783(     9)      2  110.976(    28)      8  121.489(    46)      0
     11     11  C        5   1.432556(    10)      3  112.362(    29)      1  -15.869(    47)      0
     12     12  C       11   1.496619(    11)      5  110.344(    30)      3  -34.967(    48)      0
     13     13  H       11   1.097515(    12)      5  104.388(    31)     12 -119.490(    49)      0
     14     14  H       11   1.096334(    13)      5  110.980(    32)     12  124.374(    50)      0
     15     15  C       12   1.380328(    14)     11  129.444(    33)      5  145.243(    51)      0
     16     16  H       12   1.088517(    15)     11  111.806(    34)     15  157.960(    52)      0
     17     17  C       15   1.407490(    16)     12  124.259(    35)     11  -40.233(    53)      0
     18     18  H       15   1.086054(    17)     12  115.426(    36)     17 -154.709(    54)      0
     19     19  H       17   1.362275(    18)     15   93.839(    37)     12  -59.425(    55)      0
     20     20  H       17   1.086378(    19)     15  120.022(    38)     19   99.800(    56)      0
     21     21  H       17   1.084661(    20)     15  118.137(    39)     19 -113.886(    57)      0
 ---------------------------------------------------------------------------------------------------
                         Z-Matrix orientation:                         
 ---------------------------------------------------------------------
 Center     Atomic      Atomic             Coordinates (Angstroms)
 Number     Number       Type             X           Y           Z
 ---------------------------------------------------------------------
      1          6           0        0.000000    0.000000    0.000000
      2          6           0        0.000000    0.000000    1.249523
      3          6           0        0.628844    0.000000   -1.320460
      4          6           0        0.695981   -0.427541    2.490584
      5          8           0        0.401251    1.261461   -1.995137
      6          1           0        0.252814   -0.812291   -1.949837
      7          1           0        1.711715   -0.116193   -1.222806
      8          1           0        1.675898   -0.852184    2.271314
      9          1           0        0.108465   -1.183652    3.015173
     10          1           0        0.820659    0.411712    3.177679
     11          6           0       -0.649931    2.022277   -1.388184
     12          6           0       -1.719457    1.111905   -0.871267
     13          1           0       -1.028955    2.658369   -2.198287
     14          1           0       -0.257182    2.675051   -0.599779
     15          6           0       -2.513539    1.240078    0.250478
     16          1           0       -2.119816    0.472142   -1.655668
     17          6           0       -2.055663    1.709304    1.495952
     18          1           0       -3.382640    0.589619    0.283341
     19          1           0       -1.124299    0.723935    1.627871
     20          1           0       -1.360456    2.542919    1.540574
     21          1           0       -2.735519    1.666590    2.340025
 ---------------------------------------------------------------------
                    Distance matrix (angstroms):
                    1          2          3          4          5
     1  C    0.000000
     2  C    1.249523   0.000000
     3  C    1.462553   2.645801   0.000000
     4  C    2.621105   1.485737   3.835539   0.000000
     5  O    2.394339   3.504299   1.448541   4.802218   0.000000
     6  H    2.127345   3.310535   1.094226   4.479037   2.079551
     7  H    2.106828   3.009300   1.093456   3.862373   2.052253
     8  H    2.948511   2.139838   3.837106   1.090246   4.928978
     9  H    3.240997   2.128453   4.524328   1.091821   5.582787
    10  H    3.307663   2.135596   4.521013   1.091783   5.258898
    11  C    2.537532   3.386667   2.393628   4.780997   1.432556
    12  C    2.225303   2.947985   2.636784   4.416592   2.404757
    13  H    3.599742   4.473597   3.253583   5.872288   2.009505
    14  H    2.753502   3.262201   2.908663   4.481623   2.092557
    15  C    2.813967   2.975527   3.725615   4.254415   3.679571
    16  H    2.730893   3.627213   2.808989   5.092107   2.663465
    17  C    3.063551   2.684809   4.249762   3.623113   4.292399
    18  H    3.445313   3.566989   4.360256   4.747809   4.467735
    19  H    2.106679   1.389704   3.505745   2.320257   3.967672
    20  H    3.269655   2.898618   4.313846   3.735651   4.152951
    21  H    3.966901   3.383753   5.243627   4.022841   5.366292
                    6          7          8          9         10
     6  H    0.000000
     7  H    1.772434   0.000000
     8  H    4.454759   3.570972   0.000000
     9  H    4.980970   4.655142   1.766365   0.000000
    10  H    5.302080   4.520723   1.774927   1.754655   0.000000
    11  C    3.027405   3.190262   5.202301   5.499336   5.060006
    12  C    2.959003   3.661250   5.026121   4.869835   4.830778
    13  H    3.708119   4.020078   6.294247   6.575333   6.113064
    14  H    3.774163   3.472140   4.941797   5.300109   4.533611
    15  C    4.087335   4.675768   5.100266   4.515850   4.513487
    16  H    2.713978   3.900531   5.619829   5.433566   5.657852
    17  C    4.853964   4.991716   4.592054   3.919270   3.575637
    18  H    4.490986   5.359020   5.623134   4.774432   5.106521
    19  H    4.129943   4.107938   3.277083   2.661428   2.506442
    20  H    5.103239   4.913795   4.613041   4.268430   3.461129
    21  H    5.786010   5.970760   5.080309   4.082640   3.863002
                   11         12         13         14         15
    11  C    0.000000
    12  C    1.496619   0.000000
    13  H    1.097515   2.151587   0.000000
    14  H    1.096334   2.157633   1.775145   0.000000
    15  C    2.601938   1.380328   3.195620   2.805927   0.000000
    16  H    2.152912   1.088517   2.502799   3.071989   2.092400
    17  C    3.223705   2.464476   3.949969   2.925626   1.407490
    18  H    3.509160   2.090951   3.997254   3.859716   1.086054
    19  H    3.317726   2.598157   4.288427   3.085639   2.023264
    20  H    3.058356   2.827306   3.755304   2.411593   2.165950
    21  H    4.286693   3.413569   4.948966   3.975122   2.144154
                   16         17         18         19         20
    16  H    0.000000
    17  C    3.386354   0.000000
    18  H    2.316955   2.117779   0.000000
    19  H    3.440361   1.362275   2.631711   0.000000
    20  H    3.883389   1.086378   3.079812   1.836326   0.000000
    21  H    4.215609   1.084661   2.410100   1.997947   1.816004
                   21
    21  H    0.000000
 Symmetry turned off by external request.
 Stoichiometry    C8H12O
 Framework group  C1[X(C8H12O)]
 Deg. of freedom    57
 Full point group                 C1      NOp   1
 Rotational constants (GHZ):           1.9859820           1.4909677           0.9593264
 1\1\GINC-BHC0018\FTS\RB3LYP\def2TZVP\C8H12O1\DHANAWAY\10-Jun-2022\1\\#
  Opt=(TS, CalcFC, noeigentest, Z-matrix, MaxStep=10) geom=allcheckpoin
 t guess=read Field=read NoSymm B3LYP/Def2TZVP freq=noraman pop=none\\t
 s_zmat_initalOpt\\0,1\C\C,1,R2\C,1,R3,2,A3\C,2,R4,1,A4,3,D4,0\O,3,R5,1
 ,A5,2,D5,0\H,3,R6,1,A6,5,D6,0\H,3,R7,1,A7,5,D7,0\H,4,R8,2,A8,1,D8,0\H,
 4,R9,2,A9,8,D9,0\H,4,R10,2,A10,8,D10,0\C,5,R11,3,A11,1,D11,0\C,11,R12,
 5,A12,3,D12,0\H,11,R13,5,A13,12,D13,0\H,11,R14,5,A14,12,D14,0\C,12,R15
 ,11,A15,5,D15,0\H,12,R16,11,A16,15,D16,0\C,15,R17,12,A17,11,D17,0\H,15
 ,R18,12,A18,17,D18,0\H,17,R19,15,A19,12,D19,0\H,17,R20,15,A20,19,D20,0
 \H,17,R21,15,A21,19,D21,0\\R2=1.24952334\R3=1.46255284\R4=1.48573686\R
 5=1.44854111\R6=1.09422625\R7=1.09345634\R8=1.09024644\R9=1.09182052\R
 10=1.09178296\R11=1.43255577\R12=1.49661852\R13=1.09751477\R14=1.09633
 421\R15=1.38032774\R16=1.08851734\R17=1.40748971\R18=1.08605417\R19=1.
 36227513\R20=1.08637824\R21=1.08466054\A3=154.53476734\A4=146.64884333
 \A5=110.66828352\A6=111.81074762\A7=110.19216846\A8=111.414956\A9=110.
 39904456\A10=110.97633803\A11=112.36175956\A12=110.34444396\A13=104.38
 777255\A14=110.97956134\A15=129.44358569\A16=111.80576232\A17=124.2585
 5539\A18=115.42571464\A19=93.83941444\A20=120.02229062\A21=118.1370299
 6\D4=-31.56239355\D5=-111.44751004\D6=-121.64251942\D7=117.94848845\D8
 =8.56083948\D9=-120.11595517\D10=121.48852533\D11=-15.86852163\D12=-34
 .9668559\D13=-119.48963209\D14=124.37440358\D15=145.24307456\D16=157.9
 6021523\D17=-40.23257194\D18=-154.70937038\D19=-59.42469615\D20=99.800
 38654\D21=-113.88576074\\Version=ES64L-G16RevA.03\HF=-387.2986985\RMSD
 =7.468e-09\RMSF=4.967e-04\Dipole=0.2549047,-1.0743684,1.4580639\PG=C01
  [X(C8H12O1)]\\@


 HE THAT FOLLOWS NATURE IS NEVER LOST.

                             -- BACON
 Job cpu time:       0 days  2 hours 49 minutes 10.7 seconds.
 Elapsed time:       0 days  0 hours 14 minutes  7.0 seconds.
 File lengths (MBytes):  RWF=    203 Int=      0 D2E=      0 Chk=     32 Scr=      1
 Normal termination of Gaussian 16 at Fri Jun 10 13:54:16 2022.
 Link1:  Proceeding to internal job step number  2.
 --------------------------------------------------------------------
 #N Geom=AllCheck Guess=TCheck SCRF=Check GenChk RB3LYP/def2TZVP Freq
 --------------------------------------------------------------------
 1/5=1,8=10,10=4,11=1,29=7,30=1,38=1,40=1/1,3;
 2/12=2,15=1,40=1/2;
 3/5=44,7=101,11=2,14=-4,25=1,30=1,70=2,71=2,74=-5,116=1,140=1/1,2,3;
 4/5=101/1;
 5/5=2,38=6,98=1/2;
 8/6=4,10=90,11=11/1;
 11/6=1,8=1,9=11,15=111,16=1,31=1/1,2,10;
 10/6=1,31=1/2;
 7/8=1,10=1,25=1,30=1/1,2,3,16;
 1/5=1,8=10,10=4,11=1,30=1/3;
 99//99;
 Structure from the checkpoint file:  "checkpoint.chk"
 -----------------
 ts_zmat_initalOpt
 -----------------
 Charge =  0 Multiplicity = 1
 Z-Matrix found in chk file.
 C
 C,1,R2
 C,1,R3,2,A3
 C,2,R4,1,A4,3,D4,0
 O,3,R5,1,A5,2,D5,0
 H,3,R6,1,A6,5,D6,0
 H,3,R7,1,A7,5,D7,0
 H,4,R8,2,A8,1,D8,0
 H,4,R9,2,A9,8,D9,0
 H,4,R10,2,A10,8,D10,0
 C,5,R11,3,A11,1,D11,0
 C,11,R12,5,A12,3,D12,0
 H,11,R13,5,A13,12,D13,0
 H,11,R14,5,A14,12,D14,0
 C,12,R15,11,A15,5,D15,0
 H,12,R16,11,A16,15,D16,0
 C,15,R17,12,A17,11,D17,0
 H,15,R18,12,A18,17,D18,0
 H,17,R19,15,A19,12,D19,0
 H,17,R20,15,A20,19,D20,0
 H,17,R21,15,A21,19,D21,0
      Variables:
 R2=1.24952334
 R3=1.46255284
 R4=1.48573686
 R5=1.44854111
 R6=1.09422625
 R7=1.09345634
 R8=1.09024644
 R9=1.09182052
 R10=1.09178296
 R11=1.43255577
 R12=1.49661852
 R13=1.09751477
 R14=1.09633421
 R15=1.38032774
 R16=1.08851734
 R17=1.40748971
 R18=1.08605417
 R19=1.36227513
 R20=1.08637824
 R21=1.08466054
 A3=154.53476734
 A4=146.64884333
 A5=110.66828352
 A6=111.81074762
 A7=110.19216846
 A8=111.414956
 A9=110.39904456
 A10=110.97633803
 A11=112.36175956
 A12=110.34444396
 A13=104.38777255
 A14=110.97956134
 A15=129.44358569
 A16=111.80576232
 A17=124.25855539
 A18=115.42571464
 A19=93.83941444
 A20=120.02229062
 A21=118.13702996
 D4=-31.56239355
 D5=-111.44751004
 D6=-121.64251942
 D7=117.94848845
 D8=8.56083948
 D9=-120.11595517
 D10=121.48852533
 D11=-15.86852163
 D12=-34.9668559
 D13=-119.48963209
 D14=124.37440358
 D15=145.24307456
 D16=157.96021523
 D17=-40.23257194
 D18=-154.70937038
 D19=-59.42469615
 D20=99.80038654
 D21=-113.88576074
 Recover connectivity data from disk.

 GradGradGradGradGradGradGradGradGradGradGradGradGradGradGradGradGradGrad
 Berny optimization.
 Initialization pass.
                       ----------------------------
                       !    Initial Parameters    !
                       ! (Angstroms and Degrees)  !
 ----------------------                            ----------------------
 !      Name          Value   Derivative information (Atomic Units)     !
 ------------------------------------------------------------------------
 !       R2          1.2495   calculate D2E/DX2 analytically            !
 !       R3          1.4626   calculate D2E/DX2 analytically            !
 !       R4          1.4857   calculate D2E/DX2 analytically            !
 !       R5          1.4485   calculate D2E/DX2 analytically            !
 !       R6          1.0942   calculate D2E/DX2 analytically            !
 !       R7          1.0935   calculate D2E/DX2 analytically            !
 !       R8          1.0902   calculate D2E/DX2 analytically            !
 !       R9          1.0918   calculate D2E/DX2 analytically            !
 !       R10         1.0918   calculate D2E/DX2 analytically            !
 !       R11         1.4326   calculate D2E/DX2 analytically            !
 !       R12         1.4966   calculate D2E/DX2 analytically            !
 !       R13         1.0975   calculate D2E/DX2 analytically            !
 !       R14         1.0963   calculate D2E/DX2 analytically            !
 !       R15         1.3803   calculate D2E/DX2 analytically            !
 !       R16         1.0885   calculate D2E/DX2 analytically            !
 !       R17         1.4075   calculate D2E/DX2 analytically            !
 !       R18         1.0861   calculate D2E/DX2 analytically            !
 !       R19         1.3623   calculate D2E/DX2 analytically            !
 !       R20         1.0864   calculate D2E/DX2 analytically            !
 !       R21         1.0847   calculate D2E/DX2 analytically            !
 !       A3        154.5348   calculate D2E/DX2 analytically            !
 !       A4        146.6488   calculate D2E/DX2 analytically            !
 !       A5        110.6683   calculate D2E/DX2 analytically            !
 !       A6        111.8107   calculate D2E/DX2 analytically            !
 !       A7        110.1922   calculate D2E/DX2 analytically            !
 !       A8        111.415    calculate D2E/DX2 analytically            !
 !       A9        110.399    calculate D2E/DX2 analytically            !
 !       A10       110.9763   calculate D2E/DX2 analytically            !
 !       A11       112.3618   calculate D2E/DX2 analytically            !
 !       A12       110.3444   calculate D2E/DX2 analytically            !
 !       A13       104.3878   calculate D2E/DX2 analytically            !
 !       A14       110.9796   calculate D2E/DX2 analytically            !
 !       A15       129.4436   calculate D2E/DX2 analytically            !
 !       A16       111.8058   calculate D2E/DX2 analytically            !
 !       A17       124.2586   calculate D2E/DX2 analytically            !
 !       A18       115.4257   calculate D2E/DX2 analytically            !
 !       A19        93.8394   calculate D2E/DX2 analytically            !
 !       A20       120.0223   calculate D2E/DX2 analytically            !
 !       A21       118.137    calculate D2E/DX2 analytically            !
 !       D4        -31.5624   calculate D2E/DX2 analytically            !
 !       D5       -111.4475   calculate D2E/DX2 analytically            !
 !       D6       -121.6425   calculate D2E/DX2 analytically            !
 !       D7        117.9485   calculate D2E/DX2 analytically            !
 !       D8          8.5608   calculate D2E/DX2 analytically            !
 !       D9       -120.116    calculate D2E/DX2 analytically            !
 !       D10       121.4885   calculate D2E/DX2 analytically            !
 !       D11       -15.8685   calculate D2E/DX2 analytically            !
 !       D12       -34.9669   calculate D2E/DX2 analytically            !
 !       D13      -119.4896   calculate D2E/DX2 analytically            !
 !       D14       124.3744   calculate D2E/DX2 analytically            !
 !       D15       145.2431   calculate D2E/DX2 analytically            !
 !       D16       157.9602   calculate D2E/DX2 analytically            !
 !       D17       -40.2326   calculate D2E/DX2 analytically            !
 !       D18      -154.7094   calculate D2E/DX2 analytically            !
 !       D19       -59.4247   calculate D2E/DX2 analytically            !
 !       D20        99.8004   calculate D2E/DX2 analytically            !
 !       D21      -113.8858   calculate D2E/DX2 analytically            !
 ------------------------------------------------------------------------
 Trust Radius=1.00D-01 FncErr=1.00D-07 GrdErr=1.00D-07 EigMax=2.50D+02 EigMin=1.00D-04
 Number of steps in this run=      2 maximum allowed number of steps=      2.
 Search for a saddle point of order  1.
 GradGradGradGradGradGradGradGradGradGradGradGradGradGradGradGradGradGrad

                          Input orientation:                          
 ---------------------------------------------------------------------
 Center     Atomic      Atomic             Coordinates (Angstroms)
 Number     Number       Type             X           Y           Z
 ---------------------------------------------------------------------
      1          6           0        0.000000    0.000000    0.000000
      2          6           0        0.000000    0.000000    1.249523
      3          6           0        0.628844    0.000000   -1.320460
      4          6           0        0.695981   -0.427541    2.490584
      5          8           0        0.401251    1.261461   -1.995137
      6          1           0        0.252814   -0.812291   -1.949837
      7          1           0        1.711715   -0.116193   -1.222806
      8          1           0        1.675898   -0.852184    2.271314
      9          1           0        0.108465   -1.183652    3.015173
     10          1           0        0.820659    0.411712    3.177679
     11          6           0       -0.649931    2.022277   -1.388184
     12          6           0       -1.719457    1.111905   -0.871267
     13          1           0       -1.028955    2.658369   -2.198287
     14          1           0       -0.257182    2.675051   -0.599779
     15          6           0       -2.513539    1.240078    0.250478
     16          1           0       -2.119816    0.472142   -1.655668
     17          6           0       -2.055663    1.709304    1.495952
     18          1           0       -3.382640    0.589619    0.283341
     19          1           0       -1.124299    0.723935    1.627871
     20          1           0       -1.360456    2.542919    1.540574
     21          1           0       -2.735519    1.666590    2.340025
 ---------------------------------------------------------------------
                    Distance matrix (angstroms):
                    1          2          3          4          5
     1  C    0.000000
     2  C    1.249523   0.000000
     3  C    1.462553   2.645801   0.000000
     4  C    2.621105   1.485737   3.835539   0.000000
     5  O    2.394339   3.504299   1.448541   4.802218   0.000000
     6  H    2.127345   3.310535   1.094226   4.479037   2.079551
     7  H    2.106828   3.009300   1.093456   3.862373   2.052253
     8  H    2.948511   2.139838   3.837106   1.090246   4.928978
     9  H    3.240997   2.128453   4.524328   1.091821   5.582787
    10  H    3.307663   2.135596   4.521013   1.091783   5.258898
    11  C    2.537532   3.386667   2.393628   4.780997   1.432556
    12  C    2.225303   2.947985   2.636784   4.416592   2.404757
    13  H    3.599742   4.473597   3.253583   5.872288   2.009505
    14  H    2.753502   3.262201   2.908663   4.481623   2.092557
    15  C    2.813967   2.975527   3.725615   4.254415   3.679571
    16  H    2.730893   3.627213   2.808989   5.092107   2.663465
    17  C    3.063551   2.684809   4.249762   3.623113   4.292399
[...]
 17612,0.00024034,0.00005128,-0.00001429,-0.00002368,-0.00002516,-0.000
 00797,0.00004148,-0.00195328,-0.00892418,-0.00582728,-0.00193224,-0.01
 806689,-0.01448057,0.02268565,0.21996068,-0.00109507,0.00107909,-0.001
 92841,-0.00649195,-0.01788891,-0.02268988,-0.00042878,0.00019106,0.000
 37392,-0.01755480,-0.12838898,-0.14254469,0.00010173,0.00053405,-0.000
 40709,-0.00005588,0.00001954,0.00003033,0.00000596,-0.00001856,-0.0000
 1324,-0.00037235,-0.00498887,-0.00427523,0.00133695,0.01132721,0.01051
 128,0.02321259,0.13797786,0.16081284,0.00116447,0.00251460,0.00184443,
 -0.00289064,0.00279512,0.00321834,-0.01706297,0.02380360,-0.01757510,-
 0.00009927,-0.00039039,0.00052579,-0.10996971,0.04905361,0.03896105,-0
 .00016342,-0.00505251,0.00299800,0.00026466,0.00138855,0.00110182,-0.0
 0010524,0.00004644,-0.00014231,0.00021609,-0.00012121,-0.00000475,0.00
 024193,-0.00003389,-0.00007171,0.42668030,0.01103243,-0.01239299,0.008
 44184,0.00163817,-0.00231792,-0.00606027,0.02762323,-0.03302987,-0.003
 23007,-0.00052925,0.00057352,0.00063222,0.02996393,-0.10569463,-0.0054
 8540,0.00117106,-0.00088138,0.00091792,-0.00106042,-0.00122189,-0.0008
 4545,-0.00019017,0.00012020,-0.00035946,-0.00011443,0.00003626,-0.0000
 3996,-0.00013265,0.00006254,-0.00009985,0.03240141,0.53810562,-0.00979
 592,0.01401233,-0.00755032,-0.00096395,0.00090155,0.00259151,-0.014372
 17,0.00415498,0.00984536,0.00017604,-0.00036852,-0.00052462,0.05260724
 ,-0.02872972,-0.09883041,-0.00003961,0.00136979,-0.00049826,-0.0012800
 4,0.00524582,-0.00364775,0.00014192,-0.00004614,0.00024447,0.00001760,
 -0.00001212,0.00003570,-0.00001062,0.00001555,-0.00021426,0.07729793,-
 0.01523033,0.54965309,0.04090950,-0.03129301,0.06223802,0.02351238,-0.
 01697846,-0.06358671,-0.02186289,0.00824709,0.00329180,-0.00849611,0.0
 0454440,0.00830934,-0.03437850,-0.00242234,0.01544672,0.00028935,-0.00
 034433,-0.00109589,-0.00066877,-0.00094100,0.00340517,-0.00157736,0.00
 117165,-0.00280195,0.00026899,0.00002762,0.00050573,0.00014260,-0.0002
 7657,0.00101970,-0.12120931,-0.07485969,0.03431541,0.39651162,-0.03001
 977,0.00243212,-0.03238689,-0.00998284,0.00667067,0.02862724,0.0167974
 3,-0.00070749,-0.00204974,0.00555927,0.00132749,-0.00422276,0.01483646
 ,0.00792223,-0.00382556,-0.00030313,-0.00010068,-0.00009291,0.00059977
 ,-0.00067797,-0.00152191,0.00077529,-0.00049988,0.00133197,-0.00048972
 ,0.00011475,-0.00091088,0.00014064,-0.00000044,0.00007810,-0.07218751,
 -0.13280845,0.01628030,0.18833272,0.34731076,0.01000771,-0.00991785,-0
 .01232548,-0.00828891,0.00502359,0.00141269,0.00017716,0.00133056,0.00
 295682,0.00315130,-0.00092063,-0.00057932,0.03134366,0.00376395,-0.013
 13473,0.00004406,-0.00056505,0.00034460,0.00060161,0.00111460,-0.00087
 328,0.00029898,-0.00017265,0.00074609,-0.00017262,0.00008861,-0.000261
 42,-0.00003260,0.00004195,-0.00004654,0.01525112,0.01453395,-0.0940375
 3,-0.15389638,0.13951440,0.64373030,-0.00052039,-0.00144219,0.00176394
 ,0.00105074,-0.00069717,-0.00111329,-0.00399956,-0.00183258,0.00214094
 ,-0.00003669,0.00028078,0.00005962,-0.01634099,0.02796385,-0.01122486,
 -0.00003584,0.00020499,-0.00014920,-0.00023864,0.00138395,-0.00084117,
 0.00000760,-0.00001052,-0.00000066,-0.00003067,0.00001849,-0.00001594,
 -0.00001741,-0.00000683,0.00007573,-0.06850995,0.03780284,-0.06363540,
 0.00422572,-0.01412780,0.02135234,0.08575247,0.00121012,-0.00130186,0.
 00014051,0.00046405,-0.00023137,-0.00055847,0.00365684,0.00033586,-0.0
 0005786,-0.00014284,0.00010263,0.00004246,0.01531088,-0.02014509,0.009
 59653,0.00004906,-0.00027472,0.00005555,0.00004138,-0.00102274,0.00065
 085,0.00000198,-0.00000229,-0.00002555,0.00001813,-0.00000368,0.000024
 65,0.00001031,-0.00000563,0.00006731,0.04014628,-0.11907111,0.09624989
 ,0.00140120,-0.00871835,0.01695309,-0.05593520,0.13919527,0.00060534,0
 .00210356,-0.00149598,-0.00076252,0.00080487,0.00184273,0.00267988,-0.
 00176336,-0.00069573,0.00009883,-0.00045152,-0.00007896,0.00802756,-0.
 01174823,0.01149811,0.00003166,-0.00011227,0.00001134,0.00010383,-0.00
 059311,0.00035128,-0.00001092,-0.00000112,0.00001077,-0.00002320,0.000
 00154,0.00001523,-0.00004364,-0.00000515,-0.00010767,-0.07007605,0.101
 55533,-0.18623720,0.00067864,0.00676901,-0.01012448,0.06605269,-0.1096
 2114,0.20020385,-0.00037039,0.00139547,-0.00226855,-0.00015690,0.00045
 741,0.00128432,0.00132903,-0.00200514,0.00334795,0.00010472,-0.0002157
 1,-0.00013380,0.00351651,0.02315011,0.02325117,-0.00009854,0.00088225,
 -0.00051697,-0.00009337,-0.00010643,0.00018363,0.00002756,0.00000220,0
 .00004704,-0.00003097,0.00000440,0.00000424,-0.00001782,-0.00000097,-0
 .00005447,-0.08806112,-0.05775162,-0.07099902,-0.00749135,-0.01436950,
 -0.01947787,-0.00273837,-0.00622302,-0.00806559,0.09504760,-0.00047003
 ,-0.00000996,-0.00016331,-0.00021062,0.00025771,0.00072268,-0.00105013
 ,0.00149801,-0.00331236,0.00015458,0.00004843,0.00001348,0.00807486,-0
 .01494950,-0.01785765,0.00006629,-0.00070217,0.00054142,0.00002333,-0.
 00013702,0.00000399,0.00002895,-0.00001495,0.00003031,-0.00001071,0.00
 000940,-0.00002003,0.00002021,-0.00003480,0.00006425,-0.05695584,-0.12
 781901,-0.09090760,-0.01069130,-0.01242770,-0.01542793,0.00621319,0.01
 141265,0.01254007,0.05700858,0.14356670,0.00045072,0.00050545,0.000194
 45,-0.00008736,0.00058384,0.00025629,-0.00065835,0.00173806,-0.0021768
 9,-0.00002425,-0.00009411,-0.00002807,0.00934367,-0.01418797,-0.008261
 38,0.00005777,-0.00067134,0.00031759,0.00005010,-0.00026689,0.00018987
 ,0.00000764,-0.00001887,0.00001411,0.00001225,-0.00000770,0.00000809,-
 0.00000740,-0.00000217,0.00001101,-0.07248941,-0.09686987,-0.17434895,
 0.00271338,0.00728955,0.00958349,-0.01200281,-0.01183720,-0.01757086,0
 .06991569,0.11215979,0.19274488,-0.02410193,0.01241834,-0.02024681,-0.
 00424757,0.00367445,0.00827462,0.00510745,-0.00476539,0.00221344,-0.00
 273275,0.00116435,0.00082550,-0.00593822,0.00064403,0.00452003,-0.0001
 1241,0.00013961,0.00081694,0.00039518,0.00041658,-0.00149995,-0.000005
 21,0.00005577,-0.00106285,0.00017701,-0.00016028,-0.00002868,0.0003795
 2,-0.00008911,-0.00007894,-0.01203789,0.00783855,0.01043221,-0.1682299
 7,-0.01845819,0.15670286,0.00058600,-0.00004098,-0.00035568,0.00060707
 ,0.00051948,-0.00036976,0.54137586,0.02168691,-0.00898443,0.01734016,0
 .01374025,-0.00504786,-0.01243000,-0.00367872,-0.00095914,0.00093116,0
 .00024864,0.00020981,-0.00026194,-0.00377957,0.00079647,0.00030017,0.0
 0004404,0.00031365,-0.00064755,-0.00003231,0.00031734,0.00050214,0.000
 10428,0.00005602,0.00052653,-0.00013646,0.00016725,0.00032529,-0.00014
 103,0.00001186,0.00027293,-0.00525922,0.00546378,0.01716328,-0.0345879
 5,-0.07091023,-0.02555502,-0.00207222,-0.00154718,0.00126984,0.0010524
 3,0.00016356,-0.00062089,0.19511241,0.32475127,0.03392026,-0.01860913,
 0.04975574,0.03543352,-0.02468289,-0.06202800,-0.00725874,0.00431172,-
 0.00086693,-0.01268620,0.00515015,0.00746111,-0.00406167,0.00368825,0.
 00039411,-0.00001528,-0.00000318,-0.00049651,-0.00067606,-0.00059772,0
 .00147063,-0.00162599,0.00127565,-0.00347631,0.00041341,-0.00013434,0.
 00081358,0.00019594,-0.00027650,0.00078071,0.02138111,-0.00281799,-0.0
 0193811,0.10095573,-0.02522623,-0.28770377,-0.00390485,-0.00249685,0.0
 0318085,0.00000125,-0.00042447,-0.00025061,-0.08153712,0.11051111,0.63
 963209,-0.00004616,-0.00291575,-0.00155323,-0.00025866,-0.00009437,-0.
 00108098,-0.00070073,-0.00007658,-0.00072731,0.00014930,0.00034681,0.0
 0007743,0.00264306,0.00104487,0.00029034,-0.00052203,0.00044666,0.0002
 6078,0.00017635,0.00035275,0.00013766,-0.00003062,0.00003815,-0.000020
 30,-0.00004991,0.00002588,-0.00007366,0.00001885,-0.00002619,0.0000457
 4,-0.00955578,-0.01541772,-0.01708496,-0.08577244,-0.06703201,-0.07052
 885,0.00070922,0.00025694,0.00069457,-0.00242710,-0.00318698,0.0022713
 2,0.00934772,0.01074385,0.01880365,0.08805812,0.00094585,0.00300669,0.
 00245184,0.00050266,-0.00010175,0.00049486,-0.00013466,-0.00010893,0.0
 0040735,-0.00029540,-0.00037429,0.00004021,0.00032636,0.00216099,0.000
 99150,0.00024299,0.00026680,-0.00024419,-0.00017921,-0.00018293,0.0000
 1357,0.00002011,-0.00002129,-0.00000976,0.00006181,-0.00002163,0.00011
 208,-0.00001429,0.00001462,-0.00002477,-0.00875645,-0.01411082,-0.0167
 3349,-0.06425308,-0.13511082,-0.11441833,0.00098991,0.00048196,-0.0002
 2629,-0.00339354,-0.00135164,0.00186163,-0.00371476,-0.00087278,-0.004
 42474,0.07509031,0.14308762,0.00018692,-0.00111906,-0.00097828,-0.0003
 8133,0.00005180,-0.00063017,-0.00006977,-0.00050678,-0.00045670,0.0000
 8560,0.00017452,0.00014059,-0.00134556,0.00013667,0.00037443,0.0001253
 7,0.00016094,0.00057061,0.00007341,0.00025617,0.00021824,-0.00004216,0
 .00004413,-0.00003916,-0.00003374,-0.00000103,-0.00006436,0.00004078,-
 0.00001639,0.00000933,0.00537137,0.00683530,0.00736056,-0.06548290,-0.
 11696655,-0.18728008,-0.00061566,-0.00053057,0.00112805,0.00244723,0.0
 0097787,0.00028738,-0.01068963,-0.01467792,-0.01946033,0.06676058,0.12
 638846,0.20186940,-0.01779227,0.01065912,-0.03866252,-0.06309366,0.042
 51769,0.05697625,0.00431513,-0.00125627,-0.00039939,0.01264136,-0.0061
 2204,-0.00450924,0.00098657,-0.00270917,0.00174555,-0.00011944,0.00011
 183,0.00031563,0.00072946,0.00012630,-0.00050615,0.00089431,-0.0010073
 9,0.00247380,-0.00067642,0.00030199,-0.00101948,-0.00056447,0.00007731
 ,-0.00131380,-0.00703515,0.00488954,-0.00038556,0.04104328,-0.00217860
 ,0.00169643,0.00193694,0.00109378,-0.00143855,-0.00027226,-0.00021364,
 -0.00026384,-0.10972443,-0.04869173,-0.01759179,-0.00080915,0.00048401
 ,0.00505893,0.42353702,0.00231539,-0.00182735,0.02361693,0.04699609,-0
 .03038173,-0.03798241,0.00069114,0.00230725,-0.00074614,-0.01019332,0.
 00426728,0.00303474,-0.00036428,0.00014940,-0.00051846,-0.00010153,-0.
 00022916,0.00018330,-0.00048434,0.00009290,-0.00020253,-0.00060097,0.0
 0083293,-0.00187034,0.00041042,-0.00034538,0.00058467,0.00059932,0.000
 00165,0.00081060,0.00517763,-0.00030786,0.00153993,-0.00648250,0.00690
 933,-0.00026187,-0.00114334,-0.00095671,0.00016100,-0.00025398,-0.0004
 7163,-0.00042506,-0.05972916,-0.10535190,-0.10305130,-0.00283779,0.004
 06063,-0.00205317,0.22218990,0.37385490,-0.01801920,0.00841354,-0.0414
 3572,-0.03252262,0.01989814,0.03431818,0.00630932,-0.00500011,0.003847
 11,0.00521088,-0.00205551,-0.00184647,-0.00004594,-0.00016602,0.001303
 39,-0.00002149,-0.00002628,0.00057449,0.00086577,0.00066468,-0.0021069
 9,0.00047328,-0.00028200,0.00097675,0.00001647,0.00004334,-0.00042187,
 0.00037555,-0.00004032,-0.00015283,-0.00693692,0.00226260,-0.00047354,
 0.03072773,-0.02593204,-0.04127479,0.00138106,0.00089580,-0.00153188,-
 0.00003006,-0.00009073,-0.00051052,-0.06975258,-0.08491824,-0.25486005
 ,0.00252076,0.00016607,-0.00168596,-0.10617870,0.12812310,0.60103627,0
 .00009141,0.00022787,0.00018561,-0.00013690,0.00004604,0.00006290,0.00
 010242,-0.00023063,-0.00000333,0.00009704,-0.00005261,-0.00014409,-0.0
 0035554,0.00020595,0.00013274,-0.00000924,0.00006629,-0.00010051,-0.00
 003998,0.00001309,0.00004393,0.00003894,0.00001880,0.00007829,-0.00004
 745,0.00000940,-0.00003414,0.00000812,0.00003238,0.00001868,0.00287571
 ,-0.00041156,0.00256862,-0.01286897,-0.01369013,0.00263407,-0.00053538
 ,-0.00058083,0.00023791,0.00003329,0.00015307,-0.00010730,-0.22051920,
 -0.13272057,0.00917362,-0.00076495,0.00273960,-0.00121171,-0.00598371,
 -0.00805387,-0.00014160,0.23505597,0.00059659,-0.00044622,0.00077403,0
 .00036987,-0.00013871,-0.00039043,-0.00022451,-0.00028000,0.00021434,0
 .00001181,-0.00004894,0.00011331,-0.00123325,-0.00023036,0.00059679,-0
 .00000198,0.00000665,0.00007832,-0.00000557,0.00001033,-0.00000389,-0.
 00003716,-0.00001497,-0.00003808,0.00000576,0.00000641,0.00000970,-0.0
 0000277,-0.00004293,0.00000908,-0.00233257,0.00470765,-0.00248369,0.00
 115340,0.00416090,-0.00220992,0.00065950,0.00049937,-0.00011246,0.0002
 0245,-0.00006465,-0.00014061,-0.14266752,-0.14368380,-0.00010387,0.003
 22383,-0.00199692,0.00191324,-0.00981030,-0.00518844,0.00045053,0.1520
 9010,0.14085459,0.00023288,-0.00022802,0.00082214,0.00050468,-0.000438
 47,-0.00076858,-0.00027850,0.00084506,-0.00066898,-0.00007486,0.000066
 45,0.00003676,0.00240019,-0.00011536,-0.00113869,0.00002731,-0.0000884
 1,-0.00005711,-0.00002351,-0.00010844,0.00014033,0.00001742,0.00003350
 ,-0.00000606,-0.00001372,0.00002171,-0.00000214,0.00003194,0.00000364,
 0.00006978,0.00271738,-0.00448745,-0.00054414,0.02290977,0.01770552,-0
 .00252704,-0.00040183,-0.00005504,0.00002924,0.00006336,0.00026729,0.0
 0019533,0.00945111,0.00191681,-0.05446988,-0.00097749,0.00212836,-0.00
 019199,-0.02221002,-0.02066031,0.00130937,-0.01179652,0.00353605,0.060
 57403,0.01155255,-0.00465507,0.06563119,0.02529373,-0.03359281,-0.0564
 8902,-0.00559672,0.00779728,-0.00268377,-0.02151912,0.01193552,0.00380
 954,0.00000745,0.00073373,-0.00199141,-0.00003906,-0.00009295,-0.00021
 194,-0.00117519,-0.00051441,0.00159204,-0.00032414,0.00144427,-0.00321
 351,0.00131156,-0.00009844,0.00107227,0.00102520,-0.00060546,0.0018401
 3,0.00467313,-0.00257833,0.00084992,-0.03856955,0.01435886,0.00924544,
 -0.00113419,-0.00068806,0.00109104,0.00060904,-0.00000821,0.00015931,-
 0.01315711,-0.00104962,-0.06871603,-0.00048256,-0.00029177,0.00046455,
 0.02807228,-0.02911024,0.03548392,0.00084957,-0.00090416,-0.00036952,0
 .01716781,-0.00979333,0.00860841,-0.05706425,-0.04851440,0.00607202,0.
 05216929,0.00503914,-0.00145398,0.00405038,0.01845019,-0.00691674,-0.0
 0356785,0.00034889,-0.00134655,0.00081590,0.00016475,-0.00013747,0.001
 18021,0.00131663,0.00047456,-0.00139539,0.00061475,-0.00011175,0.00275
 114,-0.00074605,0.00029691,-0.00133593,-0.00091740,0.00092357,-0.00123
 336,-0.00454469,0.00231495,-0.00094342,0.03218402,-0.01407643,-0.00908
 894,0.00107632,0.00070930,-0.00061559,-0.00030171,-0.00014492,0.000262
 87,0.00452985,0.00683974,0.05129525,0.00000933,0.00053728,-0.00040232,
 -0.04106264,-0.00638974,-0.02824392,-0.00057495,0.00024751,0.00068406,
 0.02838360,0.02474762,0.00738144,-0.00331140,-0.01766301,-0.00331061,0
 .00227984,-0.01267069,0.00013025,-0.00019125,-0.00225632,-0.00752664,0
 .00402861,0.00033011,0.00100485,-0.00145074,0.00052783,-0.00007157,-0.
 00001880,0.00001824,0.00019212,0.00000541,0.00032171,-0.00095942,0.000
 67538,-0.00100837,-0.00004216,0.00008246,0.00001010,-0.00039924,0.0001
 9619,-0.00015038,-0.00344284,0.00113308,-0.00040613,0.00512633,-0.0032
 9939,-0.00700544,0.00100172,0.00051879,-0.00045268,0.00015783,0.000419
 66,0.00004458,-0.00902732,0.01012840,-0.00159555,-0.00023863,0.0004250
 2,0.00021961,-0.01354534,0.01244001,-0.02946892,0.00005587,-0.00030424
 ,0.00040944,0.01512127,-0.01334760,0.06826005,0.00198656,-0.00106534,0
 .00435073,0.00531380,-0.00151256,-0.00489814,-0.00120392,-0.00008914,-
 0.00044540,-0.00078416,0.00054079,0.00054925,0.00003983,0.00034480,-0.
 00019335,0.00003139,-0.00000090,-0.00006034,-0.00014024,-0.00008364,0.
 00028114,-0.00012113,-0.00000564,-0.00025408,0.00005055,-0.00002825,0.
 00008554,-0.00005688,-0.00005251,-0.00007898,0.00075378,-0.00114055,0.
 00029409,-0.00441453,0.00395344,0.00083727,-0.00016884,-0.00001998,0.0
 0044255,0.00038543,0.00037542,0.00104776,-0.00856032,-0.01059846,-0.00
 684489,0.00003690,-0.00003525,-0.00018704,-0.14905587,-0.14116786,0.00
 428881,0.00253801,-0.00346640,-0.00199930,-0.00219278,0.01509613,0.001
 24194,0.16563474,-0.00202147,0.00165945,-0.00550770,-0.00555376,0.0037
 4390,0.00608750,0.00132969,-0.00053246,0.00037342,0.00127316,-0.000909
 62,-0.00067108,0.00000888,0.00011496,0.00029941,-0.00003764,0.00002418
 ,0.00010165,0.00018154,0.00013340,-0.00041538,0.00011910,-0.00007426,0
 .00035473,-0.00008723,0.00006131,-0.00003614,0.00009747,-0.00007690,0.
 00011263,-0.00124436,-0.00103134,-0.00054505,0.00454576,-0.00241238,-0
 .00038425,0.00043384,0.00028354,0.00002247,0.00016608,0.00080109,0.000
 54787,-0.00294272,-0.00243104,0.00802560,0.00010804,0.00018446,-0.0001
 3554,-0.15071436,-0.19890320,-0.01628937,-0.00172136,0.00358259,-0.001
 60463,0.00146152,-0.02005786,-0.00114611,0.15323436,0.21533919,0.00052
 984,-0.00037566,0.00080969,0.00117613,-0.00108179,-0.00087025,-0.00021
 872,-0.00019001,0.00024648,0.00000546,0.00018922,0.00012084,-0.0001294
 0,0.00057725,0.00018420,-0.00000416,0.00004333,-0.00006300,-0.00005035
 ,0.00000023,0.00004707,-0.00002414,-0.00006146,-0.00002344,0.00001561,
 -0.00003452,0.00001065,-0.00008787,-0.00000724,-0.00007347,0.00042391,
 -0.00039250,-0.00080089,-0.00098815,0.00173918,0.00068660,0.00008926,0
 .00000635,0.00004473,0.00080403,0.00038252,-0.00076228,-0.01956437,-0.
 02318885,0.00354481,-0.00026714,0.00070703,-0.00021282,0.00258646,-0.0
 0825668,-0.05211223,-0.00061160,-0.00325587,-0.00414073,-0.00027902,0.
 00397438,0.00049774,0.00369245,0.01076925,0.04996246,0.00017640,0.0001
 6843,0.00214274,0.00097985,-0.00016915,-0.00060339,-0.00020316,0.00054
 288,-0.00076669,0.00004599,-0.00003569,0.00013016,0.00003709,-0.000145
 47,0.00019003,-0.00000736,0.00006072,-0.00002865,-0.00009031,-0.000034
 99,0.00025718,0.00000977,-0.00002174,-0.00009515,-0.00010485,0.0001339
 8,-0.00003458,-0.00019570,-0.00008017,-0.00006048,-0.00016959,-0.00017
 477,-0.00013372,-0.00136368,-0.00251468,-0.00094680,0.00003823,-0.0000
 3004,0.00003163,0.00009795,0.00015950,-0.00001912,0.01139122,0.0000150
 2,-0.01535990,0.00028057,-0.00033520,-0.00055525,-0.15902953,-0.017856
 72,0.14599554,-0.00042915,0.00237289,-0.00021077,-0.00637189,-0.000758
 41,0.00715015,-0.01007232,0.00136345,0.01290178,0.16498050,-0.00092144
 ,0.00048584,-0.00487106,-0.00261128,0.00151224,0.00233107,0.00066302,-
 0.00125166,0.00127415,0.00024450,-0.00002390,-0.00012638,-0.00028854,0
 .00082399,0.00014432,0.00000772,-0.00003147,0.00004689,0.00016062,0.00
 009593,-0.00047866,0.00000881,-0.00002027,0.00012103,0.00012796,-0.000
 10465,0.00005771,0.00015474,-0.00000477,0.00009960,-0.00044861,-0.0006
 9724,-0.00093332,0.00152235,0.00160258,-0.00344226,0.00024019,0.000260
 15,0.00002255,0.00030024,0.00037040,0.00019363,0.00605467,0.00069760,-
 0.00140854,-0.00010004,0.00045275,-0.00052977,-0.01868531,-0.04212319,
 0.00212675,0.00243391,-0.00194007,0.00057769,0.00807477,-0.00113642,-0
 .00926333,-0.01427845,0.00050098,0.01845585,0.01734017,0.04053121,-0.0
 0032536,0.00032269,0.00145770,0.00106232,-0.00095348,-0.00036240,-0.00
 018134,0.00047153,-0.00045331,0.00006651,-0.00003320,-0.00010940,0.000
 34688,-0.00015660,0.00001546,-0.00001260,0.00001918,-0.00000322,-0.000
 03584,-0.00003803,0.00012121,0.00002095,-0.00002066,0.00003574,-0.0000
 2127,0.00001818,-0.00000093,-0.00005800,0.00001698,0.00000449,-0.00035
 317,-0.00039361,0.00032140,-0.00379150,-0.00290039,-0.00228669,-0.0000
 1161,-0.00001909,-0.00002075,0.00003859,0.00008075,0.00006249,0.020976
 98,0.00111259,-0.01988761,0.00068972,-0.00010640,-0.00117836,0.1371713
 3,0.00553399,-0.21548381,-0.00104145,0.00134767,0.00092892,-0.00240640
 ,0.00005509,0.00203806,-0.00215002,0.00004071,0.00290383,-0.14998471,-
 0.00439792,0.23189718\\0.00028555,-0.00292481,0.00000078,-0.00032402,0
 .00257903,-0.00000908,0.00001014,0.00038426,-0.00000441,-0.00000594,0.
 00000384,-0.00000268,0.00000062,-0.00002144,0.00001142,0.00000043,0.00
 000045,-0.00000024,-0.00000175,0.00000005,-0.00000064,-0.00000334,0.00
 000092,-0.00000223,0.00000035,0.00000042,0.00000119,-0.00000030,-0.000
 00082,0.00000221,-0.00000108,0.00000134,-0.00000064,0.00000239,-0.0000
 0364,0.00000135,0.00000134,-0.00000209,0.00000302,-0.00000065,0.000000
 65,-0.00000076,0.00000770,0.00000018,0.00000547,-0.00000030,0.00000045
 ,0.00000116,0.00000946,-0.00001326,-0.00000255,0.00000086,-0.00000086,
 0.00000075,0.00002175,-0.00000864,-0.00000630,-0.00000372,-0.00000012,
 0.00000235,0.00000050,0.00000408,-0.00000016\\\@


 THOSE WHO ARE UNABLE TO LEARN FROM PAST MEETINGS
 ARE CONDEMNED TO REPEAT THEM.
 Job cpu time:       0 days  2 hours 30 minutes 41.9 seconds.
 Elapsed time:       0 days  0 hours 12 minutes 34.1 seconds.
 File lengths (MBytes):  RWF=    204 Int=      0 D2E=      0 Chk=     32 Scr=      1
 Normal termination of Gaussian 16 at Fri Jun 10 14:06:51 2022.
