 Entering Gaussian System, Link 0=g16
 Input=int_zmat_field_N25.gjf
 Output=int_zmat_field_N25.out
 Initial command:
 /software/gaussian/g16-a03/l1.exe "/local_scratch/11174451/Gau-30246.inp" -scrdir="/local_scratch/11174451/"
 Entering Link 1 = /software/gaussian/g16-a03/l1.exe PID=     30247.
  
 Copyright (c) 1988,1990,1992,1993,1995,1998,2003,2009,2016,
            Gaussian, Inc.  All Rights Reserved.
  
 This is part of the Gaussian(R) 16 program.  It is based on
 the Gaussian(R) 09 system (copyright 2009, Gaussian, Inc.),
 the Gaussian(R) 03 system (copyright 2003, Gaussian, Inc.),
 the Gaussian(R) 98 system (copyright 1998, Gaussian, Inc.),
 the Gaussian(R) 94 system (copyright 1995, Gaussian, Inc.),
 the Gaussian 92(TM) system (copyright 1992, Gaussian, Inc.),
 the Gaussian 90(TM) system (copyright 1990, Gaussian, Inc.),
 the Gaussian 88(TM) system (copyright 1988, Gaussian, Inc.),
 the Gaussian 86(TM) system (copyright 1986, Carnegie Mellon
 University), and the Gaussian 82(TM) system (copyright 1983,
 Carnegie Mellon University). Gaussian is a federally registered
 trademark of Gaussian, Inc.
  
 This software contains proprietary and confidential information,
 including trade secrets, belonging to Gaussian, Inc.
  
 This software is provided under written license and may be
 used, copied, transmitted, or stored only in accord with that
 written license.
  
 The following legend is applicable only to US Government
 contracts under FAR:
  
                    RESTRICTED RIGHTS LEGEND
  
 Use, reproduction and disclosure by the US Government is
 subject to restrictions as set forth in subparagraphs (a)
 and (c) of the Commercial Computer Software - Restricted
 Rights clause in FAR 52.227-19.
  
 Gaussian, Inc.
 340 Quinnipiac St., Bldg. 40, Wallingford CT 06492
  
  
 ---------------------------------------------------------------
 Warning -- This program may not be used in any manner that
 competes with the business of Gaussian, Inc. or will provide
 assistance to any competitor of Gaussian, Inc.  The licensee
 of this program is prohibited from giving any competitor of
 Gaussian, Inc. access to this program.  By using this program,
 the user acknowledges that Gaussian, Inc. is engaged in the
 business of creating and licensing software in the field of
 computational chemistry and represents and warrants to the
 licensee that it is not a competitor of Gaussian, Inc. and that
 it will not use this program in any manner prohibited above.
 ---------------------------------------------------------------
  

 Cite this work as:
 Gaussian 16, Revision A.03,
 M. J. Frisch, G. W. Trucks, H. B. Schlegel, G. E. Scuseria, 
 M. A. Robb, J. R. Cheeseman, G. Scalmani, V. Barone, 
 G. A. Petersson, H. Nakatsuji, X. Li, M. Caricato, A. V. Marenich, 
 J. Bloino, B. G. Janesko, R. Gomperts, B. Mennucci, H. P. Hratchian, 
 J. V. Ortiz, A. F. Izmaylov, J. L. Sonnenberg, D. Williams-Young, 
 F. Ding, F. Lipparini, F. Egidi, J. Goings, B. Peng, A. Petrone, 
 T. Henderson, D. Ranasinghe, V. G. Zakrzewski, J. Gao, N. Rega, 
 G. Zheng, W. Liang, M. Hada, M. Ehara, K. Toyota, R. Fukuda, 
 J. Hasegawa, M. Ishida, T. Nakajima, Y. Honda, O. Kitao, H. Nakai, 
 T. Vreven, K. Throssell, J. A. Montgomery, Jr., J. E. Peralta, 
 F. Ogliaro, M. J. Bearpark, J. J. Heyd, E. N. Brothers, K. N. Kudin, 
 V. N. Staroverov, T. A. Keith, R. Kobayashi, J. Normand, 
 K. Raghavachari, A. P. Rendell, J. C. Burant, S. S. Iyengar, 
 J. Tomasi, M. Cossi, J. M. Millam, M. Klene, C. Adamo, R. Cammi, 
 J. W. Ochterski, R. L. Martin, K. Morokuma, O. Farkas, 
 J. B. Foresman, and D. J. Fox, Gaussian, Inc., Wallingford CT, 2016.
 
 ******************************************
 Gaussian 16:  ES64L-G16RevA.03 25-Dec-2016
                10-Jun-2022 
 ******************************************
 %nprocshared=12
 Will use up to   12 processors via shared memory.
 %chk=checkpoint.chk
 %mem=12GB
 ----------------------------------------------------------------------
 # Opt=(Z-matrix, MaxStep=10) B3LYP/Def2TZVP Field=read NoSymm freq=nor
 aman pop=none
 ----------------------------------------------------------------------
 1/8=10,10=7,18=40,26=3,38=1/1,3;
 2/12=2,15=1,17=6,18=5,29=3,40=1/2;
 3/5=44,7=101,11=2,14=-6,25=1,30=1,71=1,74=-5/1,2,3;
 4//1;
 5/5=2,38=5/2;
 7/29=1,30=1/1,2,3,16;
 1/8=10,10=7,18=40,26=3/3(2);
 2/15=1,29=3/2;
 99//99;
 2/15=1,29=3/2;
 3/5=44,7=101,11=2,14=-2,25=1,30=1,71=1,74=-5/1,2,3;
 4/5=5,16=3,69=1/1;
 5/5=2,38=5/2;
 7/30=1/1,2,3,16;
 1/8=10,18=40,26=3/3(-5);
 2/15=1,29=3/2;
 99/9=1/99;
 ------------------
 int_zmat_initalOpt
 ------------------
 Symbolic Z-matrix:
 Charge =  0 Multiplicity = 1
 H
 C                    1    R2
 C                    2    R3       1    A3
 C                    2    R4       1    A4       3    D4       0
 H                    3    R5       2    A5       1    D5       0
 C                    3    R6       2    A6       5    D6       0
 N                    4    R7       2    A7       1    D7       0
 H                    4    R8       2    A8       7    D8       0
 H                    6    R9       3    A9       2    D9       0
 H                    7    R10      4    A10      2    D10      0
       Variables:
  R2                    1.0772                   
  R3                    1.42059                  
  R4                    1.37402                  
  R5                    1.0772                   
  R6                    1.37402                  
  R7                    1.37049                  
  R8                    1.07618                  
  R9                    1.07618                  
  R10                   1.00364                  
  A3                  126.87086                  
  A4                  125.71504                  
  A5                  126.87083                  
  A6                  107.41413                  
  A7                  107.66856                  
  A8                  131.05516                  
  A9                  131.0551                   
  A10                 125.08267                  
  D4                  180.                       
  D5                    0.00011                  
  D6                  179.99982                  
  D7                  179.99986                  
  D8                 -179.99978                  
  D9                 -179.99987                  
  D10                -179.9994                   
 

 GradGradGradGradGradGradGradGradGradGradGradGradGradGradGradGradGradGrad
 Berny optimization.
 Initialization pass.
                       ----------------------------
                       !    Initial Parameters    !
                       ! (Angstroms and Degrees)  !
 ----------------------                            ----------------------
 !      Name          Value   Derivative information (Atomic Units)     !
 ------------------------------------------------------------------------
 !       R2          1.0772   estimate D2E/DX2                          !
 !       R3          1.4206   estimate D2E/DX2                          !
 !       R4          1.374    estimate D2E/DX2                          !
 !       R5          1.0772   estimate D2E/DX2                          !
 !       R6          1.374    estimate D2E/DX2                          !
 !       R7          1.3705   estimate D2E/DX2                          !
 !       R8          1.0762   estimate D2E/DX2                          !
 !       R9          1.0762   estimate D2E/DX2                          !
 !       R10         1.0036   estimate D2E/DX2                          !
 !       A3        126.8709   estimate D2E/DX2                          !
 !       A4        125.715    estimate D2E/DX2                          !
 !       A5        126.8708   estimate D2E/DX2                          !
 !       A6        107.4141   estimate D2E/DX2                          !
 !       A7        107.6686   estimate D2E/DX2                          !
 !       A8        131.0552   estimate D2E/DX2                          !
 !       A9        131.0551   estimate D2E/DX2                          !
 !       A10       125.0827   estimate D2E/DX2                          !
 !       D4        180.0      estimate D2E/DX2                          !
 !       D5          0.0001   estimate D2E/DX2                          !
 !       D6        179.9998   estimate D2E/DX2                          !
 !       D7        179.9999   estimate D2E/DX2                          !
 !       D8       -179.9998   estimate D2E/DX2                          !
 !       D9       -179.9999   estimate D2E/DX2                          !
 !       D10      -179.9994   estimate D2E/DX2                          !
 ------------------------------------------------------------------------
 Trust Radius=1.00D-01 FncErr=1.00D-07 GrdErr=1.00D-06 EigMax=2.50D+02 EigMin=1.00D-04
 Number of steps in this run=     34 maximum allowed number of steps=    100.
 GradGradGradGradGradGradGradGradGradGradGradGradGradGradGradGradGradGrad

 ---------------------------------------------------------------------------------------------------
                            Z-MATRIX (ANGSTROMS AND DEGREES)
   CD    Cent   Atom    N1       Length/X        N2       Alpha/Y        N3        Beta/Z          J
 ---------------------------------------------------------------------------------------------------
      1      1  H 
      2      2  C        1   1.077201(     1)
      3      3  C        2   1.420589(     2)      1  126.871(    10)
      4      4  C        2   1.374021(     3)      1  125.715(    11)      3  180.000(    18)      0
      5      5  H        3   1.077201(     4)      2  126.871(    12)      1    0.000(    19)      0
      6      6  C        3   1.374021(     5)      2  107.414(    13)      5  180.000(    20)      0
      7      7  N        4   1.370493(     6)      2  107.669(    14)      1  180.000(    21)      0
      8      8  H        4   1.076182(     7)      2  131.055(    15)      7 -180.000(    22)      0
      9      9  H        6   1.076183(     8)      3  131.055(    16)      2 -180.000(    23)      0
     10     10  H        7   1.003643(     9)      4  125.083(    17)      2 -179.999(    24)      0
 ---------------------------------------------------------------------------------------------------
                         Z-Matrix orientation:                         
 ---------------------------------------------------------------------
 Center     Atomic      Atomic             Coordinates (Angstroms)
 Number     Number       Type             X           Y           Z
 ---------------------------------------------------------------------
      1          1           0        0.000000    0.000000    0.000000
      2          6           0        0.000000    0.000000    1.077201
      3          6           0        1.136457    0.000000    1.929573
      4          6           0       -1.115609    0.000000    1.879291
      5          1           0        2.170580    0.000002    1.627991
      6          6           0        0.678777    0.000002    3.225128
      7          7           0       -0.691046   -0.000003    3.182364
      8          1           0       -2.163230   -0.000001    1.632999
      9          1           0        1.208522    0.000004    4.161900
     10          1           0       -1.293245   -0.000012    3.985268
 ---------------------------------------------------------------------
                    Distance matrix (angstroms):
                    1          2          3          4          5
     1  H    0.000000
     2  C    1.077201   0.000000
     3  C    2.239372   1.420589   0.000000
     4  C    2.185479   1.374021   2.252627   0.000000
     5  H    2.713259   2.239372   1.077201   3.295784   0.000000
     6  C    3.295784   2.252628   1.374021   2.243012   2.185480
     7  N    3.256529   2.215684   2.215683   1.370493   3.256529
     8  H    2.710396   2.233489   3.312988   1.076182   4.333813
     9  H    4.333813   3.312989   2.233490   3.257589   2.710397
    10  H    4.189850   3.182662   3.182661   2.113455   4.189850
                    6          7          8          9         10
     6  C    0.000000
     7  N    1.370491   0.000000
     8  H    3.257588   2.137254   0.000000
     9  H    1.076183   2.137253   4.214742   0.000000
    10  H    2.113453   1.003643   2.507995   2.507995   0.000000
 Symmetry turned off by external request.
 Stoichiometry    C4H5N
 Framework group  C1[X(C4H5N)]
 Deg. of freedom    24
 Full point group                 C1      NOp   1
 Rotational constants (GHZ):           9.1960221           9.0642704           4.5648355
 Standard basis: def2TZVP (5D, 7F)
 The following finite field(s) will be applied:
 An electric field of             -0.0019 -0.0002  0.0016
   185 basis functions,   295 primitive gaussians,   210 cartesian basis functions
    18 alpha electrons       18 beta electrons
       nuclear repulsion energy       161.2775701439 Hartrees.
 NAtoms=   10 NActive=   10 NUniq=   10 SFac= 1.00D+00 NAtFMM=   60 NAOKFM=F Big=F
 Integral buffers will be    131072 words long.
 Raffenetti 2 integral format.
 Two-electron integral symmetry is turned off.
 One-electron integrals computed using PRISM.
   1 Symmetry operations used in ECPInt.
 ECPInt:  NShTT=    2850 NPrTT=    8640 LenC2=    2844 LenP2D=    7462.
 LDataN:  DoStor=T MaxTD1= 6 Len=  172
 NBasis=   185 RedAO= T EigKep=  5.47D-05  NBF=   185
 NBsUse=   185 1.00D-06 EigRej= -1.00D+00 NBFU=   185
 The nuclear repulsion energy is now       161.5227228404 hartrees.
 ExpMin= 9.52D-02 ExpMax= 1.97D+04 ExpMxC= 6.73D+02 IAcc=3 IRadAn=         5 AccDes= 0.00D+00
 Harris functional with IExCor=  402 and IRadAn=       5 diagonalized for initial guess.
 HarFok:  IExCor=  402 AccDes= 0.00D+00 IRadAn=         5 IDoV= 1 UseB2=F ITyADJ=14
 ICtDFT=  3500011 ScaDFX=  1.000000  1.000000  1.000000  1.000000
 FoFCou: FMM=F IPFlag=           0 FMFlag=      100000 FMFlg1=           0
         NFxFlg=           0 DoJE=T BraDBF=F KetDBF=T FulRan=T
         wScrn=  0.000000 ICntrl=       500 IOpCl=  0 I1Cent=   200000004 NGrid=           0
         NMat0=    1 NMatS0=      1 NMatT0=    0 NMatD0=    1 NMtDS0=    0 NMtDT0=    0
 Symmetry not used in FoFCou.
 Keep R1 ints in memory in canonical form, NReq=160464041.
 Requested convergence on RMS density matrix=1.00D-08 within 128 cycles.
 Requested convergence on MAX density matrix=1.00D-06.
 Requested convergence on             energy=1.00D-06.
 No special actions if energy rises.
 Integral accuracy reduced to 1.0D-05 until final iterations.
 Initial convergence to 1.0D-05 achieved.  Increase integral accuracy.
 SCF Done:  E(RB3LYP) =  -210.251806436     A.U. after   12 cycles
            NFock= 12  Conv=0.83D-08     -V/T= 2.0051
   1 Symmetry operations used in ECPInt.
 ECPInt:  NShTT=    2850 NPrTT=    8640 LenC2=    2844 LenP2D=    7462.
 LDataN:  DoStor=T MaxTD1= 7 Len=  274
 Calling FoFJK, ICntrl=      2127 FMM=F ISym2X=0 I1Cent= 0 IOpClX= 0 NMat=1 NMatS=1 NMatT=0.
 -------------------------------------------------------------------
 Center     Atomic                   Forces (Hartrees/Bohr)
 Number     Number              X              Y              Z
 -------------------------------------------------------------------
      1        1           0.000231847    0.000034791   -0.000053206
      2        6          -0.000632817   -0.000046616    0.000218177
      3        6          -0.000000355   -0.000045682    0.000673719
      4        6           0.000264149   -0.000033512   -0.000839296
      5        1          -0.000036594    0.000034868   -0.000154681
      6        6           0.000688599   -0.000032619   -0.000659774
      7        7          -0.000823893   -0.000046486    0.001096466
      8        1          -0.000265541    0.000037698   -0.000243656
      9        1           0.000334623    0.000037687    0.000111432
     10        1           0.000239982    0.000059871   -0.000149181
 -------------------------------------------------------------------
 Cartesian Forces:  Max     0.001096466 RMS     0.000404149
 -----------------------------------------------------------------------------------------------
                       Internal Coordinate Forces (Hartree/Bohr or radian)
  Cent   Atom   N1       Length/X         N2         Alpha/Y        N3         Beta/Z          J
 -----------------------------------------------------------------------------------------------
      1  H 
      2  C        1   0.000053(     1)
      3  C        2   0.000771(     2)      1  -0.004486(    10)
      4  C        2   0.000396(     3)      1  -0.003535(    11)      3  -0.000169(    18)     0
      5  H        3   0.000008(     4)      2  -0.000323(    12)      1   0.000013(    19)     0
      6  C        3  -0.000858(     5)      2   0.002512(    13)      5  -0.000043(    20)     0
      7  N        4   0.000720(     6)      2   0.002004(    14)      1   0.000009(    21)     0
      8  H        4   0.000314(     7)      2  -0.000359(    15)      7  -0.000058(    22)     0
      9  H        6   0.000262(     8)      3  -0.000481(    16)      2   0.000058(    23)     0
     10  H        7  -0.000263(     9)      4   0.000194(    17)      2  -0.000093(    24)     0
 -----------------------------------------------------------------------------------------------
 Internal  Forces:  Max     0.004486364 RMS     0.001380566

 GradGradGradGradGradGradGradGradGradGradGradGradGradGradGradGradGradGrad
 Berny optimization.
 Search for a local minimum.
 Step number   1 out of a maximum of   34
 All quantities printed in internal units (Hartrees-Bohrs-Radians)
 Second derivative matrix not updated -- first step.
 ITU=  0
     Eigenvalues ---    0.02496   0.04240   0.06849   0.09784   0.12666
     Eigenvalues ---    0.14126   0.23818   0.24209   0.26978   0.29221
     Eigenvalues ---    0.30876   0.36335   0.36335   0.36460   0.36460
     Eigenvalues ---    0.44047   0.47054   0.50272   0.51108   0.51900
     Eigenvalues ---    0.60047   1.21166   1.90075  24.64169
 RFO step:  Lambda=-1.15950843D-05 EMin= 2.49611502D-02
 Linear search not attempted -- first point.
 Variable       Old X    -DE/DX   Delta X   Delta X   Delta X     New X
                                 (Linear)    (Quad)   (Total)
    R2        2.03561   0.00005   0.00000   0.00015   0.00015   2.03576
    R3        2.68452   0.00077   0.00000  -0.00000  -0.00000   2.68452
    R4        2.59652   0.00040   0.00000  -0.00056  -0.00056   2.59596
    R5        2.03562   0.00001   0.00000   0.00002   0.00002   2.03564
    R6        2.59652  -0.00086   0.00000  -0.00128  -0.00128   2.59524
    R7        2.58986   0.00072   0.00000   0.00213   0.00213   2.59198
    R8        2.03369   0.00031   0.00000   0.00086   0.00086   2.03455
    R9        2.03369   0.00026   0.00000   0.00072   0.00072   2.03441
   R10        1.89661  -0.00026   0.00000  -0.00056  -0.00056   1.89605
    A3        2.21431  -0.00449   0.00000  -0.00368  -0.00368   2.21063
    A4        2.19414  -0.00354   0.00000   0.00313   0.00313   2.19727
    A5        2.21431  -0.00032   0.00000  -0.00125  -0.00125   2.21307
    A6        1.87473   0.00251   0.00000   0.00054   0.00054   1.87527
    A7        1.87917   0.00200   0.00000  -0.00042  -0.00042   1.87875
    A8        2.28734  -0.00036   0.00000  -0.00086  -0.00086   2.28649
    A9        2.28734  -0.00048   0.00000  -0.00159  -0.00159   2.28575
   A10        2.18310   0.00019   0.00000   0.00110   0.00110   2.18420
    D4        3.14159  -0.00017   0.00000  -0.00318  -0.00318   3.13842
    D5        0.00000   0.00001   0.00000  -0.00162  -0.00162  -0.00162
    D6        3.14159  -0.00004   0.00000  -0.00100  -0.00100   3.14059
    D7        3.14159   0.00001   0.00000   0.00268   0.00268   3.14427
    D8       -3.14159  -0.00006   0.00000  -0.00158  -0.00158  -3.14317
    D9       -3.14159   0.00006   0.00000   0.00105   0.00105  -3.14054
   D10       -3.14158  -0.00009   0.00000  -0.00173  -0.00173  -3.14331
         Item               Value     Threshold  Converged?
 Maximum Force            0.004486     0.000450     NO 
 RMS     Force            0.001381     0.000300     NO 
 Maximum Displacement     0.003683     0.001800     NO 
 RMS     Displacement     0.001651     0.001200     NO 
 Predicted change in Energy=-5.797542D-06
 GradGradGradGradGradGradGradGradGradGradGradGradGradGradGradGradGradGrad

 ---------------------------------------------------------------------------------------------------
                            Z-MATRIX (ANGSTROMS AND DEGREES)
   CD    Cent   Atom    N1       Length/X        N2       Alpha/Y        N3        Beta/Z          J
 ---------------------------------------------------------------------------------------------------
      1      1  H 
      2      2  C        1   1.077278(     1)
      3      3  C        2   1.420587(     2)      1  126.660(    10)
      4      4  C        2   1.373723(     3)      1  125.894(    11)      3  179.818(    18)      0
      5      5  H        3   1.077214(     4)      2  126.799(    12)      1   -0.093(    19)      0
      6      6  C        3   1.373344(     5)      2  107.445(    13)      5  179.943(    20)      0
      7      7  N        4   1.371618(     6)      2  107.645(    14)      1  180.154(    21)      0
      8      8  H        4   1.076638(     7)      2  131.006(    15)      7 -180.090(    22)      0
      9      9  H        6   1.076565(     8)      3  130.964(    16)      2 -179.940(    23)      0
     10     10  H        7   1.003347(     9)      4  125.146(    17)      2 -180.098(    24)      0
 ---------------------------------------------------------------------------------------------------
                         Z-Matrix orientation:                         
 ---------------------------------------------------------------------
 Center     Atomic      Atomic             Coordinates (Angstroms)
 Number     Number       Type             X           Y           Z
 ---------------------------------------------------------------------
      1          1           0        0.000000    0.000000    0.000000
      2          6           0        0.000000    0.000000    1.077278
      3          6           0        1.139586    0.000000    1.925458
      4          6           0       -1.112850    0.003535    1.882676
      5          1           0        2.172222   -0.001395    1.618778
      6          6           0        0.687610    0.003427    3.222293
      7          7           0       -0.683312    0.005676    3.185300
      8          1           0       -2.161467    0.005969    1.638656
      9          1           0        1.222984    0.005408    4.156297
     10          1           0       -1.281592    0.009794    3.990751
 ---------------------------------------------------------------------
                    Distance matrix (angstroms):
                    1          2          3          4          5
     1  H    0.000000
     2  C    1.077278   0.000000
     3  C    2.237420   1.420587   0.000000
     4  C    2.186988   1.373723   2.252845   0.000000
     5  H    2.709057   2.238699   1.077214   3.295658   0.000000
     6  C    3.294843   2.252534   1.373344   2.244155   2.185258
     7  N    3.257773   2.216011   2.215895   1.371618   3.257010
     8  H    2.712410   2.233186   3.313494   1.076638   4.333740
     9  H    4.332496   3.313016   2.232403   3.259674   2.709262
    10  H    4.191499   3.182907   3.182394   2.114826   4.189893
                    6          7          8          9         10
     6  C    0.000000
     7  N    1.371423   0.000000
     8  H    3.259624   2.139404   0.000000
     9  H    1.076565   2.139345   4.218177   0.000000
    10  H    2.113841   1.003347   2.511283   2.510045   0.000000
 Symmetry turned off by external request.
 Stoichiometry    C4H5N
 Framework group  C1[X(C4H5N)]
 Deg. of freedom    24
 Full point group                 C1      NOp   1
 Rotational constants (GHZ):           9.1903625           9.0637734           4.5633153
 Standard basis: def2TZVP (5D, 7F)
 The following finite field(s) will be applied:
 An electric field of             -0.0019 -0.0002  0.0016
   185 basis functions,   295 primitive gaussians,   210 cartesian basis functions
    18 alpha electrons       18 beta electrons
       nuclear repulsion energy       161.2494459165 Hartrees.
 NAtoms=   10 NActive=   10 NUniq=   10 SFac= 1.00D+00 NAtFMM=   60 NAOKFM=F Big=F
 Integral buffers will be    131072 words long.
 Raffenetti 2 integral format.
 Two-electron integral symmetry is turned off.
 One-electron integrals computed using PRISM.
   1 Symmetry operations used in ECPInt.
 ECPInt:  NShTT=    2850 NPrTT=    8640 LenC2=    2844 LenP2D=    7462.
 LDataN:  DoStor=T MaxTD1= 6 Len=  172
 NBasis=   185 RedAO= T EigKep=  5.50D-05  NBF=   185
 NBsUse=   185 1.00D-06 EigRej= -1.00D+00 NBFU=   185
 The nuclear repulsion energy is now       161.4939165326 hartrees.
 Initial guess from the checkpoint file:  "checkpoint.chk"
 B after Tr=    -0.007050   -0.003625   -0.000313
         Rot=    0.999997    0.001029   -0.001859    0.000839 Ang=   0.26 deg.
 Keep R1 ints in memory in canonical form, NReq=160464041.
 Requested convergence on RMS density matrix=1.00D-08 within 128 cycles.
 Requested convergence on MAX density matrix=1.00D-06.
 Requested convergence on             energy=1.00D-06.
 No special actions if energy rises.
 SCF Done:  E(RB3LYP) =  -210.251813465     A.U. after    7 cycles
            NFock=  7  Conv=0.87D-08     -V/T= 2.0051
   1 Symmetry operations used in ECPInt.
 ECPInt:  NShTT=    2850 NPrTT=    8640 LenC2=    2844 LenP2D=    7462.
 LDataN:  DoStor=T MaxTD1= 7 Len=  274
 Calling FoFJK, ICntrl=      2127 FMM=F ISym2X=0 I1Cent= 0 IOpClX= 0 NMat=1 NMatS=1 NMatT=0.
 -------------------------------------------------------------------
 Center     Atomic                   Forces (Hartrees/Bohr)
 Number     Number              X              Y              Z
 -------------------------------------------------------------------
      1        1          -0.000107512   -0.000056088   -0.000003660
      2        6          -0.000219466    0.000058093    0.000012345
      3        6           0.000132491   -0.000027744    0.000298057
      4        6           0.000215316    0.000033858   -0.000257939
      5        1          -0.000015455    0.000001280   -0.000079484
      6        6           0.000139992    0.000019390   -0.000219870
      7        7          -0.000199306   -0.000075222    0.000283729
      8        1           0.000025853    0.000009407   -0.000007231
      9        1           0.000009943    0.000009509   -0.000017347
     10        1           0.000018144    0.000027516   -0.000008599
 -------------------------------------------------------------------
 Cartesian Forces:  Max     0.000298057 RMS     0.000127910
 -----------------------------------------------------------------------------------------------
                       Internal Coordinate Forces (Hartree/Bohr or radian)
  Cent   Atom   N1       Length/X         N2         Alpha/Y        N3         Beta/Z          J
 -----------------------------------------------------------------------------------------------
      1  H 
      2  C        1   0.000004(     1)
      3  C        2   0.000203(     2)      1  -0.000832(    10)
      4  C        2  -0.000043(     3)      1  -0.000565(    11)      3  -0.000079(    18)     0
      5  H        3   0.000008(     4)      2  -0.000164(    12)      1  -0.000079(    19)     0
      6  C        3  -0.000273(     5)      2   0.000200(    13)      5  -0.000081(    20)     0
      7  N        4   0.000204(     6)      2   0.000651(    14)      1  -0.000119(    21)     0
      8  H        4  -0.000024(     7)      2  -0.000026(    15)      7  -0.000015(    22)     0
      9  H        6  -0.000010(     8)      3  -0.000035(    16)      2   0.000015(    23)     0
     10  H        7  -0.000018(     9)      4   0.000018(    17)      2  -0.000043(    24)     0
 -----------------------------------------------------------------------------------------------
 Internal  Forces:  Max     0.000832053 RMS     0.000266198

 GradGradGradGradGradGradGradGradGradGradGradGradGradGradGradGradGradGrad
 Berny optimization.
 Search for a local minimum.
 Step number   2 out of a maximum of   34
 All quantities printed in internal units (Hartrees-Bohrs-Radians)
 Update second derivatives using D2CorN and points    1    2
 DE= -7.03D-06 DEPred=-5.80D-06 R= 1.21D+00
 TightC=F SS=  1.41D+00  RLast= 8.09D-03 DXNew= 1.6818D-01 2.4260D-02
 Trust test= 1.21D+00 RLast= 8.09D-03 DXMaxT set to 1.00D-01
 ITU=  1  0
     Eigenvalues ---    0.02106   0.04143   0.06817   0.09787   0.12545
     Eigenvalues ---    0.12765   0.23584   0.24212   0.26923   0.29054
     Eigenvalues ---    0.30737   0.36333   0.36335   0.36459   0.36498
     Eigenvalues ---    0.43975   0.47036   0.49905   0.50955   0.51700
     Eigenvalues ---    0.60036   1.21172   1.90101  24.63719
 RFO step:  Lambda=-5.41422706D-07 EMin= 2.10557217D-02
 Quartic linear search produced a step of  0.27388.
 Variable       Old X    -DE/DX   Delta X   Delta X   Delta X     New X
                                 (Linear)    (Quad)   (Total)
    R2        2.03576   0.00000   0.00004  -0.00002   0.00002   2.03578
    R3        2.68452   0.00020  -0.00000   0.00034   0.00034   2.68486
    R4        2.59596  -0.00004  -0.00015  -0.00041  -0.00057   2.59539
    R5        2.03564   0.00001   0.00001   0.00002   0.00003   2.03567
    R6        2.59524  -0.00027  -0.00035  -0.00010  -0.00045   2.59480
    R7        2.59198   0.00020   0.00058  -0.00004   0.00054   2.59252
    R8        2.03455  -0.00002   0.00024  -0.00031  -0.00008   2.03447
    R9        2.03441  -0.00001   0.00020  -0.00023  -0.00003   2.03439
   R10        1.89605  -0.00002  -0.00015   0.00010  -0.00005   1.89600
    A3        2.21063  -0.00083  -0.00101  -0.00035  -0.00135   2.20928
    A4        2.19727  -0.00057   0.00086   0.00051   0.00136   2.19863
    A5        2.21307  -0.00016  -0.00034  -0.00034  -0.00068   2.21239
    A6        1.87527   0.00020   0.00015  -0.00017  -0.00002   1.87525
    A7        1.87875   0.00065  -0.00011   0.00042   0.00030   1.87906
    A8        2.28649  -0.00003  -0.00024  -0.00001  -0.00025   2.28624
    A9        2.28575  -0.00004  -0.00044   0.00010  -0.00034   2.28542
   A10        2.18420   0.00002   0.00030   0.00012   0.00042   2.18462
    D4        3.13842  -0.00008  -0.00087  -0.00108  -0.00195   3.13646
    D5       -0.00162  -0.00008  -0.00044  -0.00072  -0.00116  -0.00278
    D6        3.14059  -0.00008  -0.00027  -0.00000  -0.00027   3.14032
    D7        3.14427  -0.00012   0.00074   0.00039   0.00112   3.14540
    D8       -3.14317  -0.00001  -0.00043  -0.00006  -0.00049  -3.14366
    D9       -3.14054   0.00001   0.00029   0.00017   0.00046  -3.14008
   D10       -3.14331  -0.00004  -0.00047  -0.00021  -0.00068  -3.14399
         Item               Value     Threshold  Converged?
 Maximum Force            0.000832     0.000450     NO 
 RMS     Force            0.000266     0.000300     YES
 Maximum Displacement     0.001955     0.001800     NO 
 RMS     Displacement     0.000735     0.001200     YES
 Predicted change in Energy=-5.819542D-07
 GradGradGradGradGradGradGradGradGradGradGradGradGradGradGradGradGradGrad

 ---------------------------------------------------------------------------------------------------
                            Z-MATRIX (ANGSTROMS AND DEGREES)
   CD    Cent   Atom    N1       Length/X        N2       Alpha/Y        N3        Beta/Z          J
 ---------------------------------------------------------------------------------------------------
      1      1  H 
      2      2  C        1   1.077286(     1)
      3      3  C        2   1.420768(     2)      1  126.582(    10)
      4      4  C        2   1.373423(     3)      1  125.972(    11)      3  179.706(    18)      0
      5      5  H        3   1.077230(     4)      2  126.760(    12)      1   -0.159(    19)      0
      6      6  C        3   1.373108(     5)      2  107.444(    13)      5  179.927(    20)      0
      7      7  N        4   1.371904(     6)      2  107.662(    14)      1  180.218(    21)      0
      8      8  H        4   1.076597(     7)      2  130.992(    15)      7 -180.119(    22)      0
      9      9  H        6   1.076550(     8)      3  130.945(    16)      2 -179.913(    23)      0
     10     10  H        7   1.003318(     9)      4  125.170(    17)      2 -180.137(    24)      0
 ---------------------------------------------------------------------------------------------------
                         Z-Matrix orientation:                         
 ---------------------------------------------------------------------
 Center     Atomic      Atomic             Coordinates (Angstroms)
 Number     Number       Type             X           Y           Z
 ---------------------------------------------------------------------
      1          1           0        0.000000    0.000000    0.000000
      2          6           0        0.000000    0.000000    1.077286
      3          6           0        1.140880    0.000000    1.924030
      4          6           0       -1.111499    0.005704    1.884025
      5          1           0        2.172903   -0.002397    1.615249
      6          6           0        0.690709    0.005306    3.221237
      7          7           0       -0.680484    0.008463    3.186461
      8          1           0       -2.160343    0.009677    1.641185
      9          1           0        1.227633    0.008278    4.154331
     10          1           0       -1.277546    0.014642    3.992766
 ---------------------------------------------------------------------
                    Distance matrix (angstroms):
                    1          2          3          4          5
     1  H    0.000000
     2  C    1.077286   0.000000
     3  C    2.236850   1.420768   0.000000
     4  C    2.187467   1.373423   2.252741   0.000000
     5  H    2.707498   2.238508   1.077230   3.295391   0.000000
     6  C    3.294461   2.252472   1.373108   2.244123   2.185442
     7  N    3.258322   2.216246   2.216116   1.371904   3.257398
     8  H    2.713055   2.232747   3.313332   1.076597   4.333341
     9  H    4.331930   3.312907   2.232002   3.259729   2.709351
    10  H    4.192197   3.183137   3.182556   2.115287   4.190283
                    6          7          8          9         10
     6  C    0.000000
     7  N    1.371638   0.000000
     8  H    3.259613   2.139594   0.000000
     9  H    1.076550   2.139552   4.218328   0.000000
    10  H    2.114088   1.003318   2.511830   2.510391   0.000000
 Symmetry turned off by external request.
 Stoichiometry    C4H5N
 Framework group  C1[X(C4H5N)]
 Deg. of freedom    24
 Full point group                 C1      NOp   1
 Rotational constants (GHZ):           9.1905878           9.0626787           4.5630944
 Standard basis: def2TZVP (5D, 7F)
 The following finite field(s) will be applied:
 An electric field of             -0.0019 -0.0002  0.0016
   185 basis functions,   295 primitive gaussians,   210 cartesian basis functions
    18 alpha electrons       18 beta electrons
       nuclear repulsion energy       161.2456368387 Hartrees.
 NAtoms=   10 NActive=   10 NUniq=   10 SFac= 1.00D+00 NAtFMM=   60 NAOKFM=F Big=F
 Integral buffers will be    131072 words long.
 Raffenetti 2 integral format.
 Two-electron integral symmetry is turned off.
 One-electron integrals computed using PRISM.
   1 Symmetry operations used in ECPInt.
 ECPInt:  NShTT=    2850 NPrTT=    8640 LenC2=    2844 LenP2D=    7462.
 LDataN:  DoStor=T MaxTD1= 6 Len=  172
 NBasis=   185 RedAO= T EigKep=  5.50D-05  NBF=   185
 NBsUse=   185 1.00D-06 EigRej= -1.00D+00 NBFU=   185
 The nuclear repulsion energy is now       161.4898503328 hartrees.
 Initial guess from the checkpoint file:  "checkpoint.chk"
 B after Tr=    -0.002363   -0.001578   -0.000005
         Rot=    1.000000    0.000509   -0.000666    0.000472 Ang=   0.11 deg.
 Keep R1 ints in memory in canonical form, NReq=160464041.
 Requested convergence on RMS density matrix=1.00D-08 within 128 cycles.
 Requested convergence on MAX density matrix=1.00D-06.
 Requested convergence on             energy=1.00D-06.
 No special actions if energy rises.
 SCF Done:  E(RB3LYP) =  -210.251814075     A.U. after    7 cycles
            NFock=  7  Conv=0.65D-08     -V/T= 2.0051
   1 Symmetry operations used in ECPInt.
 ECPInt:  NShTT=    2850 NPrTT=    8640 LenC2=    2844 LenP2D=    7462.
 LDataN:  DoStor=T MaxTD1= 7 Len=  274
 Calling FoFJK, ICntrl=      2127 FMM=F ISym2X=0 I1Cent= 0 IOpClX= 0 NMat=1 NMatS=1 NMatT=0.
 -------------------------------------------------------------------
 Center     Atomic                   Forces (Hartrees/Bohr)
 Number     Number              X              Y              Z
 -------------------------------------------------------------------
      1        1          -0.000240410   -0.000098206    0.000005347
      2        6           0.000137421    0.000152342   -0.000006174
      3        6           0.000061192   -0.000028133    0.000100851
      4        6           0.000013066    0.000003244   -0.000047228
      5        1          -0.000010447   -0.000005105   -0.000013336
      6        6           0.000048282   -0.000003572   -0.000023967
      7        7           0.000011316   -0.000019318   -0.000018296
      8        1          -0.000014248   -0.000015261    0.000003561
      9        1          -0.000004242   -0.000010811    0.000012230
     10        1          -0.000001930    0.000024820   -0.000012989
 -------------------------------------------------------------------
 Cartesian Forces:  Max     0.000240410 RMS     0.000066410
 -----------------------------------------------------------------------------------------------
                       Internal Coordinate Forces (Hartree/Bohr or radian)
  Cent   Atom   N1       Length/X         N2         Alpha/Y        N3         Beta/Z          J
 -----------------------------------------------------------------------------------------------
      1  H 
      2  C        1  -0.000005(     1)
      3  C        2   0.000121(     2)      1  -0.000098(    10)
      4  C        2  -0.000051(     3)      1  -0.000101(    11)      3   0.000020(    18)     0
      5  H        3  -0.000006(     4)      2  -0.000032(    12)      1   0.000036(    19)     0
      6  C        3  -0.000026(     5)      2   0.000078(    13)      5   0.000044(    20)     0
      7  N        4  -0.000027(     6)      2  -0.000031(    14)      1   0.000052(    21)     0
      8  H        4   0.000013(     7)      2   0.000014(    15)      7   0.000024(    22)     0
      9  H        6   0.000008(     8)      3   0.000020(    16)      2  -0.000017(    23)     0
     10  H        7  -0.000009(     9)      4  -0.000018(    17)      2  -0.000039(    24)     0
 -----------------------------------------------------------------------------------------------
 Internal  Forces:  Max     0.000121275 RMS     0.000048509

 GradGradGradGradGradGradGradGradGradGradGradGradGradGradGradGradGradGrad
 Berny optimization.
 Search for a local minimum.
 Step number   3 out of a maximum of   34
 All quantities printed in internal units (Hartrees-Bohrs-Radians)
 Update second derivatives using D2CorN and points    1    2    3
 DE= -6.11D-07 DEPred=-5.82D-07 R= 1.05D+00
 Trust test= 1.05D+00 RLast= 3.60D-03 DXMaxT set to 1.00D-01
 ITU=  0  1  0
     Eigenvalues ---    0.02556   0.04225   0.06957   0.09787   0.12000
     Eigenvalues ---    0.13088   0.23698   0.24214   0.26945   0.29032
     Eigenvalues ---    0.30684   0.36335   0.36335   0.36459   0.36520
     Eigenvalues ---    0.43621   0.47030   0.49552   0.51015   0.51627
     Eigenvalues ---    0.60026   1.21235   1.90189  24.63468
 RFO step:  Lambda=-9.27560628D-08 EMin= 2.55601133D-02
 Quartic linear search produced a step of  0.02308.
 Variable       Old X    -DE/DX   Delta X   Delta X   Delta X     New X
                                 (Linear)    (Quad)   (Total)
    R2        2.03578  -0.00001   0.00000  -0.00002  -0.00002   2.03576
    R3        2.68486   0.00012   0.00001   0.00023   0.00023   2.68510
    R4        2.59539  -0.00005  -0.00001  -0.00012  -0.00013   2.59526
    R5        2.03567  -0.00001   0.00000  -0.00002  -0.00002   2.03565
    R6        2.59480  -0.00003  -0.00001  -0.00009  -0.00010   2.59470
    R7        2.59252  -0.00003   0.00001   0.00001   0.00002   2.59255
    R8        2.03447   0.00001  -0.00000   0.00004   0.00004   2.03451
    R9        2.03439   0.00001  -0.00000   0.00003   0.00002   2.03441
   R10        1.89600  -0.00001  -0.00000  -0.00002  -0.00002   1.89597
    A3        2.20928  -0.00010  -0.00003  -0.00006  -0.00009   2.20919
    A4        2.19863  -0.00010   0.00003   0.00000   0.00003   2.19866
    A5        2.21239  -0.00003  -0.00002  -0.00011  -0.00013   2.21226
    A6        1.87525   0.00008  -0.00000  -0.00001  -0.00001   1.87524
    A7        1.87906  -0.00003   0.00001  -0.00011  -0.00010   1.87895
    A8        2.28624   0.00001  -0.00001   0.00010   0.00009   2.28633
    A9        2.28542   0.00002  -0.00001   0.00011   0.00010   2.28552
   A10        2.18462  -0.00002   0.00001  -0.00013  -0.00012   2.18450
    D4        3.13646   0.00002  -0.00005   0.00001  -0.00004   3.13642
    D5       -0.00278   0.00004  -0.00003  -0.00020  -0.00022  -0.00300
    D6        3.14032   0.00004  -0.00001   0.00018   0.00017   3.14049
    D7        3.14540   0.00005   0.00003   0.00025   0.00028   3.14567
    D8       -3.14366   0.00002  -0.00001  -0.00004  -0.00006  -3.14372
    D9       -3.14008  -0.00002   0.00001  -0.00016  -0.00015  -3.14022
   D10       -3.14399  -0.00004  -0.00002  -0.00058  -0.00059  -3.14458
         Item               Value     Threshold  Converged?
 Maximum Force            0.000121     0.000450     YES
 RMS     Force            0.000049     0.000300     YES
 Maximum Displacement     0.000592     0.001800     YES
 RMS     Displacement     0.000169     0.001200     YES
 Predicted change in Energy=-4.582273D-08
 Optimization completed.
    -- Stationary point found.
                       ----------------------------
                       !   Optimized Parameters   !
                       ! (Angstroms and Degrees)  !
 ----------------------                            ----------------------
 !      Name          Value   Derivative information (Atomic Units)     !
 ------------------------------------------------------------------------
 !       R2          1.0773   -DE/DX =    0.0                           !
 !       R3          1.4208   -DE/DX =    0.0001                        !
 !       R4          1.3734   -DE/DX =   -0.0001                        !
 !       R5          1.0772   -DE/DX =    0.0                           !
 !       R6          1.3731   -DE/DX =    0.0                           !
 !       R7          1.3719   -DE/DX =    0.0                           !
 !       R8          1.0766   -DE/DX =    0.0                           !
 !       R9          1.0766   -DE/DX =    0.0                           !
 !       R10         1.0033   -DE/DX =    0.0                           !
 !       A3        126.5823   -DE/DX =   -0.0001                        !
 !       A4        125.9722   -DE/DX =   -0.0001                        !
 !       A5        126.7604   -DE/DX =    0.0                           !
 !       A6        107.4438   -DE/DX =    0.0001                        !
 !       A7        107.662    -DE/DX =    0.0                           !
 !       A8        130.9918   -DE/DX =    0.0                           !
 !       A9        130.9447   -DE/DX =    0.0                           !
 !       A10       125.1695   -DE/DX =    0.0                           !
 !       D4        179.706    -DE/DX =    0.0                           !
 !       D5         -0.1592   -DE/DX =    0.0                           !
 !       D6        179.9271   -DE/DX =    0.0                           !
 !       D7        180.2179   -DE/DX =    0.0001                        !
 !       D8       -180.1185   -DE/DX =    0.0                           !
 !       D9       -179.9131   -DE/DX =    0.0                           !
 !       D10      -180.1374   -DE/DX =    0.0                           !
 ------------------------------------------------------------------------
 GradGradGradGradGradGradGradGradGradGradGradGradGradGradGradGradGradGrad

 ---------------------------------------------------------------------------------------------------
                            Z-MATRIX (ANGSTROMS AND DEGREES)
   CD    Cent   Atom    N1       Length/X        N2       Alpha/Y        N3        Beta/Z          J
 ---------------------------------------------------------------------------------------------------
      1      1  H 
      2      2  C        1   1.077286(     1)
      3      3  C        2   1.420768(     2)      1  126.582(    10)
      4      4  C        2   1.373423(     3)      1  125.972(    11)      3  179.706(    18)      0
      5      5  H        3   1.077230(     4)      2  126.760(    12)      1   -0.159(    19)      0
      6      6  C        3   1.373108(     5)      2  107.444(    13)      5  179.927(    20)      0
      7      7  N        4   1.371904(     6)      2  107.662(    14)      1  180.218(    21)      0
      8      8  H        4   1.076597(     7)      2  130.992(    15)      7 -180.119(    22)      0
      9      9  H        6   1.076550(     8)      3  130.945(    16)      2 -179.913(    23)      0
     10     10  H        7   1.003318(     9)      4  125.170(    17)      2 -180.137(    24)      0
 ---------------------------------------------------------------------------------------------------
                         Z-Matrix orientation:                         
 ---------------------------------------------------------------------
 Center     Atomic      Atomic             Coordinates (Angstroms)
 Number     Number       Type             X           Y           Z
 ---------------------------------------------------------------------
      1          1           0        0.000000    0.000000    0.000000
      2          6           0        0.000000    0.000000    1.077286
      3          6           0        1.140880    0.000000    1.924030
      4          6           0       -1.111499    0.005704    1.884025
      5          1           0        2.172903   -0.002397    1.615249
      6          6           0        0.690709    0.005306    3.221237
      7          7           0       -0.680484    0.008463    3.186461
      8          1           0       -2.160343    0.009677    1.641185
      9          1           0        1.227633    0.008278    4.154331
     10          1           0       -1.277546    0.014642    3.992766
 ---------------------------------------------------------------------
                    Distance matrix (angstroms):
                    1          2          3          4          5
     1  H    0.000000
     2  C    1.077286   0.000000
     3  C    2.236850   1.420768   0.000000
     4  C    2.187467   1.373423   2.252741   0.000000
     5  H    2.707498   2.238508   1.077230   3.295391   0.000000
     6  C    3.294461   2.252472   1.373108   2.244123   2.185442
     7  N    3.258322   2.216246   2.216116   1.371904   3.257398
     8  H    2.713055   2.232747   3.313332   1.076597   4.333341
     9  H    4.331930   3.312907   2.232002   3.259729   2.709351
    10  H    4.192197   3.183137   3.182556   2.115287   4.190283
                    6          7          8          9         10
     6  C    0.000000
     7  N    1.371638   0.000000
     8  H    3.259613   2.139594   0.000000
     9  H    1.076550   2.139552   4.218328   0.000000
    10  H    2.114088   1.003318   2.511830   2.510391   0.000000
 Symmetry turned off by external request.
 Stoichiometry    C4H5N
 Framework group  C1[X(C4H5N)]
 Deg. of freedom    24
 Full point group                 C1      NOp   1
 Rotational constants (GHZ):           9.1905878           9.0626787           4.5630944
 1\1\GINC-BHC0068\FOpt\RB3LYP\def2TZVP\C4H5N1\DHANAWAY\10-Jun-2022\1\\#
  Opt=(Z-matrix, MaxStep=10) B3LYP/Def2TZVP Field=read NoSymm freq=nora
 man pop=none\\int_zmat_initalOpt\\0,1\H\C,1,R2\C,2,R3,1,A3\C,2,R4,1,A4
 ,3,D4,0\H,3,R5,2,A5,1,D5,0\C,3,R6,2,A6,5,D6,0\N,4,R7,2,A7,1,D7,0\H,4,R
 8,2,A8,7,D8,0\H,6,R9,3,A9,2,D9,0\H,7,R10,4,A10,2,D10,0\\R2=1.07728606\
 R3=1.42076822\R4=1.37342296\R5=1.07722976\R6=1.37310834\R7=1.37190398\
 R8=1.07659695\R9=1.0765504\R10=1.00331841\A3=126.58227089\A4=125.97221
 396\A5=126.76044727\A6=107.44377008\A7=107.66196208\A8=130.99178538\A9
 =130.9447235\A10=125.16950877\D4=179.70598682\D5=-0.15915169\D6=179.92
 709197\D7=180.21788503\D8=-180.11852105\D9=-179.91307344\D10=-180.1374
 3545\\Version=ES64L-G16RevA.03\HF=-210.2518141\RMSD=6.454e-09\RMSF=6.6
 41e-05\Dipole=-0.3318734,0.0132882,0.5117948\PG=C01 [X(C4H5N1)]\\@


 ACHIEVEMENT--  THE MAN WHO ROWS THE BOAT GENERALLY 
                DOESN'T HAVE TIME TO ROCK IT.

                   -- FROM THE BACK OF A SUGAR PACKET
 Job cpu time:       0 days  0 hours  6 minutes 42.8 seconds.
 Elapsed time:       0 days  0 hours  0 minutes 40.6 seconds.
 File lengths (MBytes):  RWF=     19 Int=      0 D2E=      0 Chk=     32 Scr=      1
 Normal termination of Gaussian 16 at Fri Jun 10 22:28:45 2022.
 Link1:  Proceeding to internal job step number  2.
 --------------------------------------------------------------------
 #N Geom=AllCheck Guess=TCheck SCRF=Check GenChk RB3LYP/def2TZVP Freq
 --------------------------------------------------------------------
 1/8=10,10=4,29=7,30=1,38=1,40=1/1,3;
 2/12=2,15=1,40=1/2;
 3/5=44,7=101,11=2,14=-4,25=1,30=1,70=2,71=2,74=-5,116=1,140=1/1,2,3;
 4/5=101/1;
 5/5=2,38=6,98=1/2;
 8/6=4,10=90,11=11/1;
 11/6=1,8=1,9=11,15=111,16=1,31=1/1,2,10;
 10/6=1,31=1/2;
 7/8=1,10=1,25=1,30=1/1,2,3,16;
 1/8=10,10=4,30=1/3;
 99//99;
 Structure from the checkpoint file:  "checkpoint.chk"
 ------------------
 int_zmat_initalOpt
 ------------------
 Charge =  0 Multiplicity = 1
 Z-Matrix found in chk file.
 H
 C,1,R2
 C,2,R3,1,A3
 C,2,R4,1,A4,3,D4,0
 H,3,R5,2,A5,1,D5,0
 C,3,R6,2,A6,5,D6,0
 N,4,R7,2,A7,1,D7,0
 H,4,R8,2,A8,7,D8,0
 H,6,R9,3,A9,2,D9,0
 H,7,R10,4,A10,2,D10,0
      Variables:
 R2=1.07728606
 R3=1.42076822
 R4=1.37342296
 R5=1.07722976
 R6=1.37310834
 R7=1.37190398
 R8=1.07659695
 R9=1.0765504
 R10=1.00331841
 A3=126.58227089
 A4=125.97221396
 A5=126.76044727
 A6=107.44377008
 A7=107.66196208
 A8=130.99178538
 A9=130.9447235
 A10=125.16950877
 D4=179.70598682
 D5=-0.15915169
 D6=179.92709197
 D7=180.21788503
 D8=-180.11852105
 D9=-179.91307344
 D10=-180.13743545
 Recover connectivity data from disk.

 GradGradGradGradGradGradGradGradGradGradGradGradGradGradGradGradGradGrad
 Berny optimization.
 Initialization pass.
                       ----------------------------
                       !    Initial Parameters    !
                       ! (Angstroms and Degrees)  !
 ----------------------                            ----------------------
 !      Name          Value   Derivative information (Atomic Units)     !
 ------------------------------------------------------------------------
 !       R2          1.0773   calculate D2E/DX2 analytically            !
 !       R3          1.4208   calculate D2E/DX2 analytically            !
 !       R4          1.3734   calculate D2E/DX2 analytically            !
 !       R5          1.0772   calculate D2E/DX2 analytically            !
 !       R6          1.3731   calculate D2E/DX2 analytically            !
 !       R7          1.3719   calculate D2E/DX2 analytically            !
 !       R8          1.0766   calculate D2E/DX2 analytically            !
 !       R9          1.0766   calculate D2E/DX2 analytically            !
 !       R10         1.0033   calculate D2E/DX2 analytically            !
 !       A3        126.5823   calculate D2E/DX2 analytically            !
 !       A4        125.9722   calculate D2E/DX2 analytically            !
 !       A5        126.7604   calculate D2E/DX2 analytically            !
 !       A6        107.4438   calculate D2E/DX2 analytically            !
 !       A7        107.662    calculate D2E/DX2 analytically            !
 !       A8        130.9918   calculate D2E/DX2 analytically            !
 !       A9        130.9447   calculate D2E/DX2 analytically            !
 !       A10       125.1695   calculate D2E/DX2 analytically            !
 !       D4        179.706    calculate D2E/DX2 analytically            !
 !       D5         -0.1592   calculate D2E/DX2 analytically            !
 !       D6        179.9271   calculate D2E/DX2 analytically            !
 !       D7        180.2179   calculate D2E/DX2 analytically            !
 !       D8       -180.1185   calculate D2E/DX2 analytically            !
 !       D9       -179.9131   calculate D2E/DX2 analytically            !
 !       D10      -180.1374   calculate D2E/DX2 analytically            !
 ------------------------------------------------------------------------
 Trust Radius=1.00D-01 FncErr=1.00D-07 GrdErr=1.00D-07 EigMax=2.50D+02 EigMin=1.00D-04
 Number of steps in this run=      2 maximum allowed number of steps=      2.
 GradGradGradGradGradGradGradGradGradGradGradGradGradGradGradGradGradGrad

                          Input orientation:                          
 ---------------------------------------------------------------------
 Center     Atomic      Atomic             Coordinates (Angstroms)
 Number     Number       Type             X           Y           Z
 ---------------------------------------------------------------------
      1          1           0        0.000000    0.000000    0.000000
      2          6           0        0.000000    0.000000    1.077286
      3          6           0        1.140880    0.000000    1.924030
      4          6           0       -1.111499    0.005704    1.884025
      5          1           0        2.172903   -0.002397    1.615249
      6          6           0        0.690709    0.005306    3.221237
      7          7           0       -0.680484    0.008463    3.186461
      8          1           0       -2.160343    0.009677    1.641185
      9          1           0        1.227633    0.008278    4.154331
     10          1           0       -1.277546    0.014642    3.992766
 ---------------------------------------------------------------------
                    Distance matrix (angstroms):
                    1          2          3          4          5
     1  H    0.000000
     2  C    1.077286   0.000000
     3  C    2.236850   1.420768   0.000000
     4  C    2.187467   1.373423   2.252741   0.000000
     5  H    2.707498   2.238508   1.077230   3.295391   0.000000
     6  C    3.294461   2.252472   1.373108   2.244123   2.185442
     7  N    3.258322   2.216246   2.216116   1.371904   3.257398
     8  H    2.713055   2.232747   3.313332   1.076597   4.333341
     9  H    4.331930   3.312907   2.232002   3.259729   2.709351
    10  H    4.192197   3.183137   3.182556   2.115287   4.190283
                    6          7          8          9         10
     6  C    0.000000
     7  N    1.371638   0.000000
     8  H    3.259613   2.139594   0.000000
     9  H    1.076550   2.139552   4.218328   0.000000
    10  H    2.114088   1.003318   2.511830   2.510391   0.000000
 Symmetry turned off by external request.
 Stoichiometry    C4H5N
 Framework group  C1[X(C4H5N)]
 Deg. of freedom    24
 Full point group                 C1      NOp   1
 Rotational constants (GHZ):           9.1905878           9.0626787           4.5630944
 Standard basis: def2TZVP (5D, 7F)
 The following finite field(s) will be applied:
 An electric field of             -0.0019 -0.0002  0.0016
   185 basis functions,   295 primitive gaussians,   210 cartesian basis functions
    18 alpha electrons       18 beta electrons
       nuclear repulsion energy       161.2456368387 Hartrees.
 NAtoms=   10 NActive=   10 NUniq=   10 SFac= 1.00D+00 NAtFMM=   60 NAOKFM=F Big=F
 Integral buffers will be    131072 words long.
 Raffenetti 2 integral format.
 Two-electron integral symmetry is turned off.
 One-electron integrals computed using PRISM.
   1 Symmetry operations used in ECPInt.
 ECPInt:  NShTT=    2850 NPrTT=    8640 LenC2=    2844 LenP2D=    7462.
 LDataN:  DoStor=T MaxTD1= 6 Len=  172
 NBasis=   185 RedAO= T EigKep=  5.50D-05  NBF=   185
 NBsUse=   185 1.00D-06 EigRej= -1.00D+00 NBFU=   185
 The nuclear repulsion energy is now       161.4898503328 hartrees.
 Initial guess from the checkpoint file:  "checkpoint.chk"
 B after Tr=     0.000000    0.000000    0.000000
         Rot=    1.000000    0.000000    0.000000    0.000000 Ang=   0.00 deg.
 Keep R1 ints in memory in canonical form, NReq=160464041.
 Requested convergence on RMS density matrix=1.00D-08 within 128 cycles.
 Requested convergence on MAX density matrix=1.00D-06.
 Requested convergence on             energy=1.00D-06.
 No special actions if energy rises.
 SCF Done:  E(RB3LYP) =  -210.251814075     A.U. after    1 cycles
            NFock=  1  Conv=0.39D-08     -V/T= 2.0051
 DoSCS=F DFT=T ScalE2(SS,OS)=  1.000000  1.000000
 Range of M.O.s used for correlation:     1   185
 NBasis=   185 NAE=    18 NBE=    18 NFC=     0 NFV=     0
 NROrb=    185 NOA=    18 NOB=    18 NVA=   167 NVB=   167

 **** Warning!!: The largest alpha MO coefficient is  0.35696576D+02

   1 Symmetry operations used in ECPInt.
 ECPInt:  NShTT=    2850 NPrTT=    8640 LenC2=    2844 LenP2D=    7462.
 LDataN:  DoStor=T MaxTD1= 7 Len=  274
 Symmetrizing basis deriv contribution to polar:
 IMax=3 JMax=2 DiffMx= 0.00D+00
 G2DrvN: will do    11 centers at a time, making    1 passes.
 Calling FoFCou, ICntrl=  3107 FMM=F I1Cent=   0 AccDes= 0.00D+00.
 End of G2Drv F.D. properties file   721 does not exist.
 End of G2Drv F.D. properties file   722 does not exist.
 End of G2Drv F.D. properties file   788 does not exist.
          IDoAtm=1111111111
          Differentiating once with respect to electric field.
                with respect to dipole field.
          Differentiating once with respect to nuclear coordinates.
 Keep R1 ints in memory in canonical form, NReq=160431847.
          There are    33 degrees of freedom in the 1st order CPHF.  IDoFFX=6 NUNeed=     3.
     30 vectors produced by pass  0 Test12= 9.11D-15 3.03D-09 XBig12= 6.04D+01 4.48D+00.
 AX will form    30 AO Fock derivatives at one time.
     30 vectors produced by pass  1 Test12= 9.11D-15 3.03D-09 XBig12= 1.02D+01 6.83D-01.
     30 vectors produced by pass  2 Test12= 9.11D-15 3.03D-09 XBig12= 9.68D-02 8.22D-02.
     30 vectors produced by pass  3 Test12= 9.11D-15 3.03D-09 XBig12= 2.31D-04 2.44D-03.
     30 vectors produced by pass  4 Test12= 9.11D-15 3.03D-09 XBig12= 3.43D-07 1.77D-04.
     26 vectors produced by pass  5 Test12= 9.11D-15 3.03D-09 XBig12= 5.83D-10 5.33D-06.
      6 vectors produced by pass  6 Test12= 9.11D-15 3.03D-09 XBig12= 9.04D-13 2.65D-07.
      1 vectors produced by pass  7 Test12= 9.11D-15 3.03D-09 XBig12= 9.60D-16 7.59D-09.
 InvSVY:  IOpt=1 It=  1 EMax= 6.22D-15
 Solved reduced A of dimension   183 with    33 vectors.
 Isotropic polarizability for W=    0.000000       49.84 Bohr**3.
 End of Minotr F.D. properties file   721 does not exist.
 End of Minotr F.D. properties file   722 does not exist.
 End of Minotr F.D. properties file   788 does not exist.
   1 Symmetry operations used in ECPInt.
 ECPInt:  NShTT=    2850 NPrTT=    8640 LenC2=    2844 LenP2D=    7462.
 LDataN:  DoStor=T MaxTD1= 8 Len=  415
 Calling FoFJK, ICntrl=    100127 FMM=F ISym2X=0 I1Cent= 0 IOpClX= 0 NMat=1 NMatS=1 NMatT=0.
 Full mass-weighted force constant matrix:
 Low frequencies ---  -12.2389  -10.7142   -8.9023   -0.0002    0.0003    0.0009
 Low frequencies ---  436.4708  628.0731  639.8423
 Diagonal vibrational polarizability:
        1.0354300      18.0884031       1.1504502
 Harmonic frequencies (cm**-1), IR intensities (KM/Mole), Raman scattering
 activities (A**4/AMU), depolarization ratios for plane and unpolarized
 incident light, reduced masses (AMU), force constants (mDyne/A),
 and normal coordinates:
                      1                      2                      3
                      A                      A                      A
 Frequencies --    436.4613               628.0731               639.8423
 Red. masses --      1.4023                 3.1943                 2.3782
 Frc consts  --      0.1574                 0.7424                 0.5736
 IR Inten    --     71.0418                 0.0015                 0.1448
  Atom  AN      X      Y      Z        X      Y      Z        X      Y      Z
     1   1    -0.00  -0.09  -0.00    -0.00  -0.50   0.00    -0.00  -0.06  -0.00
     2   6    -0.00   0.01  -0.00    -0.00  -0.27   0.00     0.00   0.10  -0.00
     3   6     0.00   0.01  -0.00     0.00   0.27  -0.00     0.00   0.09  -0.00
     4   6     0.00   0.04  -0.00     0.00   0.16  -0.00    -0.00  -0.19   0.00
     5   1    -0.00  -0.09   0.00     0.00   0.50  -0.00     0.00  -0.06   0.00
     6   6     0.00   0.04  -0.00    -0.00  -0.16   0.00    -0.00  -0.19   0.00
     7   7    -0.00  -0.17   0.00    -0.00   0.00  -0.00     0.00   0.18  -0.00
     8   1     0.00   0.11  -0.00     0.00   0.38  -0.00    -0.00  -0.46   0.00
     9   1     0.00   0.11  -0.00    -0.00  -0.40   0.00    -0.00  -0.45   0.00
    10   1     0.00   0.96  -0.00     0.00   0.00   0.00     0.00   0.67  -0.00
                      4                      5                      6
                      A                      A                      A
 Frequencies --    679.9844               727.7809               826.5004
 Red. masses --      1.2971                 1.2007                 1.2270
 Frc consts  --      0.3534                 0.3747                 0.4938
 IR Inten    --      0.5455               154.5020                 4.1186
  Atom  AN      X      Y      Z        X      Y      Z        X      Y      Z
     1   1     0.00   0.27   0.00     0.00   0.46  -0.00     0.00   0.56  -0.00
     2   6    -0.00  -0.03   0.00    -0.00  -0.03   0.00    -0.00  -0.08  -0.00
     3   6     0.00   0.03  -0.00    -0.00  -0.03   0.00    -0.00  -0.07   0.00
     4   6    -0.00  -0.12   0.00    -0.00  -0.08   0.00     0.00   0.06  -0.00
     5   1    -0.00  -0.23   0.00     0.00   0.50  -0.00     0.00   0.48  -0.00
     6   6     0.00   0.10  -0.00    -0.00  -0.09   0.00     0.00   0.06  -0.00
     7   7     0.00   0.00   0.00     0.00   0.04  -0.00    -0.00  -0.00   0.00
     8   1     0.00   0.69  -0.00     0.00   0.46  -0.00    -0.00  -0.45   0.00
     9   1    -0.00  -0.61   0.00     0.00   0.53  -0.00    -0.00  -0.45   0.00
    10   1    -0.00   0.01  -0.00     0.00   0.16  -0.00     0.00   0.16  -0.00
                      7                      8                      9
                      A                      A                      A
 Frequencies --    878.4849               880.2866               904.1690
 Red. masses --      1.3155                 4.8219                 4.0474
 Frc consts  --      0.5982                 2.2015                 1.9495
 IR Inten    --      0.0448                 1.6500                 0.3923
  Atom  AN      X      Y      Z        X      Y      Z        X      Y      Z
     1   1    -0.01  -0.63   0.03    -0.10   0.19   0.34    -0.37  -0.00  -0.10
     2   6     0.00   0.10   0.03     0.04  -0.03   0.34     0.10   0.00  -0.09
     3   6     0.03  -0.11  -0.01     0.33   0.03  -0.07     0.05  -0.00  -0.12
     4   6    -0.02  -0.03   0.00    -0.22   0.01   0.03     0.22  -0.00   0.11
     5   1     0.03   0.68  -0.02     0.30  -0.21  -0.18     0.19   0.00   0.33
     6   6    -0.00   0.04  -0.02    -0.04  -0.01  -0.22    -0.16  -0.00  -0.18
     7   7    -0.01  -0.00  -0.01    -0.09   0.00  -0.06    -0.19   0.00   0.26
     8   1    -0.01   0.21  -0.02    -0.15  -0.06  -0.29     0.32   0.00  -0.28
     9   1    -0.03  -0.26  -0.00    -0.32   0.08  -0.07     0.18  -0.00  -0.38
    10   1     0.02   0.01   0.02     0.25  -0.00   0.19    -0.19  -0.00   0.26
                     10                     11                     12
                      A                      A                      A
 Frequencies --   1035.9474              1069.0700              1090.9408
 Red. masses --      1.4470                 1.4031                 1.5694
 Frc consts  --      0.9149                 0.9448                 1.1005
 IR Inten    --     32.3801                28.4544                 6.5860
  Atom  AN      X      Y      Z        X      Y      Z        X      Y      Z
     1   1     0.56  -0.00   0.09     0.55  -0.00  -0.05     0.43  -0.00   0.02
     2   6     0.06   0.00   0.08     0.04  -0.00  -0.05     0.09  -0.00   0.01
     3   6    -0.09   0.00  -0.03    -0.03   0.00   0.05    -0.04  -0.00  -0.09
     4   6    -0.02  -0.00  -0.06    -0.10   0.00  -0.03     0.07   0.00   0.11
     5   1    -0.24  -0.00  -0.51     0.11   0.00   0.52    -0.15  -0.00  -0.45
     6   6     0.07  -0.00   0.00    -0.06  -0.00  -0.09    -0.12   0.00  -0.02
     7   7    -0.06   0.00   0.08     0.06  -0.00   0.04     0.02  -0.00  -0.03
     8   1     0.05  -0.00  -0.39    -0.18   0.00   0.27    -0.02   0.00   0.51
     9   1     0.36  -0.00  -0.17     0.17  -0.00  -0.23    -0.49   0.00   0.18
    10   1    -0.06   0.00   0.09     0.34   0.00   0.25     0.01   0.00  -0.04
                     13                     14                     15
                      A                      A                      A
 Frequencies --   1156.3577              1174.2985              1316.2863
 Red. masses --      1.2566                 3.5549                 1.3709
 Frc consts  --      0.9900                 2.8882                 1.3995
 IR Inten    --      1.4301                 3.3374                 0.9098
  Atom  AN      X      Y      Z        X      Y      Z        X      Y      Z
     1   1    -0.14   0.00  -0.03    -0.30   0.00   0.27     0.49  -0.00  -0.00
     2   6    -0.01  -0.00  -0.03     0.02   0.00   0.24    -0.08   0.00  -0.00
     3   6    -0.03   0.00  -0.00    -0.24   0.00   0.05    -0.03  -0.00  -0.07
     4   6     0.01  -0.00  -0.06     0.16  -0.00   0.06     0.00   0.00   0.10
     5   1    -0.07  -0.00  -0.12    -0.17   0.00   0.37     0.14   0.00   0.46
     6   6    -0.06   0.00   0.02    -0.11  -0.00  -0.13     0.10  -0.00  -0.03
     7   7     0.08  -0.00   0.06     0.13  -0.00  -0.18    -0.00  -0.00  -0.00
     8   1     0.11  -0.00  -0.49     0.28  -0.00  -0.33     0.13  -0.00  -0.44
     9   1    -0.44   0.00   0.25     0.25  -0.00  -0.37    -0.38   0.00   0.25
    10   1     0.53  -0.00   0.39     0.14  -0.00  -0.19    -0.23   0.00  -0.17
                     16                     17                     18
                      A                      A                      A
 Frequencies --   1418.3085              1448.6791              1499.5552
 Red. masses --      4.2108                 2.9405                 2.6453
 Frc consts  --      4.9907                 3.6360                 3.5047
 IR Inten    --      3.9960                 6.2028                 7.3514
  Atom  AN      X      Y      Z        X      Y      Z        X      Y      Z
     1   1    -0.55   0.00   0.05     0.06   0.00   0.09     0.19  -0.00  -0.14
     2   6     0.33  -0.00   0.05    -0.07   0.00   0.08    -0.00  -0.00  -0.11
     3   6    -0.14  -0.00  -0.30     0.06  -0.00  -0.09     0.11  -0.00  -0.03
     4   6    -0.19   0.00   0.00    -0.02  -0.00  -0.17    -0.09   0.00   0.21
     5   1     0.11   0.00   0.55     0.10  -0.00   0.02     0.07  -0.00  -0.22
     6   6     0.05   0.00   0.18    -0.17   0.00   0.02    -0.18   0.00   0.15
     7   7     0.01  -0.00   0.00     0.22  -0.00   0.17     0.07  -0.00  -0.10
     8   1    -0.21   0.00   0.01    -0.06  -0.00  -0.01     0.09  -0.00  -0.60
     9   1     0.05   0.00   0.21    -0.03   0.00  -0.06     0.54  -0.00  -0.26
    10   1    -0.03   0.00  -0.00    -0.72   0.00  -0.53     0.08  -0.00  -0.11
                     19                     20                     21
                      A                      A                      A
 Frequencies --   1577.4333              3239.3067              3248.7801
 Red. masses --      3.0443                 1.0882                 1.0923
 Frc consts  --      4.4631                 6.7276                 6.7926
 IR Inten    --      2.6648                 0.8954                 1.8937
  Atom  AN      X      Y      Z        X      Y      Z        X      Y      Z
     1   1    -0.34   0.00  -0.14    -0.00   0.00   0.68    -0.00  -0.00  -0.48
     2   6     0.18  -0.00  -0.11     0.00  -0.00  -0.06     0.00   0.00   0.04
     3   6    -0.06   0.00   0.21    -0.05   0.00   0.02    -0.05   0.00   0.01
     4   6    -0.16   0.00   0.11     0.03  -0.00   0.01    -0.04   0.00  -0.01
     5   1    -0.24  -0.00  -0.29     0.57  -0.00  -0.17     0.57  -0.00  -0.17
     6   6     0.06  -0.00  -0.19     0.01   0.00   0.02     0.02   0.00   0.03
     7   7     0.09  -0.00   0.06     0.00   0.00   0.00     0.00  -0.00  -0.00
     8   1    -0.10  -0.00  -0.31    -0.33   0.00  -0.08     0.43  -0.00   0.10
     9   1    -0.33   0.00  -0.01    -0.13  -0.00  -0.23    -0.23  -0.00  -0.39
    10   1    -0.46   0.00  -0.34     0.00  -0.00   0.00    -0.01   0.00   0.01
                     22                     23                     24
                      A                      A                      A
 Frequencies --   3261.2674              3267.8903              3670.0740
 Red. masses --      1.0994                 1.1065                 1.0803
 Frc consts  --      6.8893                 6.9623                 8.5734
 IR Inten    --      3.5247                 0.0644                54.1293
  Atom  AN      X      Y      Z        X      Y      Z        X      Y      Z
     1   1    -0.00   0.00   0.36     0.00  -0.00  -0.41     0.00  -0.00  -0.00
     2   6     0.00  -0.00  -0.03    -0.00   0.00   0.04    -0.00   0.00   0.00
     3   6    -0.02   0.00   0.01    -0.04   0.00   0.01    -0.00   0.00   0.00
     4   6    -0.06   0.00  -0.01     0.04  -0.00   0.01     0.00  -0.00   0.00
     5   1     0.22  -0.00  -0.07     0.46  -0.00  -0.14     0.00  -0.00  -0.00
     6   6    -0.02  -0.00  -0.05    -0.03  -0.00  -0.05    -0.00  -0.00  -0.00
     7   7     0.00   0.00   0.00     0.00   0.00  -0.00     0.04  -0.00  -0.06
     8   1     0.66  -0.00   0.15    -0.46   0.00  -0.10    -0.01   0.00  -0.00
     9   1     0.29   0.00   0.51     0.30   0.00   0.53     0.01   0.00   0.01
    10   1    -0.01   0.00  -0.00     0.01  -0.00  -0.02    -0.59   0.01   0.80

 -------------------
 - Thermochemistry -
 -------------------
 Temperature   298.150 Kelvin.  Pressure   1.00000 Atm.
 Atom     1 has atomic number  1 and mass   1.00783
 Atom     2 has atomic number  6 and mass  12.00000
 Atom     3 has atomic number  6 and mass  12.00000
 Atom     4 has atomic number  6 and mass  12.00000
 Atom     5 has atomic number  1 and mass   1.00783
 Atom     6 has atomic number  6 and mass  12.00000
 Atom     7 has atomic number  7 and mass  14.00307
 Atom     8 has atomic number  1 and mass   1.00783
 Atom     9 has atomic number  1 and mass   1.00783
 Atom    10 has atomic number  1 and mass   1.00783
 Molecular mass:    67.04220 amu.
 Principal axes and moments of inertia in atomic units:
                           1         2         3
     Eigenvalues --   196.36842 199.13993 395.50819
           X           -0.59884   0.80087   0.00258
           Y            0.00405  -0.00020   0.99999
           Z            0.80086   0.59884  -0.00312
 This molecule is an asymmetric top.
 Rotational symmetry number  1.
 Rotational temperatures (Kelvin)      0.44108     0.43494     0.21899
 Rotational constants (GHZ):           9.19059     9.06268     4.56309
 Zero-point vibrational energy     215781.1 (Joules/Mol)
                                   51.57291 (Kcal/Mol)
 Warning -- explicit consideration of   1 degrees of freedom as
           vibrations may cause significant error
 Vibrational temperatures:    627.97   903.66   920.59   978.35  1047.11
          (Kelvin)           1189.15  1263.94  1266.54  1300.90  1490.50
                             1538.15  1569.62  1663.74  1689.55  1893.84
                             2040.63  2084.33  2157.53  2269.57  4660.64
                             4674.27  4692.24  4701.77  5280.42
 
 Zero-point correction=                           0.082187 (Hartree/Particle)
 Thermal correction to Energy=                    0.086200
 Thermal correction to Enthalpy=                  0.087144
 Thermal correction to Gibbs Free Energy=         0.055773
 Sum of electronic and zero-point Energies=           -210.169627
 Sum of electronic and thermal Energies=              -210.165614
 Sum of electronic and thermal Enthalpies=            -210.164670
 Sum of electronic and thermal Free Energies=         -210.196042
 
                     E (Thermal)             CV                S
                      KCal/Mol        Cal/Mol-Kelvin    Cal/Mol-Kelvin
 Total                   54.091             14.933             66.026
 Electronic               0.000              0.000              0.000
 Translational            0.889              2.981             38.526
 Rotational               0.889              2.981             24.251
 Vibrational             52.314              8.971              3.249
 Vibration     1          0.797              1.391              0.838
                       Q            Log10(Q)             Ln(Q)
 Total Bot       0.222048D-25        -25.653554        -59.069491
 Total V=0       0.141142D+13         12.149657         27.975618
 Vib (Bot)       0.231170D-37        -37.636069        -86.660251
 Vib (Bot)    1  0.397187D+00         -0.401005         -0.923348
 Vib (V=0)       0.146941D+01          0.167142          0.384859
 Vib (V=0)    1  0.113856D+01          0.056355          0.129763
 Electronic      0.100000D+01          0.000000          0.000000
 Translational   0.215763D+08          7.333976         16.887104
 Rotational      0.445183D+05          4.648538         10.703655
 -------------------------------------------------------------------
 Center     Atomic                   Forces (Hartrees/Bohr)
 Number     Number              X              Y              Z
 -------------------------------------------------------------------
      1        1          -0.000240421   -0.000098208    0.000005330
      2        6           0.000137561    0.000152340   -0.000006237
      3        6           0.000061169   -0.000028134    0.000101008
      4        6           0.000013003    0.000003250   -0.000047245
      5        1          -0.000010494   -0.000005107   -0.000013335
      6        6           0.000048299   -0.000003567   -0.000024071
      7        7           0.000011519   -0.000019318   -0.000018138
      8        1          -0.000014365   -0.000015260    0.000003529
      9        1          -0.000004301   -0.000010812    0.000012149
     10        1          -0.000001971    0.000024815   -0.000012989
 -------------------------------------------------------------------
 Cartesian Forces:  Max     0.000240421 RMS     0.000066430
 -----------------------------------------------------------------------------------------------
                       Internal Coordinate Forces (Hartree/Bohr or radian)
  Cent   Atom   N1       Length/X         N2         Alpha/Y        N3         Beta/Z          J
 -----------------------------------------------------------------------------------------------
      1  H 
      2  C        1  -0.000005(     1)
      3  C        2   0.000121(     2)      1  -0.000098(    10)
      4  C        2  -0.000051(     3)      1  -0.000100(    11)      3   0.000020(    18)     0
      5  H        3  -0.000006(     4)      2  -0.000032(    12)      1   0.000036(    19)     0
      6  C        3  -0.000026(     5)      2   0.000078(    13)      5   0.000044(    20)     0
      7  N        4  -0.000027(     6)      2  -0.000031(    14)      1   0.000052(    21)     0
      8  H        4   0.000013(     7)      2   0.000014(    15)      7   0.000024(    22)     0
      9  H        6   0.000008(     8)      3   0.000020(    16)      2  -0.000017(    23)     0
     10  H        7  -0.000009(     9)      4  -0.000018(    17)      2  -0.000039(    24)     0
 -----------------------------------------------------------------------------------------------
 Internal  Forces:  Max     0.000121169 RMS     0.000048414

 GradGradGradGradGradGradGradGradGradGradGradGradGradGradGradGradGradGrad
 Berny optimization.
 Search for a local minimum.
 Step number   1 out of a maximum of    2
 All quantities printed in internal units (Hartrees-Bohrs-Radians)
 Second derivative matrix not updated -- analytic derivatives used.
 ITU=  0
     Eigenvalues ---    0.01246   0.01679   0.03036   0.03236   0.04375
     Eigenvalues ---    0.09844   0.16847   0.18094   0.19973   0.21114
     Eigenvalues ---    0.32203   0.36478   0.37045   0.37143   0.37305
     Eigenvalues ---    0.37939   0.40334   0.45464   0.47816   0.50561
     Eigenvalues ---    0.60411   1.59796   2.28069  20.03048
 Angle between quadratic step and forces=  73.85 degrees.
 Linear search not attempted -- first point.
 Variable       Old X    -DE/DX   Delta X   Delta X   Delta X     New X
                                 (Linear)    (Quad)   (Total)
    R2        2.03578  -0.00001   0.00000  -0.00001  -0.00001   2.03576
    R3        2.68486   0.00012   0.00000   0.00026   0.00026   2.68512
    R4        2.59539  -0.00005   0.00000  -0.00014  -0.00014   2.59525
    R5        2.03567  -0.00001   0.00000  -0.00002  -0.00002   2.03565
    R6        2.59480  -0.00003   0.00000  -0.00011  -0.00011   2.59469
    R7        2.59252  -0.00003   0.00000   0.00002   0.00002   2.59255
    R8        2.03447   0.00001   0.00000   0.00003   0.00003   2.03451
    R9        2.03439   0.00001   0.00000   0.00002   0.00002   2.03441
   R10        1.89600  -0.00001   0.00000  -0.00002  -0.00002   1.89598
    A3        2.20928  -0.00010   0.00000  -0.00007  -0.00007   2.20921
    A4        2.19863  -0.00010   0.00000   0.00004   0.00004   2.19867
    A5        2.21239  -0.00003   0.00000  -0.00020  -0.00020   2.21219
    A6        1.87525   0.00008   0.00000  -0.00002  -0.00002   1.87523
    A7        1.87906  -0.00003   0.00000  -0.00005  -0.00005   1.87901
    A8        2.28624   0.00001   0.00000   0.00011   0.00011   2.28635
    A9        2.28542   0.00002   0.00000   0.00014   0.00014   2.28556
   A10        2.18462  -0.00002   0.00000  -0.00012  -0.00012   2.18450
    D4        3.13646   0.00002   0.00000   0.00044   0.00044   3.13690
    D5       -0.00278   0.00004   0.00000   0.00002   0.00002  -0.00276
    D6        3.14032   0.00004   0.00000   0.00036   0.00036   3.14068
    D7        3.14540   0.00005   0.00000  -0.00049  -0.00049   3.14491
    D8       -3.14366   0.00002   0.00000   0.00056   0.00056  -3.14310
    D9       -3.14008  -0.00002   0.00000  -0.00024  -0.00024  -3.14032
   D10       -3.14399  -0.00004   0.00000  -0.00212  -0.00212  -3.14611
         Item               Value     Threshold  Converged?
 Maximum Force            0.000121     0.000450     YES
 RMS     Force            0.000048     0.000300     YES
 Maximum Displacement     0.002120     0.001800     NO 
 RMS     Displacement     0.000485     0.001200     YES
 Predicted change in Energy=-7.830011D-08
                       ----------------------------
                       ! Non-Optimized Parameters !
                       ! (Angstroms and Degrees)  !
 ----------------------                            ----------------------
 !      Name          Value   Derivative information (Atomic Units)     !
 ------------------------------------------------------------------------
 !       R2          1.0773   -DE/DX =    0.0                           !
 !       R3          1.4209   -DE/DX =    0.0001                        !
 !       R4          1.3733   -DE/DX =   -0.0001                        !
 !       R5          1.0772   -DE/DX =    0.0                           !
 !       R6          1.373    -DE/DX =    0.0                           !
 !       R7          1.3719   -DE/DX =    0.0                           !
 !       R8          1.0766   -DE/DX =    0.0                           !
 !       R9          1.0766   -DE/DX =    0.0                           !
 !       R10         1.0033   -DE/DX =    0.0                           !
 !       A3        126.5784   -DE/DX =   -0.0001                        !
 !       A4        125.9747   -DE/DX =   -0.0001                        !
 !       A5        126.7489   -DE/DX =    0.0                           !
 !       A6        107.4427   -DE/DX =    0.0001                        !
 !       A7        107.6591   -DE/DX =    0.0                           !
 !       A8        130.9982   -DE/DX =    0.0                           !
 !       A9        130.953    -DE/DX =    0.0                           !
 !       A10       125.1627   -DE/DX =    0.0                           !
 !       D4        179.7314   -DE/DX =    0.0                           !
 !       D5         -0.1579   -DE/DX =    0.0                           !
 !       D6        179.9476   -DE/DX =    0.0                           !
 !       D7        180.1898   -DE/DX =    0.0001                        !
 !       D8       -180.0863   -DE/DX =    0.0                           !
 !       D9       -179.9269   -DE/DX =    0.0                           !
 !       D10      -180.2589   -DE/DX =    0.0                           !
 ------------------------------------------------------------------------
 GradGradGradGradGradGradGradGradGradGradGradGradGradGradGradGradGradGrad


 ----------------------------------------------------------------------

 Electric dipole moment (input orientation):
 (Debye = 10**-18 statcoulomb cm , SI units = C m)
                  (au)            (Debye)         (10**-30 SI)
   Tot        0.610123D+00      0.155078D+01      0.517284D+01
   x         -0.331870D+00     -0.843529D+00     -0.281371D+01
   y          0.132870D-01      0.337722D-01      0.112652D+00
   z          0.511796D+00      0.130086D+01      0.433919D+01

 Dipole polarizability, Alpha (input orientation).
 (esu units = cm**3 , SI units = C**2 m**2 J**-1)
 Alpha(0;0):
               (au)            (10**-24 esu)      (10**-40 SI)
   iso        0.498374D+02      0.738515D+01      0.821708D+01
   aniso      0.256006D+02      0.379362D+01      0.422098D+01
   xx         0.586562D+02      0.869195D+01      0.967110D+01
   yx        -0.654602D-01     -0.970020D-02     -0.107929D-01
   yy         0.328087D+02      0.486175D+01      0.540942D+01
   zx         0.936524D+00      0.138779D+00      0.154412D+00
   zy         0.796240D-01      0.117991D-01      0.131282D-01
   zz         0.580475D+02      0.860175D+01      0.957074D+01

 ----------------------------------------------------------------------

 Dipole orientation:
     1          0.00000000          0.00000000          0.00000000
     6          1.10733852         -0.04433429          1.70769383
     6          3.78676126         -0.06529246          1.87723115
     6          0.17418225         -0.08028971          4.12926206
     1          5.10578424         -0.04455057          0.32684496
     6          4.40639758         -0.11413389          4.39648613
     7          2.19643179         -0.12342952          5.75093409
     1         -1.73850291         -0.07555829          4.82258378
     1          6.21694206         -0.14038233          5.32382840
     1          2.07856386         -0.15220665          7.64304500

 Electric dipole moment (dipole orientation):
 (Debye = 10**-18 statcoulomb cm , SI units = C m)
                  (au)            (Debye)         (10**-30 SI)
   Tot        0.610123D+00      0.155078D+01      0.517284D+01
   x          0.000000D+00      0.000000D+00      0.000000D+00
   y          0.000000D+00      0.000000D+00      0.000000D+00
   z          0.610123D+00      0.155078D+01      0.517284D+01

 Dipole polarizability, Alpha (dipole orientation).
 (esu units = cm**3 , SI units = C**2 m**2 J**-1)
 Alpha(0;0):
               (au)            (10**-24 esu)      (10**-40 SI)
   iso        0.498374D+02      0.738515D+01      0.821708D+01
   aniso      0.256006D+02      0.379362D+01      0.422098D+01
   xx         0.593298D+02      0.879176D+01      0.978215D+01
   yx        -0.184714D+00     -0.273718D-01     -0.304553D-01
   yy         0.328172D+02      0.486300D+01      0.541082D+01
   zx         0.101153D+00      0.149893D-01      0.166778D-01
   zy        -0.433152D+00     -0.641865D-01     -0.714171D-01
   zz         0.573654D+02      0.850068D+01      0.945828D+01

 ----------------------------------------------------------------------
 1\1\GINC-BHC0068\Freq\RB3LYP\def2TZVP\C4H5N1\DHANAWAY\10-Jun-2022\1\\#
 N Geom=AllCheck Guess=TCheck SCRF=Check GenChk RB3LYP/def2TZVP Freq\\i
 nt_zmat_initalOpt\\0,1\H\C,1,R2\C,2,R3,1,A3\C,2,R4,1,A4,3,D4,0\H,3,R5,
 2,A5,1,D5,0\C,3,R6,2,A6,5,D6,0\N,4,R7,2,A7,1,D7,0\H,4,R8,2,A8,7,D8,0\H
 ,6,R9,3,A9,2,D9,0\H,7,R10,4,A10,2,D10,0\\R2=1.07728606\R3=1.42076822\R
 4=1.37342296\R5=1.07722976\R6=1.37310834\R7=1.37190398\R8=1.07659695\R
 9=1.0765504\R10=1.00331841\A3=126.58227089\A4=125.97221396\A5=126.7604
 4727\A6=107.44377008\A7=107.66196208\A8=130.99178538\A9=130.9447235\A1
 0=125.16950877\D4=179.70598682\D5=-0.15915169\D6=179.92709197\D7=180.2
 1788503\D8=-180.11852105\D9=-179.91307344\D10=-180.13743545\\Version=E
 S64L-G16RevA.03\HF=-210.2518141\RMSD=3.934e-09\RMSF=6.643e-05\ZeroPoin
 t=0.0821867\Thermal=0.0861996\Dipole=-0.3318698,0.013287,0.5117965\Dip
 oleDeriv=0.0883495,0.0001692,-0.0196056,0.0001207,0.1744155,0.0008863,
 -0.0133531,-0.0004003,-0.0482681,-0.0315651,0.0000769,0.0730796,0.0002
 107,-0.2343839,-0.0028987,0.0554166,-0.0008722,-0.0369309,-0.0049658,0
 .0002419,0.045386,0.0003853,-0.2316664,0.0002766,0.0550772,0.0001069,-
 0.0772462,-0.1023527,-0.0015959,-0.1051076,-0.0027881,-0.1648206,0.001
 604,-0.2026762,0.002385,0.2877282,-0.0383108,0.0005869,0.0260701,0.000
 3399,0.1749281,-0.0003279,0.0192873,-0.0003455,0.0867236,0.1672421,-0.
 0014851,-0.2868383,-0.0004014,-0.1599851,0.0026679,-0.1806653,0.001796
 3,0.0217415,-0.252452,0.000703,0.3347986,0.0000154,-0.23772,0.0001898,
 0.3346742,-0.0012554,-0.4575036,-0.0552956,0.0007549,-0.020986,0.00144
 82,0.189538,-0.0002544,-0.00678,-0.0003738,0.0682013,0.054854,0.000210
 8,-0.0338309,-0.0000241,0.1897813,-0.0011289,-0.0480616,-0.0006287,-0.
 0282054,0.1744964,0.0003375,-0.0129658,0.0006933,0.2999131,-0.0010147,
 -0.0129191,-0.0004122,0.1837597\Polar=58.6561705,-0.0654602,32.8086823
 ,0.9365244,0.079624,58.0474826\PG=C01 [X(C4H5N1)]\NImag=0\\0.04933004,
 -0.00006621,0.02171694,-0.00086590,0.00009039,0.37088948,-0.05790088,0
 .00007643,0.00163800,0.56751784,0.00006672,-0.02603011,-0.00008377,-0.
 00133951,0.11645949,-0.00040965,0.00009098,-0.35337683,-0.04941467,0.0
 0125831,0.84514984,0.00807090,-0.00002330,0.00419083,-0.21734912,0.000
 09115,-0.09462461,0.79579972,-0.00002785,-0.00068141,-0.00001044,0.000
 05507,-0.05978746,-0.00005442,-0.00164370,0.11716019,-0.02304495,-0.00
 002025,-0.00765967,-0.06206776,-0.00000649,-0.16957437,-0.11761946,0.0
 0174278,0.61843737,0.00797802,-0.00002857,-0.00498847,-0.27760487,0.00
 105529,0.13933086,-0.06789480,0.00010078,-0.03253045,0.86954206,-0.000
 01334,-0.00139129,0.00001375,0.00119276,-0.06182945,-0.00074478,0.0002
 6776,0.01124954,0.00004719,-0.00278364,0.10819041,0.02325700,-0.000149
 92,-0.00822013,0.12222821,-0.00052577,-0.19960295,0.02471866,-0.000076
 10,0.03154856,0.01759817,0.00126232,0.58528943,0.00052267,-0.00000297,
 -0.00028502,-0.01139575,0.00004303,0.00997077,-0.32917821,0.00069102,0
 .08292848,-0.00268725,0.00000580,-0.00274091,0.34411597,-0.00000619,-0
 .00222018,-0.00000157,-0.00003071,-0.00069860,0.00000908,0.00064653,-0
 .02634996,-0.00026179,0.00000755,0.00343551,-0.00001505,-0.00074168,0.
 02189337,0.00116587,0.00000526,0.00026723,-0.01717917,0.00005851,0.011
 92521,0.08068393,-0.00028522,-0.08261640,-0.00401516,-0.00000720,-0.00
 343494,-0.08925869,0.00029633,0.07646353,-0.00521775,-0.00001076,-0.00
 201793,0.02177711,0.00009115,-0.00208245,-0.13414902,0.00028505,0.0780
 5350,-0.06481156,-0.00009699,-0.05177566,-0.00186039,0.00010628,0.0263
 0262,0.61962450,0.00000619,0.00347014,0.00000361,-0.00012496,0.0112608
 8,-0.00023868,0.00040463,-0.06260291,-0.00125120,0.00013353,0.01659085
 ,0.00006520,-0.00000253,-0.00117086,-0.00002814,-0.00072905,0.10975389
 ,-0.00330533,0.00000526,-0.00094135,-0.05927232,-0.00010266,-0.0574857
 7,0.09576125,-0.00112268,-0.34436271,-0.02529475,-0.00008934,-0.040950
 76,-0.00194357,0.00000415,0.00153103,0.09404278,0.00262789,0.83754682,
 -0.00473830,0.00005823,0.00193475,-0.01483763,-0.00002918,0.00885600,-
 0.05692188,0.00046499,0.06513282,-0.13090135,0.00029228,-0.06392742,0.
 00088390,0.00001246,0.00249752,-0.30256666,0.00046418,-0.00872594,0.73
 510941,0.00004495,0.00447377,-0.00000718,0.00008154,0.01383867,-0.0003
 3710,0.00029841,0.01385489,-0.00019446,0.00017846,-0.05128431,-0.00077
 290,0.00000486,0.00449058,-0.00004388,0.00075815,-0.05168207,-0.000345
 91,-0.00293147,0.07336915,0.00412639,-0.00001060,-0.00048320,0.0515010
 8,-0.00052656,-0.07949269,0.02192628,-0.00015838,-0.03641150,-0.060061
 55,-0.00043870,-0.28074720,0.00025762,-0.00003293,-0.00603996,-0.01197
 486,-0.00035010,-0.10970056,-0.16105296,0.00377764,0.83341090,0.000258
 74,-0.00001410,0.00041232,-0.00970391,0.00001698,-0.01013933,-0.002751
 48,0.00003614,0.00295842,-0.34207568,0.00123528,-0.06421339,-0.0004524
 6,0.00000463,-0.00072699,0.00117239,0.00000491,-0.00028175,-0.00237524
 ,-0.00000351,0.00127005,0.35608520,-0.00000821,-0.00303140,-0.00000413
 ,0.00005422,0.00035707,0.00005896,0.00002560,0.00454991,-0.00001340,0.
 00133371,-0.01918053,0.00016174,0.00000405,0.00129459,0.00000230,0.000
 02370,0.00180212,-0.00003124,-0.00014674,-0.00405432,-0.00002113,-0.00
 128006,0.01761720,-0.00095778,0.00001150,0.00005358,0.01433894,-0.0000
 3489,0.01291259,0.00398505,-0.00002380,-0.00208797,-0.05504638,0.00009
 175,-0.07240284,0.00072685,-0.00000059,0.00099918,0.00157448,-0.000030
 13,-0.00663027,-0.03496762,0.00014287,-0.00365936,0.07135635,-0.000158
 28,0.06962896,0.00088430,0.00000070,0.00033998,-0.00022052,0.00001153,
 0.00323740,0.01223549,0.00001799,0.00778468,-0.00554790,0.00003241,0.0
 0361621,-0.00007183,-0.00000778,-0.00084692,-0.12846500,-0.00030570,-0
 .12019861,-0.01298251,-0.00010832,-0.03165310,-0.00006338,-0.00000071,
 -0.00142553,0.13356414,-0.00000750,0.00126900,-0.00000248,0.00002078,0
 .00452879,-0.00003530,-0.00007327,0.00065889,-0.00002943,0.00002488,0.
 00183496,-0.00001575,-0.00000133,-0.00307350,0.00001068,-0.00037195,-0
 .01992068,-0.00096549,0.00004889,-0.00391425,0.00013320,0.00001156,0.0
 0229528,-0.00000402,0.00036283,0.01798945,-0.00111905,-0.00000672,-0.0
 0034296,0.00215794,-0.00003127,-0.00456783,-0.01663254,-0.00001279,-0.
 00896924,0.00183191,-0.00001192,0.00017150,0.00049159,0.00001398,0.000
 40288,-0.12935955,-0.00088709,-0.28678639,0.00452584,0.00003559,0.0070
 3051,0.00007332,-0.00001106,0.00036393,0.13896905,0.00089884,0.2926187
 6,0.00081227,0.00001055,-0.00035855,-0.00028227,-0.00000717,-0.0047243
 2,-0.00786160,0.00002051,-0.00159529,0.01400331,-0.00013233,-0.0087608
 8,0.00012336,0.00000892,0.00137699,-0.00550362,0.00014882,0.02921822,-
 0.21066976,0.00167692,0.18566106,-0.00009417,-0.00000556,0.00041564,0.
 00066721,-0.00001491,-0.00093851,0.20880528,0.00001144,0.00242454,0.00
 000182,0.00001437,0.00190071,-0.00000703,0.00000620,0.00194833,-0.0000
 1296,-0.00002200,-0.00761569,0.00006623,-0.00000026,0.00239905,-0.0000
 0864,-0.00005558,-0.00750136,0.00002002,0.00176636,0.00090791,-0.00237
 244,-0.00001183,-0.00164992,0.00000558,-0.00000295,-0.00166793,0.00001
 245,-0.00170576,0.00885435,0.00115341,-0.00001590,-0.00018614,-0.00393
 026,-0.00000542,-0.00588721,-0.00238940,0.00000106,0.00169593,0.023175
 81,-0.00012306,-0.01165067,-0.00014710,-0.00001160,0.00050224,-0.00276
 295,0.00008864,0.00777995,0.18572701,-0.00225467,-0.32390694,-0.000709
 00,0.00001624,0.00082220,0.00017683,0.00000975,0.00007883,-0.20029436,
 0.00229497,0.33075181\\0.00024042,0.00009821,-0.00000533,-0.00013756,-
 0.00015234,0.00000624,-0.00006117,0.00002813,-0.00010101,-0.00001300,-
 0.00000325,0.00004725,0.00001049,0.00000511,0.00001334,-0.00004830,0.0
 0000357,0.00002407,-0.00001152,0.00001932,0.00001814,0.00001436,0.0000
 1526,-0.00000353,0.00000430,0.00001081,-0.00001215,0.00000197,-0.00002
 482,0.00001299\\\@


 Standing in the middle of the road is very dangerous;
 you get knocked down by the traffic from both sides.
                                -- Margaret Thatcher
 Job cpu time:       0 days  0 hours 17 minutes  2.8 seconds.
 Elapsed time:       0 days  0 hours  1 minutes 26.4 seconds.
 File lengths (MBytes):  RWF=     34 Int=      0 D2E=      0 Chk=     32 Scr=      1
 Normal termination of Gaussian 16 at Fri Jun 10 22:30:12 2022.
