 Entering Gaussian System, Link 0=g16
 Input=int_zmat_field_N75.gjf
 Output=int_zmat_field_N75.out
 Initial command:
 /software/gaussian/g16-a03/l1.exe "/local_scratch/11177426/Gau-15706.inp" -scrdir="/local_scratch/11177426/"
 Entering Link 1 = /software/gaussian/g16-a03/l1.exe PID=     15707.
  
 Copyright (c) 1988,1990,1992,1993,1995,1998,2003,2009,2016,
            Gaussian, Inc.  All Rights Reserved.
  
 This is part of the Gaussian(R) 16 program.  It is based on
 the Gaussian(R) 09 system (copyright 2009, Gaussian, Inc.),
 the Gaussian(R) 03 system (copyright 2003, Gaussian, Inc.),
 the Gaussian(R) 98 system (copyright 1998, Gaussian, Inc.),
 the Gaussian(R) 94 system (copyright 1995, Gaussian, Inc.),
 the Gaussian 92(TM) system (copyright 1992, Gaussian, Inc.),
 the Gaussian 90(TM) system (copyright 1990, Gaussian, Inc.),
 the Gaussian 88(TM) system (copyright 1988, Gaussian, Inc.),
 the Gaussian 86(TM) system (copyright 1986, Carnegie Mellon
 University), and the Gaussian 82(TM) system (copyright 1983,
 Carnegie Mellon University). Gaussian is a federally registered
 trademark of Gaussian, Inc.
  
 This software contains proprietary and confidential information,
 including trade secrets, belonging to Gaussian, Inc.
  
 This software is provided under written license and may be
 used, copied, transmitted, or stored only in accord with that
 written license.
  
 The following legend is applicable only to US Government
 contracts under FAR:
  
                    RESTRICTED RIGHTS LEGEND
  
 Use, reproduction and disclosure by the US Government is
 subject to restrictions as set forth in subparagraphs (a)
 and (c) of the Commercial Computer Software - Restricted
 Rights clause in FAR 52.227-19.
  
 Gaussian, Inc.
 340 Quinnipiac St., Bldg. 40, Wallingford CT 06492
  
  
 ---------------------------------------------------------------
 Warning -- This program may not be used in any manner that
 competes with the business of Gaussian, Inc. or will provide
 assistance to any competitor of Gaussian, Inc.  The licensee
 of this program is prohibited from giving any competitor of
 Gaussian, Inc. access to this program.  By using this program,
 the user acknowledges that Gaussian, Inc. is engaged in the
 business of creating and licensing software in the field of
 computational chemistry and represents and warrants to the
 licensee that it is not a competitor of Gaussian, Inc. and that
 it will not use this program in any manner prohibited above.
 ---------------------------------------------------------------
  

 Cite this work as:
 Gaussian 16, Revision A.03,
 M. J. Frisch, G. W. Trucks, H. B. Schlegel, G. E. Scuseria, 
 M. A. Robb, J. R. Cheeseman, G. Scalmani, V. Barone, 
 G. A. Petersson, H. Nakatsuji, X. Li, M. Caricato, A. V. Marenich, 
 J. Bloino, B. G. Janesko, R. Gomperts, B. Mennucci, H. P. Hratchian, 
 J. V. Ortiz, A. F. Izmaylov, J. L. Sonnenberg, D. Williams-Young, 
 F. Ding, F. Lipparini, F. Egidi, J. Goings, B. Peng, A. Petrone, 
 T. Henderson, D. Ranasinghe, V. G. Zakrzewski, J. Gao, N. Rega, 
 G. Zheng, W. Liang, M. Hada, M. Ehara, K. Toyota, R. Fukuda, 
 J. Hasegawa, M. Ishida, T. Nakajima, Y. Honda, O. Kitao, H. Nakai, 
 T. Vreven, K. Throssell, J. A. Montgomery, Jr., J. E. Peralta, 
 F. Ogliaro, M. J. Bearpark, J. J. Heyd, E. N. Brothers, K. N. Kudin, 
 V. N. Staroverov, T. A. Keith, R. Kobayashi, J. Normand, 
 K. Raghavachari, A. P. Rendell, J. C. Burant, S. S. Iyengar, 
 J. Tomasi, M. Cossi, J. M. Millam, M. Klene, C. Adamo, R. Cammi, 
 J. W. Ochterski, R. L. Martin, K. Morokuma, O. Farkas, 
 J. B. Foresman, and D. J. Fox, Gaussian, Inc., Wallingford CT, 2016.
 
 ******************************************
 Gaussian 16:  ES64L-G16RevA.03 25-Dec-2016
                12-Jun-2022 
 ******************************************
 %nprocshared=12
 Will use up to   12 processors via shared memory.
 %chk=checkpoint.chk
 %mem=12GB
 ----------------------------------------------------------------------
 # Opt=(Z-matrix, MaxStep=10) B3LYP/Def2TZVP geom=allcheckpoint guess=r
 ead Field=read NoSymm freq=noraman pop=none
 ----------------------------------------------------------------------
 1/8=10,10=7,18=40,26=3,29=7,38=1/1,3;
 2/12=2,15=1,29=3,40=1/2;
 3/5=44,7=101,11=2,14=-6,25=1,30=1,71=1,74=-5,116=-2/1,2,3;
 4/5=1/1;
 5/5=2,38=6/2;
 7/29=1,30=1/1,2,3,16;
 1/8=10,10=7,18=40,26=3/3(2);
 2/15=1,29=3/2;
 99//99;
 2/15=1,29=3/2;
 3/5=44,7=101,11=2,14=-2,25=1,30=1,71=1,74=-5/1,2,3;
 4/5=5,16=3,69=1/1;
 5/5=2,38=5/2;
 7/30=1/1,2,3,16;
 1/8=10,18=40,26=3/3(-5);
 2/15=1,29=3/2;
 99/9=1/99;
 Structure from the checkpoint file:  "checkpoint.chk"
 ------------------
 int_zmat_initalOpt
 ------------------
 Charge =  0 Multiplicity = 1
 Z-Matrix found in chk file.
 C
 C,1,R2
 C,1,R3,2,A3
 H,1,R4,2,A4,3,D4,0
 O,2,R5,1,A5,3,D5,0
 C,3,R6,1,A6,2,D6,0
 H,3,R7,1,A7,6,D7,0
 O,2,R8,1,A8,5,D8,0
 O,6,R9,3,A9,1,D9,0
 C,1,R10,2,A10,3,D10,0
 C,10,R11,1,A11,2,D11,0
 C,10,R12,1,A12,11,D12,0
 H,10,R13,1,A13,11,D13,0
 C,11,R14,10,A14,1,D14,0
 H,11,R15,10,A15,14,D15,0
 H,12,R16,10,A16,1,D16,0
 H,12,R17,10,A17,16,D17,0
 C,12,R18,10,A18,16,D18,0
 H,14,R19,11,A19,10,D19,0
 H,18,R20,12,A20,10,D20,0
      Variables:
 R2=1.48398866
 R3=1.33152259
 R4=1.07789968
 R5=1.1942949
 R6=1.48495348
 R7=1.07820367
 R8=1.38236882
 R9=1.18776537
 R10=3.65067802
 R11=1.34690756
 R12=1.500406
 R13=1.08011772
 R14=1.4619515
 R15=1.08103473
 R16=1.0967635
 R17=1.097534
 R18=1.50036351
 R19=1.08074279
 R20=1.07984951
 A3=108.11989205
 A4=122.17611136
 A5=129.66964566
 A6=108.25674924
 A7=129.93872361
 A8=107.79754045
 A9=130.61117843
 A10=91.65075074
 A11=79.25807071
 A12=88.55173861
 A13=102.9132078
 A14=109.31612934
 A15=126.13871906
 A16=113.09924218
 A17=111.24846851
 A18=103.17167233
 A19=124.70520926
 A20=124.1190178
 D4=181.94050183
 D5=-179.03628435
 D6=2.46905164
 D7=178.31960154
 D8=177.71683799
 D9=174.39944846
 D10=-94.47761894
 D11=29.07287999
 D12=109.74892608
 D13=-125.4972687
 D14=83.62728317
 D15=178.89306508
 D16=46.05409214
 D17=118.51418913
 D18=-122.48713366
 D19=178.66175738
 D20=-178.71323487
 Recover connectivity data from disk.

 GradGradGradGradGradGradGradGradGradGradGradGradGradGradGradGradGradGrad
 Berny optimization.
 Initialization pass.
                       ----------------------------
                       !    Initial Parameters    !
                       ! (Angstroms and Degrees)  !
 ----------------------                            ----------------------
 !      Name          Value   Derivative information (Atomic Units)     !
 ------------------------------------------------------------------------
 !       R2          1.484    estimate D2E/DX2                          !
 !       R3          1.3315   estimate D2E/DX2                          !
 !       R4          1.0779   estimate D2E/DX2                          !
 !       R5          1.1943   estimate D2E/DX2                          !
 !       R6          1.485    estimate D2E/DX2                          !
 !       R7          1.0782   estimate D2E/DX2                          !
 !       R8          1.3824   estimate D2E/DX2                          !
 !       R9          1.1878   estimate D2E/DX2                          !
 !       R10         3.6507   estimate D2E/DX2                          !
 !       R11         1.3469   estimate D2E/DX2                          !
 !       R12         1.5004   estimate D2E/DX2                          !
 !       R13         1.0801   estimate D2E/DX2                          !
 !       R14         1.462    estimate D2E/DX2                          !
 !       R15         1.081    estimate D2E/DX2                          !
 !       R16         1.0968   estimate D2E/DX2                          !
 !       R17         1.0975   estimate D2E/DX2                          !
 !       R18         1.5004   estimate D2E/DX2                          !
 !       R19         1.0807   estimate D2E/DX2                          !
 !       R20         1.0798   estimate D2E/DX2                          !
 !       A3        108.1199   estimate D2E/DX2                          !
 !       A4        122.1761   estimate D2E/DX2                          !
 !       A5        129.6696   estimate D2E/DX2                          !
 !       A6        108.2567   estimate D2E/DX2                          !
 !       A7        129.9387   estimate D2E/DX2                          !
 !       A8        107.7975   estimate D2E/DX2                          !
 !       A9        130.6112   estimate D2E/DX2                          !
 !       A10        91.6508   estimate D2E/DX2                          !
 !       A11        79.2581   estimate D2E/DX2                          !
 !       A12        88.5517   estimate D2E/DX2                          !
 !       A13       102.9132   estimate D2E/DX2                          !
 !       A14       109.3161   estimate D2E/DX2                          !
 !       A15       126.1387   estimate D2E/DX2                          !
 !       A16       113.0992   estimate D2E/DX2                          !
 !       A17       111.2485   estimate D2E/DX2                          !
 !       A18       103.1717   estimate D2E/DX2                          !
 !       A19       124.7052   estimate D2E/DX2                          !
 !       A20       124.119    estimate D2E/DX2                          !
 !       D4        181.9405   estimate D2E/DX2                          !
 !       D5       -179.0363   estimate D2E/DX2                          !
 !       D6          2.4691   estimate D2E/DX2                          !
 !       D7        178.3196   estimate D2E/DX2                          !
 !       D8        177.7168   estimate D2E/DX2                          !
 !       D9        174.3994   estimate D2E/DX2                          !
 !       D10       -94.4776   estimate D2E/DX2                          !
 !       D11        29.0729   estimate D2E/DX2                          !
 !       D12       109.7489   estimate D2E/DX2                          !
 !       D13      -125.4973   estimate D2E/DX2                          !
 !       D14        83.6273   estimate D2E/DX2                          !
 !       D15       178.8931   estimate D2E/DX2                          !
 !       D16        46.0541   estimate D2E/DX2                          !
 !       D17       118.5142   estimate D2E/DX2                          !
 !       D18      -122.4871   estimate D2E/DX2                          !
 !       D19       178.6618   estimate D2E/DX2                          !
 !       D20      -178.7132   estimate D2E/DX2                          !
 ------------------------------------------------------------------------
 Trust Radius=1.00D-01 FncErr=1.00D-07 GrdErr=1.00D-06 EigMax=2.50D+02 EigMin=1.00D-04
 Number of steps in this run=     64 maximum allowed number of steps=    108.
 GradGradGradGradGradGradGradGradGradGradGradGradGradGradGradGradGradGrad

 ---------------------------------------------------------------------------------------------------
                            Z-MATRIX (ANGSTROMS AND DEGREES)
   CD    Cent   Atom    N1       Length/X        N2       Alpha/Y        N3        Beta/Z          J
 ---------------------------------------------------------------------------------------------------
      1      1  C 
      2      2  C        1   1.483989(     1)
      3      3  C        1   1.331523(     2)      2  108.120(    20)
      4      4  H        1   1.077900(     3)      2  122.176(    21)      3  181.941(    38)      0
      5      5  O        2   1.194295(     4)      1  129.670(    22)      3 -179.036(    39)      0
      6      6  C        3   1.484953(     5)      1  108.257(    23)      2    2.469(    40)      0
      7      7  H        3   1.078204(     6)      1  129.939(    24)      6  178.320(    41)      0
      8      8  O        2   1.382369(     7)      1  107.798(    25)      5  177.717(    42)      0
      9      9  O        6   1.187765(     8)      3  130.611(    26)      1  174.399(    43)      0
     10     10  C        1   3.650678(     9)      2   91.651(    27)      3  -94.478(    44)      0
     11     11  C       10   1.346908(    10)      1   79.258(    28)      2   29.073(    45)      0
     12     12  C       10   1.500406(    11)      1   88.552(    29)     11  109.749(    46)      0
     13     13  H       10   1.080118(    12)      1  102.913(    30)     11 -125.497(    47)      0
     14     14  C       11   1.461951(    13)     10  109.316(    31)      1   83.627(    48)      0
     15     15  H       11   1.081035(    14)     10  126.139(    32)     14  178.893(    49)      0
     16     16  H       12   1.096763(    15)     10  113.099(    33)      1   46.054(    50)      0
     17     17  H       12   1.097534(    16)     10  111.248(    34)     16  118.514(    51)      0
     18     18  C       12   1.500364(    17)     10  103.172(    35)     16 -122.487(    52)      0
     19     19  H       14   1.080743(    18)     11  124.705(    36)     10  178.662(    53)      0
     20     20  H       18   1.079850(    19)     12  124.119(    37)     10 -178.713(    54)      0
 ---------------------------------------------------------------------------------------------------
                         Z-Matrix orientation:                         
 ---------------------------------------------------------------------
 Center     Atomic      Atomic             Coordinates (Angstroms)
 Number     Number       Type             X           Y           Z
 ---------------------------------------------------------------------
      1          6           0        0.000000    0.000000    0.000000
      2          6           0        0.000000    0.000000    1.483989
      3          6           0        1.265489    0.000000   -0.414112
      4          1           0       -0.911828    0.030894   -0.574007
      5          8           0       -0.919164   -0.015462    2.246379
      6          6           0        2.145794   -0.060751    0.780233
      7          1           0        1.666253    0.011379   -1.415003
      8          8           0        1.315863   -0.030308    1.906516
      9          8           0        3.325542   -0.168187    0.866487
     10          6           0       -0.284889    3.638025   -0.105165
     11          6           0        0.373161    3.471268    1.058158
     12          6           0        0.705151    3.644911   -1.232547
     13          1           0       -1.346458    3.793509   -0.229870
     14          6           0        1.803604    3.334088    0.789243
     15          1           0       -0.069036    3.457956    2.044526
     16          1           0        0.488091    2.892484   -2.000420
     17          1           0        0.703251    4.608650   -1.757700
     18          6           0        2.015296    3.415121   -0.538423
     19          1           0        2.563169    3.209591    1.547905
     20          1           0        2.969567    3.378423   -1.042500
 ---------------------------------------------------------------------
                    Distance matrix (angstroms):
                    1          2          3          4          5
     1  C    0.000000
     2  C    1.483989   0.000000
     3  C    1.331523   2.281283   0.000000
     4  H    1.077900   2.251162   2.183399   0.000000
     5  O    2.427204   1.194295   3.442552   2.820776   0.000000
     6  C    2.284051   2.259070   1.484953   3.345357   3.397883
     7  H    2.186038   3.343752   1.078204   2.711854   4.482278
     8  O    2.316725   1.382369   2.321372   3.334568   2.260768
     9  O    3.440685   3.386565   2.431468   4.479950   4.465978
    10  C    3.650678   3.980176   3.966655   3.691106   4.390903
    11  C    3.648102   3.517141   3.874730   4.018872   3.903749
    12  C    3.911750   4.600237   3.777458   4.013654   5.304683
    13  H    4.031935   4.375039   4.609439   3.803236   4.563184
    14  C    3.871955   3.853804   3.585216   4.488108   4.555897
    15  H    4.017750   3.503773   4.447844   4.394516   3.581633
    16  H    3.550546   4.554756   3.389276   3.490434   5.335899
    17  H    4.982341   5.678271   4.833321   4.996545   6.328293
    18  C    4.001795   4.451361   3.498673   4.474630   5.304250
    19  H    4.389455   4.107967   3.979316   5.165484   4.797444
    20  H    4.617237   5.158993   3.835687   5.146908   6.120245
                    6          7          8          9         10
     6  C    0.000000
     7  H    2.248160   0.000000
     8  O    1.399366   3.340209   0.000000
     9  O    1.187765   2.826779   2.267042   0.000000
    10  C    4.513657   4.321481   4.479502   5.335407   0.000000
    11  C    3.961645   4.445160   3.724168   4.690300   1.346908
    12  C    4.456307   3.762920   4.871747   5.080561   1.500406
    13  H    5.298250   4.978501   5.125785   6.222910   1.080118
    14  C    3.412053   3.989732   3.578456   3.819448   2.292193
    15  H    4.345712   5.182515   3.755660   5.104885   2.167992
    16  H    4.381965   3.167262   4.948947   5.063397   2.178376
    17  H    5.506845   4.709534   5.943206   6.048217   2.156248
    18  C    3.719888   3.532093   4.282278   4.065785   2.351223
    19  H    3.385065   4.451050   3.490175   3.529154   3.320787
    20  H    3.978551   3.629652   4.801133   4.043437   3.396686
                   11         12         13         14         15
    11  C    0.000000
    12  C    2.321143   0.000000
    13  H    2.172543   2.288350   0.000000
    14  C    1.461951   2.321820   3.342536   0.000000
    15  H    1.081035   3.372466   2.630072   2.257844   0.000000
    16  H    3.114980   1.096763   2.704119   3.115736   4.122104
    17  H    3.054776   1.097534   2.683287   3.053229   4.046906
    18  C    2.291032   1.500364   3.397023   1.346876   3.319322
    19  H    2.259305   3.372336   4.334353   1.080743   2.690134
    20  H    3.341064   2.287950   4.411432   2.171800   4.332339
                   16         17         18         19         20
    16  H    0.000000
    17  H    1.746548   0.000000
    18  C    2.177830   2.152350   0.000000
    19  H    4.122756   4.042732   2.166834   0.000000
    20  H    2.703974   2.676034   1.079850   2.627520   0.000000
 Symmetry turned off by external request.
 Stoichiometry    C9H8O3
 Framework group  C1[X(C9H8O3)]
 Deg. of freedom    54
 Full point group                 C1      NOp   1
 Rotational constants (GHZ):           1.3460499           0.7496243           0.6118669
 Standard basis: def2TZVP (5D, 7F)
 The following finite field(s) will be applied:
 An electric field of             -0.0041 -0.0061  0.0017
   420 basis functions,   676 primitive gaussians,   480 cartesian basis functions
    43 alpha electrons       43 beta electrons
       nuclear repulsion energy       659.9250559996 Hartrees.
 NAtoms=   20 NActive=   20 NUniq=   20 SFac= 1.00D+00 NAtFMM=   60 NAOKFM=F Big=F
 Integral buffers will be    131072 words long.
 Raffenetti 2 integral format.
 Two-electron integral symmetry is turned off.
 One-electron integrals computed using PRISM.
   1 Symmetry operations used in ECPInt.
 ECPInt:  NShTT=   13530 NPrTT=   41904 LenC2=   13001 LenP2D=   30684.
 LDataN:  DoStor=T MaxTD1= 6 Len=  172
 NBasis=   420 RedAO= T EigKep=  4.11D-05  NBF=   420
 NBsUse=   420 1.00D-06 EigRej= -1.00D+00 NBFU=   420
 The nuclear repulsion energy is now       658.0002431963 hartrees.
 Initial guess from the checkpoint file:  "checkpoint.chk"
 B after Tr=    -0.000000   -0.000000    0.000000
         Rot=    1.000000    0.000000   -0.000000   -0.000000 Ang=   0.00 deg.
 Requested convergence on RMS density matrix=1.00D-08 within 128 cycles.
 Requested convergence on MAX density matrix=1.00D-06.
 Requested convergence on             energy=1.00D-06.
 No special actions if energy rises.
 SCF Done:  E(RB3LYP) =  -573.635334735     A.U. after   11 cycles
            NFock= 11  Conv=0.60D-08     -V/T= 2.0048
   1 Symmetry operations used in ECPInt.
 ECPInt:  NShTT=   13530 NPrTT=   41904 LenC2=   13001 LenP2D=   30684.
 LDataN:  DoStor=T MaxTD1= 7 Len=  274
 Calling FoFJK, ICntrl=      2127 FMM=F ISym2X=0 I1Cent= 0 IOpClX= 0 NMat=1 NMatS=1 NMatT=0.
 -------------------------------------------------------------------
 Center     Atomic                   Forces (Hartrees/Bohr)
 Number     Number              X              Y              Z
 -------------------------------------------------------------------
      1        6           0.001182626    0.003862146    0.000921572
      2        6           0.000603023   -0.001787495   -0.002034270
      3        6           0.000800896   -0.001057747   -0.000246180
      4        1           0.000071351    0.000325386   -0.000046023
      5        8          -0.001915864   -0.000930243    0.001671027
      6        6           0.001796702    0.000978558   -0.001183032
      7        1           0.000135778    0.000260959    0.000020562
      8        8          -0.001838852   -0.000394829    0.000769875
      9        8          -0.000946663   -0.000738036    0.000222700
     10        6          -0.000230305   -0.000590509   -0.000679799
     11        6           0.000729825   -0.000507110    0.000341545
     12        6          -0.000030129    0.000321127    0.000159314
     13        1          -0.000019790    0.000318150   -0.000000882
     14        6          -0.000450084   -0.000580154    0.000949437
     15        1           0.000050955    0.000311792    0.000097488
     16        1           0.000055245    0.000062000   -0.000172397
     17        1           0.000133305   -0.000003102   -0.000006935
     18        6          -0.000224424   -0.000567411   -0.000754765
     19        1           0.000083762    0.000379025   -0.000040724
     20        1           0.000012642    0.000337491    0.000011487
 -------------------------------------------------------------------
 Cartesian Forces:  Max     0.003862146 RMS     0.000914970
 -----------------------------------------------------------------------------------------------
                       Internal Coordinate Forces (Hartree/Bohr or radian)
  Cent   Atom   N1       Length/X         N2         Alpha/Y        N3         Beta/Z          J
 -----------------------------------------------------------------------------------------------
      1  C 
      2  C        1   0.000407(     1)
      3  C        1   0.002067(     2)      2   0.004031(    20)
      4  H        1  -0.000027(     3)      2   0.000145(    21)      3   0.000565(    38)     0
      5  O        2   0.002553(     4)      1   0.000121(    22)      3   0.000473(    39)     0
      6  C        3  -0.000278(     5)      1   0.002803(    23)      2   0.000486(    40)     0
      7  H        3   0.000034(     6)      1   0.000268(    24)      6   0.000409(    41)     0
      8  O        2  -0.001506(     7)      1   0.003375(    25)      5  -0.001087(    42)     0
      9  O        6  -0.000857(     8)      3   0.000610(    26)      1  -0.001407(    43)     0
     10  C        1  -0.000523(     9)      2   0.000121(    27)      3   0.001773(    44)     0
     11  C       10   0.001416(    10)      1   0.000687(    28)      2   0.000098(    45)     0
     12  C       10   0.000539(    11)      1   0.001422(    29)     11   0.002655(    46)     0
     13  H       10   0.000065(    12)      1   0.000637(    30)     11   0.000015(    47)     0
     14  C       11  -0.000507(    13)     10   0.002174(    31)      1  -0.000762(    48)     0
     15  H       11   0.000064(    14)     10   0.000082(    32)     14  -0.000531(    49)     0
     16  H       12   0.000067(    15)     10   0.000315(    33)      1   0.001021(    50)     0
     17  H       12   0.000000(    16)     10   0.000207(    34)     16   0.000171(    51)     0
     18  C       12  -0.000494(    17)     10   0.001614(    35)     16   0.000669(    52)     0
     19  H       14  -0.000013(    18)     11   0.000153(    36)     10  -0.000643(    53)     0
     20  H       18  -0.000006(    19)     12  -0.000079(    37)     10   0.000567(    54)     0
 -----------------------------------------------------------------------------------------------
 Internal  Forces:  Max     0.004030810 RMS     0.001224353

 GradGradGradGradGradGradGradGradGradGradGradGradGradGradGradGradGradGrad
 Berny optimization.
 Search for a local minimum.
 Step number   1 out of a maximum of   64
 All quantities printed in internal units (Hartrees-Bohrs-Radians)
 Second derivative matrix not updated -- first step.
 ITU=  0
     Eigenvalues ---    0.00882   0.03163   0.05058   0.05443   0.06883
     Eigenvalues ---    0.09068   0.10273   0.11535   0.13736   0.15697
     Eigenvalues ---    0.18292   0.19788   0.20065   0.21607   0.25008
     Eigenvalues ---    0.28120   0.29075   0.29250   0.29911   0.32197
     Eigenvalues ---    0.32687   0.33864   0.33971   0.34052   0.34708
     Eigenvalues ---    0.34809   0.35869   0.35908   0.35980   0.36013
     Eigenvalues ---    0.36213   0.36249   0.36826   0.38355   0.39739
     Eigenvalues ---    0.40512   0.42808   0.45909   0.50277   0.50793
     Eigenvalues ---    0.54815   0.58966   0.60174   0.60347   0.66887
     Eigenvalues ---    0.69355   0.77520   1.07743   1.11220   1.80811
     Eigenvalues ---    1.95493   2.01320  15.62774  19.59854
 RFO step:  Lambda=-1.48763266D-04 EMin= 8.82376095D-03
 Linear search not attempted -- first point.
 Variable       Old X    -DE/DX   Delta X   Delta X   Delta X     New X
                                 (Linear)    (Quad)   (Total)
    R2        2.80433   0.00041   0.00000  -0.00128  -0.00128   2.80305
    R3        2.51621   0.00207   0.00000   0.00209   0.00209   2.51830
    R4        2.03694  -0.00003   0.00000  -0.00007  -0.00007   2.03687
    R5        2.25689   0.00255   0.00000   0.00240   0.00240   2.25929
    R6        2.80616  -0.00028   0.00000   0.00013   0.00013   2.80629
    R7        2.03751   0.00003   0.00000   0.00010   0.00010   2.03761
    R8        2.61230  -0.00151   0.00000  -0.00243  -0.00243   2.60987
    R9        2.24455  -0.00086   0.00000  -0.00072  -0.00072   2.24383
   R10        6.89878  -0.00052   0.00000  -0.05808  -0.05808   6.84071
   R11        2.54529   0.00142   0.00000   0.00140   0.00140   2.54668
   R12        2.83536   0.00054   0.00000   0.00002   0.00002   2.83538
   R13        2.04113   0.00007   0.00000   0.00019   0.00019   2.04131
   R14        2.76269  -0.00051   0.00000  -0.00107  -0.00107   2.76161
   R15        2.04286   0.00006   0.00000   0.00019   0.00019   2.04305
   R16        2.07258   0.00007   0.00000   0.00021   0.00021   2.07279
   R17        2.07404   0.00000   0.00000   0.00002   0.00002   2.07406
   R18        2.83528  -0.00049   0.00000  -0.00046  -0.00046   2.83482
   R19        2.04231  -0.00001   0.00000  -0.00004  -0.00004   2.04227
   R20        2.04062  -0.00001   0.00000  -0.00002  -0.00002   2.04060
    A3        1.88705   0.00403   0.00000  -0.00097  -0.00097   1.88607
    A4        2.13238   0.00014   0.00000   0.00082   0.00082   2.13320
    A5        2.26316   0.00012   0.00000  -0.00107  -0.00107   2.26209
    A6        1.88944   0.00280   0.00000   0.00000   0.00000   1.88944
    A7        2.26786   0.00027   0.00000   0.00072   0.00072   2.26858
    A8        1.88142   0.00338   0.00000   0.00167   0.00167   1.88309
    A9        2.27960   0.00061   0.00000   0.00118   0.00118   2.28078
   A10        1.59961   0.00012   0.00000  -0.00080  -0.00080   1.59881
   A11        1.38331   0.00069   0.00000  -0.00095  -0.00095   1.38236
   A12        1.54552   0.00142   0.00000   0.00090   0.00090   1.54642
   A13        1.79617   0.00064   0.00000   0.00275   0.00275   1.79893
   A14        1.90793   0.00217   0.00000   0.00029   0.00029   1.90821
   A15        2.20154   0.00008   0.00000   0.00003   0.00003   2.20156
   A16        1.97395   0.00032   0.00000   0.00129   0.00129   1.97525
   A17        1.94165   0.00021   0.00000   0.00029   0.00029   1.94194
   A18        1.80069   0.00161   0.00000  -0.00024  -0.00024   1.80045
   A19        2.17652   0.00015   0.00000   0.00058   0.00058   2.17710
   A20        2.16629  -0.00008   0.00000  -0.00065  -0.00065   2.16563
    D4        3.17546   0.00056   0.00000   0.00644   0.00644   3.18190
    D5       -3.12477   0.00047   0.00000   0.01730   0.01730  -3.10748
    D6        0.04309   0.00049   0.00000   0.00697   0.00697   0.05006
    D7        3.11226   0.00041   0.00000  -0.00123  -0.00123   3.11103
    D8        3.10174  -0.00109   0.00000  -0.02434  -0.02434   3.07741
    D9        3.04384  -0.00141   0.00000  -0.02280  -0.02280   3.02104
   D10       -1.64895   0.00177   0.00000   0.00501   0.00501  -1.64393
   D11        0.50742   0.00010   0.00000   0.00056   0.00056   0.50798
   D12        1.91548   0.00265   0.00000  -0.00027  -0.00027   1.91521
   D13       -2.19034   0.00002   0.00000   0.00026   0.00026  -2.19008
   D14        1.45957  -0.00076   0.00000  -0.00158  -0.00158   1.45799
   D15        3.12227  -0.00053   0.00000  -0.00353  -0.00353   3.11875
   D16        0.80380   0.00102   0.00000   0.00366   0.00366   0.80746
   D17        2.06846   0.00017   0.00000   0.00010   0.00010   2.06856
   D18       -2.13780   0.00067   0.00000   0.00015   0.00015  -2.13765
   D19        3.11824  -0.00064   0.00000  -0.00675  -0.00675   3.11148
   D20       -3.11913   0.00057   0.00000   0.00516   0.00516  -3.11397
         Item               Value     Threshold  Converged?
 Maximum Force            0.004031     0.000450     NO 
 RMS     Force            0.001224     0.000300     NO 
 Maximum Displacement     0.058076     0.001800     NO 
 RMS     Displacement     0.009664     0.001200     NO 
 Predicted change in Energy=-7.475871D-05
 GradGradGradGradGradGradGradGradGradGradGradGradGradGradGradGradGradGrad

 ---------------------------------------------------------------------------------------------------
                            Z-MATRIX (ANGSTROMS AND DEGREES)
   CD    Cent   Atom    N1       Length/X        N2       Alpha/Y        N3        Beta/Z          J
 ---------------------------------------------------------------------------------------------------
      1      1  C 
      2      2  C        1   1.483311(     1)
      3      3  C        1   1.332629(     2)      2  108.064(    20)
      4      4  H        1   1.077865(     3)      2  122.223(    21)      3  182.309(    38)      0
      5      5  O        2   1.195564(     4)      1  129.608(    22)      3 -178.045(    39)      0
      6      6  C        3   1.485024(     5)      1  108.257(    23)      2    2.868(    40)      0
      7      7  H        3   1.078259(     6)      1  129.980(    24)      6  178.249(    41)      0
      8      8  O        2   1.381082(     7)      1  107.893(    25)      5  176.322(    42)      0
      9      9  O        6   1.187382(     8)      3  130.679(    26)      1  173.093(    43)      0
     10     10  C        1   3.619946(     9)      2   91.605(    27)      3  -94.190(    44)      0
     11     11  C       10   1.347648(    10)      1   79.204(    28)      2   29.105(    45)      0
     12     12  C       10   1.500416(    11)      1   88.603(    29)     11  109.734(    46)      0
     13     13  H       10   1.080217(    12)      1  103.071(    30)     11 -125.483(    47)      0
     14     14  C       11   1.461383(    13)     10  109.333(    31)      1   83.537(    48)      0
     15     15  H       11   1.081134(    14)     10  126.140(    32)     14  178.691(    49)      0
     16     16  H       12   1.096875(    15)     10  113.173(    33)      1   46.264(    50)      0
     17     17  H       12   1.097546(    16)     10  111.265(    34)     16  118.520(    51)      0
     18     18  C       12   1.500120(    17)     10  103.158(    35)     16 -122.478(    52)      0
     19     19  H       14   1.080724(    18)     11  124.739(    36)     10  178.275(    53)      0
     20     20  H       18   1.079841(    19)     12  124.081(    37)     10 -178.418(    54)      0
 ---------------------------------------------------------------------------------------------------
                         Z-Matrix orientation:                         
 ---------------------------------------------------------------------
 Center     Atomic      Atomic             Coordinates (Angstroms)
 Number     Number       Type             X           Y           Z
 ---------------------------------------------------------------------
      1          6           0        0.000000    0.000000    0.000000
      2          6           0        0.000000    0.000000    1.483311
      3          6           0        1.266944    0.000000   -0.413223
      4          1           0       -0.911109    0.036741   -0.574737
      5          8           0       -0.920551   -0.031419    2.245526
      6          6           0        2.145991   -0.070570    0.781597
      7          1           0        1.669449    0.016113   -1.413409
      8          8           0        1.313685   -0.039512    1.907642
      9          8           0        3.322817   -0.201490    0.869995
     10          6           0       -0.264405    3.608853   -0.101387
     11          6           0        0.393851    3.436543    1.061868
     12          6           0        0.725194    3.612984   -1.229183
     13          1           0       -1.324932    3.772729   -0.225066
     14          6           0        1.822606    3.289796    0.792114
     15          1           0       -0.047173    3.428496    2.048926
     16          1           0        0.503531    2.865451   -2.000671
     17          1           0        0.730297    4.578668   -1.750753
     18          6           0        2.033535    3.370910   -0.536357
     19          1           0        2.582837    3.165415    1.550099
     20          1           0        2.987604    3.333872   -1.040773
 ---------------------------------------------------------------------
                    Distance matrix (angstroms):
                    1          2          3          4          5
     1  C    0.000000
     2  C    1.483311   0.000000
     3  C    1.332629   2.280786   0.000000
     4  H    1.077865   2.251006   2.184343   0.000000
     5  O    2.427094   1.195564   3.443118   2.821102   0.000000
     6  C    2.284983   2.258906   1.485024   3.346194   3.398278
     7  H    2.187474   3.343397   1.078259   2.713499   4.483097
     8  O    2.316556   1.381082   2.321672   3.334326   2.259655
     9  O    3.440727   3.384948   2.431843   4.479971   4.463987
    10  C    3.619946   3.950315   3.932695   3.660911   4.380651
    11  C    3.618358   3.484618   3.840314   3.992499   3.893001
    12  C    3.884642   4.575716   3.743385   3.986891   5.297523
    13  H    4.004945   4.348273   4.581125   3.775066   4.553997
    14  C    3.843448   3.823925   3.547444   4.463614   4.546183
    15  H    3.994360   3.475159   4.420822   4.374242   3.573856
    16  H    3.530869   4.538995   3.363569   3.469307   5.333859
    17  H    4.956074   5.653026   4.800123   4.970546   6.320478
    18  C    3.973157   4.424631   3.459170   4.448493   5.295407
    19  H    4.369634   4.085995   3.950450   5.148902   4.793442
    20  H    4.596051   5.139210   3.803839   5.127205   6.115441
                    6          7          8          9         10
     6  C    0.000000
     7  H    2.247811   0.000000
     8  O    1.400598   3.340515   0.000000
     9  O    1.187382   2.827528   2.267060   0.000000
    10  C    4.486404   4.285903   4.453890   5.322637   0.000000
    11  C    3.930444   4.410610   3.693831   4.674499   1.347648
    12  C    4.430628   3.723309   4.850435   5.069951   1.500416
    13  H    5.275568   4.948801   5.103325   6.212499   1.080217
    14  C    3.375908   3.950289   3.547915   3.800761   2.292543
    15  H    4.319671   5.155474   3.728133   5.091514   2.168770
    16  H    4.365651   3.134161   4.936605   5.059172   2.179370
    17  H    5.480183   4.670408   5.920455   6.036505   2.156474
    18  C    3.686928   3.486609   4.257029   4.049953   2.350818
    19  H    3.354554   4.419814   3.465565   3.513710   3.321270
    20  H    3.952160   3.589417   4.782769   4.032640   3.396119
                   11         12         13         14         15
    11  C    0.000000
    12  C    2.321602   0.000000
    13  H    2.173346   2.288403   0.000000
    14  C    1.461383   2.322585   3.342883   0.000000
    15  H    1.081134   3.372920   2.631008   2.257186   0.000000
    16  H    3.117262   1.096875   2.705403   3.117639   4.125474
    17  H    3.054256   1.097546   2.683509   3.052949   4.045357
    18  C    2.290675   1.500120   3.396713   1.347555   3.319089
    19  H    2.259101   3.372768   4.334824   1.080724   2.689795
    20  H    3.340538   2.287334   4.410889   2.172243   4.331867
                   16         17         18         19         20
    16  H    0.000000
    17  H    1.746137   0.000000
    18  C    2.177296   2.152177   0.000000
    19  H    4.125707   4.040398   2.167317   0.000000
    20  H    2.703968   2.673766   1.079841   2.627705   0.000000
 Symmetry turned off by external request.
 Stoichiometry    C9H8O3
 Framework group  C1[X(C9H8O3)]
 Deg. of freedom    54
 Full point group                 C1      NOp   1
 Rotational constants (GHZ):           1.3488514           0.7579703           0.6171064
 Standard basis: def2TZVP (5D, 7F)
 The following finite field(s) will be applied:
 An electric field of             -0.0041 -0.0061  0.0017
   420 basis functions,   676 primitive gaussians,   480 cartesian basis functions
    43 alpha electrons       43 beta electrons
       nuclear repulsion energy       661.3027330790 Hartrees.
 NAtoms=   20 NActive=   20 NUniq=   20 SFac= 1.00D+00 NAtFMM=   60 NAOKFM=F Big=F
 Integral buffers will be    131072 words long.
 Raffenetti 2 integral format.
 Two-electron integral symmetry is turned off.
 One-electron integrals computed using PRISM.
   1 Symmetry operations used in ECPInt.
 ECPInt:  NShTT=   13530 NPrTT=   41904 LenC2=   13007 LenP2D=   30728.
 LDataN:  DoStor=T MaxTD1= 6 Len=  172
 NBasis=   420 RedAO= T EigKep=  4.08D-05  NBF=   420
 NBsUse=   420 1.00D-06 EigRej= -1.00D+00 NBFU=   420
 The nuclear repulsion energy is now       659.3939380342 hartrees.
 Initial guess from the checkpoint file:  "checkpoint.chk"
 B after Tr=     0.000771   -0.030009    0.002511
         Rot=    0.999996    0.000014    0.000263    0.002691 Ang=   0.31 deg.
 ExpMin= 9.52D-02 ExpMax= 2.70D+04 ExpMxC= 9.22D+02 IAcc=2 IRadAn=         4 AccDes= 0.00D+00
 Harris functional with IExCor=  402 and IRadAn=       4 diagonalized for initial guess.
 HarFok:  IExCor=  402 AccDes= 0.00D+00 IRadAn=         4 IDoV= 1 UseB2=F ITyADJ=14
 ICtDFT=  3500011 ScaDFX=  1.000000  1.000000  1.000000  1.000000
 FoFCou: FMM=F IPFlag=           0 FMFlag=      100000 FMFlg1=           0
         NFxFlg=           0 DoJE=T BraDBF=F KetDBF=T FulRan=T
         wScrn=  0.000000 ICntrl=       500 IOpCl=  0 I1Cent=   200000004 NGrid=           0
         NMat0=    1 NMatS0=      1 NMatT0=    0 NMatD0=    1 NMtDS0=    0 NMtDT0=    0
 Symmetry not used in FoFCou.
 Requested convergence on RMS density matrix=1.00D-08 within 128 cycles.
 Requested convergence on MAX density matrix=1.00D-06.
 Requested convergence on             energy=1.00D-06.
 No special actions if energy rises.
 Integral accuracy reduced to 1.0D-05 until final iterations.
 Initial convergence to 1.0D-05 achieved.  Increase integral accuracy.
 SCF Done:  E(RB3LYP) =  -573.635426393     A.U. after   10 cycles
            NFock= 10  Conv=0.93D-08     -V/T= 2.0048
   1 Symmetry operations used in ECPInt.
 ECPInt:  NShTT=   13530 NPrTT=   41904 LenC2=   13007 LenP2D=   30728.
 LDataN:  DoStor=T MaxTD1= 7 Len=  274
 Calling FoFJK, ICntrl=      2127 FMM=F ISym2X=0 I1Cent= 0 IOpClX= 0 NMat=1 NMatS=1 NMatT=0.
 -------------------------------------------------------------------
 Center     Atomic                   Forces (Hartrees/Bohr)
 Number     Number              X              Y              Z
 -------------------------------------------------------------------
      1        6           0.002385397    0.005302474    0.000541124
      2        6          -0.001112955   -0.004935699   -0.000845917
      3        6           0.000235911   -0.000640030    0.000014372
      4        1           0.000071703    0.000154491   -0.000026935
      5        8          -0.000987910    0.000323220    0.000731094
      6        6           0.000585367   -0.000542403   -0.001081800
      7        1           0.000043261   -0.000041518    0.000042879
      8        8          -0.001169131    0.000714242    0.000469987
      9        8          -0.000173785   -0.000004895    0.000187050
     10        6           0.000024541   -0.000440765   -0.000301136
     11        6           0.000366140   -0.000289705    0.000092496
     12        6          -0.000105960   -0.000260787    0.000159188
     13        1           0.000061481    0.000273205    0.000043312
     14        6          -0.000394800   -0.000082960    0.000385383
     15        1           0.000018975    0.000161499   -0.000008434
     16        1          -0.000056304    0.000117652   -0.000109446
     17        1           0.000156608    0.000030600    0.000101140
     18        6          -0.000030851   -0.000125795   -0.000363238
     19        1           0.000039704    0.000128347   -0.000046805
     20        1           0.000042607    0.000158828    0.000015683
 -------------------------------------------------------------------
 Cartesian Forces:  Max     0.005302474 RMS     0.001062984
 -----------------------------------------------------------------------------------------------
                       Internal Coordinate Forces (Hartree/Bohr or radian)
  Cent   Atom   N1       Length/X         N2         Alpha/Y        N3         Beta/Z          J
 -----------------------------------------------------------------------------------------------
      1  C 
      2  C        1   0.000355(     1)
      3  C        1   0.000916(     2)      2   0.003322(    20)
      4  H        1  -0.000041(     3)      2   0.000117(    21)      3   0.000271(    38)     0
      5  O        2   0.001218(     4)      1  -0.000134(    22)      3   0.001065(    39)     0
      6  C        3  -0.000450(     5)      1   0.001945(    23)      2   0.001463(    40)     0
      7  H        3  -0.000024(     6)      1   0.000115(    24)      6  -0.000063(    41)     0
      8  O        2  -0.000988(     7)      1   0.002122(    25)      5   0.001686(    42)     0
      9  O        6  -0.000158(     8)      3   0.000446(    26)      1  -0.000049(    43)     0
     10  C        1  -0.000337(     9)      2   0.000065(    27)      3   0.001431(    44)     0
     11  C       10   0.000390(    10)      1   0.000484(    28)      2   0.000079(    45)     0
     12  C       10   0.000152(    11)      1   0.000430(    29)     11   0.000997(    46)     0
     13  H       10  -0.000024(    12)      1   0.000570(    30)     11   0.000082(    47)     0
     14  C       11  -0.000414(    13)     10   0.000614(    31)      1  -0.000120(    48)     0
     15  H       11  -0.000017(    14)     10  -0.000022(    32)     14  -0.000267(    49)     0
     16  H       12   0.000008(    15)     10   0.000095(    33)      1   0.000563(    50)     0
     17  H       12  -0.000020(    16)     10   0.000077(    34)     16   0.000356(    51)     0
     18  C       12  -0.000156(    17)     10   0.000869(    35)     16  -0.000105(    52)     0
     19  H       14  -0.000020(    18)     11   0.000114(    36)     10  -0.000217(    53)     0
     20  H       18   0.000025(    19)     12   0.000012(    37)     10   0.000276(    54)     0
 -----------------------------------------------------------------------------------------------
 Internal  Forces:  Max     0.003321959 RMS     0.000811185

 GradGradGradGradGradGradGradGradGradGradGradGradGradGradGradGradGradGrad
 Berny optimization.
 Search for a local minimum.
 Step number   2 out of a maximum of   64
 All quantities printed in internal units (Hartrees-Bohrs-Radians)
 Update second derivatives using D2CorN and points    1    2
 DE= -9.17D-05 DEPred=-7.48D-05 R= 1.23D+00
 TightC=F SS=  1.41D+00  RLast= 7.10D-02 DXNew= 1.6818D-01 2.1306D-01
 Trust test= 1.23D+00 RLast= 7.10D-02 DXMaxT set to 1.68D-01
 ITU=  1  0
     Eigenvalues ---    0.00388   0.03448   0.04927   0.05452   0.06861
     Eigenvalues ---    0.09070   0.10253   0.11526   0.13725   0.15697
     Eigenvalues ---    0.18251   0.19789   0.20050   0.21605   0.25006
     Eigenvalues ---    0.28115   0.29073   0.29244   0.29908   0.32194
     Eigenvalues ---    0.32680   0.33863   0.33971   0.34052   0.34700
     Eigenvalues ---    0.34809   0.35869   0.35908   0.35980   0.36013
     Eigenvalues ---    0.36213   0.36249   0.36825   0.38355   0.39738
     Eigenvalues ---    0.40512   0.42812   0.45888   0.50274   0.50728
     Eigenvalues ---    0.54801   0.58965   0.60141   0.60347   0.66891
     Eigenvalues ---    0.69355   0.77562   1.07694   1.11217   1.80811
     Eigenvalues ---    1.95493   2.01320  15.62745  19.59847
 RFO step:  Lambda=-1.09202447D-04 EMin= 3.87733171D-03
 Quartic linear search produced a step of  0.28783.
 Variable       Old X    -DE/DX   Delta X   Delta X   Delta X     New X
                                 (Linear)    (Quad)   (Total)
    R2        2.80305   0.00036  -0.00037  -0.00131  -0.00168   2.80137
    R3        2.51830   0.00092   0.00060   0.00043   0.00103   2.51933
    R4        2.03687  -0.00004  -0.00002  -0.00019  -0.00021   2.03666
    R5        2.25929   0.00122   0.00069   0.00146   0.00215   2.26144
    R6        2.80629  -0.00045   0.00004  -0.00113  -0.00109   2.80519
    R7        2.03761  -0.00002   0.00003  -0.00015  -0.00012   2.03749
    R8        2.60987  -0.00099  -0.00070  -0.00240  -0.00310   2.60677
    R9        2.24383  -0.00016  -0.00021  -0.00004  -0.00025   2.24358
   R10        6.84071  -0.00034  -0.01672  -0.11799  -0.13471   6.70600
   R11        2.54668   0.00039   0.00040   0.00026   0.00067   2.54735
   R12        2.83538   0.00015   0.00001  -0.00061  -0.00060   2.83477
   R13        2.04131  -0.00002   0.00005  -0.00017  -0.00011   2.04120
   R14        2.76161  -0.00041  -0.00031  -0.00124  -0.00155   2.76006
   R15        2.04305  -0.00002   0.00005  -0.00013  -0.00007   2.04297
   R16        2.07279   0.00001   0.00006   0.00000   0.00006   2.07286
   R17        2.07406  -0.00002   0.00001  -0.00009  -0.00009   2.07398
   R18        2.83482  -0.00016  -0.00013  -0.00045  -0.00058   2.83423
   R19        2.04227  -0.00002  -0.00001  -0.00009  -0.00010   2.04217
   R20        2.04060   0.00002  -0.00000   0.00013   0.00013   2.04073
    A3        1.88607   0.00332  -0.00028   0.00032   0.00004   1.88612
    A4        2.13320   0.00012   0.00024   0.00030   0.00054   2.13373
    A5        2.26209  -0.00013  -0.00031  -0.00037  -0.00068   2.26141
    A6        1.88944   0.00195   0.00000  -0.00060  -0.00060   1.88884
    A7        2.26858   0.00012   0.00021   0.00068   0.00089   2.26947
    A8        1.88309   0.00212   0.00048   0.00058   0.00107   1.88416
    A9        2.28078   0.00045   0.00034   0.00194   0.00228   2.28305
   A10        1.59881   0.00006  -0.00023  -0.00097  -0.00120   1.59761
   A11        1.38236   0.00048  -0.00027   0.00003  -0.00024   1.38212
   A12        1.54642   0.00043   0.00026  -0.00029  -0.00003   1.54638
   A13        1.79893   0.00057   0.00079   0.00267   0.00346   1.80239
   A14        1.90821   0.00061   0.00008  -0.00001   0.00007   1.90828
   A15        2.20156  -0.00002   0.00001  -0.00029  -0.00028   2.20128
   A16        1.97525   0.00010   0.00037   0.00183   0.00220   1.97745
   A17        1.94194   0.00008   0.00008  -0.00154  -0.00145   1.94049
   A18        1.80045   0.00087  -0.00007   0.00033   0.00026   1.80071
   A19        2.17710   0.00011   0.00017   0.00027   0.00044   2.17754
   A20        2.16563   0.00001  -0.00019   0.00029   0.00010   2.16573
    D4        3.18190   0.00027   0.00185   0.00738   0.00923   3.19113
    D5       -3.10748   0.00106   0.00498  -0.02038  -0.01540  -3.12288
    D6        0.05006   0.00146   0.00201   0.00744   0.00944   0.05950
    D7        3.11103  -0.00006  -0.00035  -0.00573  -0.00609   3.10495
    D8        3.07741   0.00169  -0.00701   0.02647   0.01946   3.09687
    D9        3.02104  -0.00005  -0.00656  -0.00592  -0.01248   3.00856
   D10       -1.64393   0.00143   0.00144   0.00711   0.00856  -1.63537
   D11        0.50798   0.00008   0.00016   0.00093   0.00109   0.50907
   D12        1.91521   0.00100  -0.00008  -0.00003  -0.00011   1.91511
   D13       -2.19008   0.00008   0.00007   0.00050   0.00057  -2.18951
   D14        1.45799  -0.00012  -0.00045   0.00239   0.00193   1.45992
   D15        3.11875  -0.00027  -0.00102  -0.00533  -0.00635   3.11240
   D16        0.80746   0.00056   0.00105   0.00253   0.00358   0.81104
   D17        2.06856   0.00036   0.00003  -0.00034  -0.00031   2.06825
   D18       -2.13765  -0.00011   0.00004  -0.00467  -0.00462  -2.14227
   D19        3.11148  -0.00022  -0.00194  -0.00575  -0.00769   3.10379
   D20       -3.11397   0.00028   0.00149   0.00602   0.00750  -3.10647
         Item               Value     Threshold  Converged?
 Maximum Force            0.003322     0.000450     NO 
 RMS     Force            0.000811     0.000300     NO 
 Maximum Displacement     0.134710     0.001800     NO 
 RMS     Displacement     0.018979     0.001200     NO 
 Predicted change in Energy=-5.283798D-05
 GradGradGradGradGradGradGradGradGradGradGradGradGradGradGradGradGradGrad

 ---------------------------------------------------------------------------------------------------
                            Z-MATRIX (ANGSTROMS AND DEGREES)
   CD    Cent   Atom    N1       Length/X        N2       Alpha/Y        N3        Beta/Z          J
 ---------------------------------------------------------------------------------------------------
      1      1  C 
      2      2  C        1   1.482421(     1)
      3      3  C        1   1.333174(     2)      2  108.067(    20)
      4      4  H        1   1.077755(     3)      2  122.254(    21)      3  182.838(    38)      0
      5      5  O        2   1.196704(     4)      1  129.569(    22)      3 -178.928(    39)      0
      6      6  C        3   1.484445(     5)      1  108.223(    23)      2    3.409(    40)      0
      7      7  H        3   1.078195(     6)      1  130.031(    24)      6  177.900(    41)      0
      8      8  O        2   1.379443(     7)      1  107.954(    25)      5  177.438(    42)      0
      9      9  O        6   1.187252(     8)      3  130.809(    26)      1  172.378(    43)      0
     10     10  C        1   3.548660(     9)      2   91.536(    27)      3  -93.700(    44)      0
     11     11  C       10   1.348000(    10)      1   79.190(    28)      2   29.167(    45)      0
     12     12  C       10   1.500097(    11)      1   88.601(    29)     11  109.728(    46)      0
     13     13  H       10   1.080157(    12)      1  103.269(    30)     11 -125.450(    47)      0
     14     14  C       11   1.460563(    13)     10  109.337(    31)      1   83.647(    48)      0
     15     15  H       11   1.081095(    14)     10  126.124(    32)     14  178.327(    49)      0
     16     16  H       12   1.096908(    15)     10  113.299(    33)      1   46.469(    50)      0
     17     17  H       12   1.097501(    16)     10  111.182(    34)     16  118.502(    51)      0
     18     18  C       12   1.499811(    17)     10  103.173(    35)     16 -122.743(    52)      0
     19     19  H       14   1.080669(    18)     11  124.764(    36)     10  177.834(    53)      0
     20     20  H       18   1.079909(    19)     12  124.087(    37)     10 -177.988(    54)      0
 ---------------------------------------------------------------------------------------------------
                         Z-Matrix orientation:                         
 ---------------------------------------------------------------------
 Center     Atomic      Atomic             Coordinates (Angstroms)
 Number     Number       Type             X           Y           Z
 ---------------------------------------------------------------------
      1          6           0        0.000000    0.000000    0.000000
      2          6           0        0.000000    0.000000    1.482421
      3          6           0        1.267445    0.000000   -0.413445
      4          1           0       -0.910331    0.045128   -0.575167
      5          8           0       -0.922321   -0.017263    2.244738
      6          6           0        2.145255   -0.083851    0.780705
      7          1           0        1.670789    0.018870   -1.413176
      8          8           0        1.311824   -0.034126    1.907648
      9          8           0        3.319965   -0.230095    0.871460
     10          6           0       -0.228920    3.539991   -0.095133
     11          6           0        0.429349    3.360354    1.067414
     12          6           0        0.759276    3.536855   -1.223739
     13          1           0       -1.287542    3.716795   -0.216785
     14          6           0        1.856004    3.204246    0.796245
     15          1           0       -0.010259    3.358680    2.055092
     16          1           0        0.530314    2.795227   -1.998835
     17          1           0        0.773403    4.504630   -1.741154
     18          6           0        2.066333    3.284331   -0.532894
     19          1           0        2.617082    3.079550    1.553249
     20          1           0        3.020307    3.246666   -1.037590
 ---------------------------------------------------------------------
                    Distance matrix (angstroms):
                    1          2          3          4          5
     1  C    0.000000
     2  C    1.482421   0.000000
     3  C    1.333174   2.280510   0.000000
     4  H    1.077755   2.250424   2.184239   0.000000
     5  O    2.426896   1.196704   3.444025   2.820620   0.000000
     6  C    2.284437   2.258662   1.484445   3.345390   3.399683
     7  H    2.188369   3.343109   1.078195   2.713877   4.483956
     8  O    2.315419   1.379443   2.321768   3.332960   2.259494
     9  O    3.440138   3.383546   2.432439   4.479272   4.464099
    10  C    3.548660   3.882347   3.856419   3.592884   4.313914
    11  C    3.551857   3.412997   3.766606   3.934912   3.823794
    12  C    3.818819   4.517648   3.663899   3.924333   5.243077
    13  H    3.939458   4.284814   4.514554   3.708351   4.487279
    14  C    3.787605   3.766003   3.475190   4.417398   4.493922
    15  H    3.937543   3.407168   4.359695   4.325277   3.502116
    16  H    3.477049   4.495962   3.296986   3.415455   5.294162
    17  H    4.890958   5.592968   4.722138   4.907306   6.261816
    18  C    3.916700   4.372421   3.382207   4.399404   5.248601
    19  H    4.329588   4.042000   3.895258   5.116690   4.753501
    20  H    4.554085   5.100349   3.742048   5.090540   6.080397
                    6          7          8          9         10
     6  C    0.000000
     7  H    2.246951   0.000000
     8  O    1.402526   3.340590   0.000000
     9  O    1.187252   2.828662   2.268198   0.000000
    10  C    4.419958   4.212413   4.377138   5.267109   0.000000
    11  C    3.858637   4.342812   3.606556   4.613608   1.348000
    12  C    4.364430   3.639088   4.781506   5.013671   1.500097
    13  H    5.217662   4.884438   5.033818   6.163711   1.080157
    14  C    3.300832   3.881040   3.466757   3.734105   2.292201
    15  H    4.256915   5.099916   3.644280   5.036932   2.168907
    16  H    4.315434   3.058078   4.886369   5.017302   2.180639
    17  H    5.412570   4.586384   5.848415   5.977320   2.155126
    18  C    3.616134   3.405084   4.187802   3.986853   2.350571
    19  H    3.290372   4.366110   3.394742   3.451468   3.320979
    20  H    3.894132   3.518655   4.728313   3.977705   3.395842
                   11         12         13         14         15
    11  C    0.000000
    12  C    2.321505   0.000000
    13  H    2.173461   2.288187   0.000000
    14  C    1.460563   2.322450   3.342277   0.000000
    15  H    1.081095   3.372635   2.630803   2.256432   0.000000
    16  H    3.119526   1.096908   2.707322   3.120451   4.128440
    17  H    3.052179   1.097501   2.681769   3.049822   4.042130
    18  C    2.290520   1.499811   3.396385   1.348058   3.318951
    19  H    2.258553   3.372275   4.334189   1.080669   2.689365
    20  H    3.340215   2.287165   4.410478   2.172638   4.331463
                   16         17         18         19         20
    16  H    0.000000
    17  H    1.745723   0.000000
    18  C    2.178890   2.149579   0.000000
    19  H    4.129496   4.035232   2.167315   0.000000
    20  H    2.707001   2.669467   1.079909   2.627350   0.000000
 Symmetry turned off by external request.
 Stoichiometry    C9H8O3
 Framework group  C1[X(C9H8O3)]
 Deg. of freedom    54
 Full point group                 C1      NOp   1
 Rotational constants (GHZ):           1.3512224           0.7829448           0.6331438
 Standard basis: def2TZVP (5D, 7F)
 The following finite field(s) will be applied:
 An electric field of             -0.0041 -0.0061  0.0017
   420 basis functions,   676 primitive gaussians,   480 cartesian basis functions
    43 alpha electrons       43 beta electrons
       nuclear repulsion energy       665.1006622515 Hartrees.
 NAtoms=   20 NActive=   20 NUniq=   20 SFac= 1.00D+00 NAtFMM=   60 NAOKFM=F Big=F
 Integral buffers will be    131072 words long.
 Raffenetti 2 integral format.
 Two-electron integral symmetry is turned off.
 One-electron integrals computed using PRISM.
   1 Symmetry operations used in ECPInt.
 ECPInt:  NShTT=   13530 NPrTT=   41904 LenC2=   13020 LenP2D=   30857.
 LDataN:  DoStor=T MaxTD1= 6 Len=  172
 NBasis=   420 RedAO= T EigKep=  3.93D-05  NBF=   420
 NBsUse=   420 1.00D-06 EigRej= -1.00D+00 NBFU=   420
 The nuclear repulsion energy is now       663.2168675079 hartrees.
 Initial guess from the checkpoint file:  "checkpoint.chk"
 B after Tr=     0.001844   -0.051302    0.012876
         Rot=    0.999988    0.001711    0.000039    0.004531 Ang=   0.55 deg.
 ExpMin= 9.52D-02 ExpMax= 2.70D+04 ExpMxC= 9.22D+02 IAcc=2 IRadAn=         4 AccDes= 0.00D+00
 Harris functional with IExCor=  402 and IRadAn=       4 diagonalized for initial guess.
 HarFok:  IExCor=  402 AccDes= 0.00D+00 IRadAn=         4 IDoV= 1 UseB2=F ITyADJ=14
 ICtDFT=  3500011 ScaDFX=  1.000000  1.000000  1.000000  1.000000
 FoFCou: FMM=F IPFlag=           0 FMFlag=      100000 FMFlg1=           0
         NFxFlg=           0 DoJE=T BraDBF=F KetDBF=T FulRan=T
         wScrn=  0.000000 ICntrl=       500 IOpCl=  0 I1Cent=   200000004 NGrid=           0
         NMat0=    1 NMatS0=      1 NMatT0=    0 NMatD0=    1 NMtDS0=    0 NMtDT0=    0
 Symmetry not used in FoFCou.
 Requested convergence on RMS density matrix=1.00D-08 within 128 cycles.
 Requested convergence on MAX density matrix=1.00D-06.
 Requested convergence on             energy=1.00D-06.
 No special actions if energy rises.
 Integral accuracy reduced to 1.0D-05 until final iterations.
 Initial convergence to 1.0D-05 achieved.  Increase integral accuracy.
 SCF Done:  E(RB3LYP) =  -573.635445305     A.U. after   11 cycles
            NFock= 11  Conv=0.50D-08     -V/T= 2.0048
   1 Symmetry operations used in ECPInt.
 ECPInt:  NShTT=   13530 NPrTT=   41904 LenC2=   13020 LenP2D=   30857.
 LDataN:  DoStor=T MaxTD1= 7 Len=  274
 Calling FoFJK, ICntrl=      2127 FMM=F ISym2X=0 I1Cent= 0 IOpClX= 0 NMat=1 NMatS=1 NMatT=0.
 -------------------------------------------------------------------
 Center     Atomic                   Forces (Hartrees/Bohr)
 Number     Number              X              Y              Z
 -------------------------------------------------------------------
      1        6           0.002572519    0.005302523    0.000121743
      2        6          -0.002695016   -0.002574360   -0.000021889
      3        6           0.000330609   -0.001759848    0.000114250
      4        1          -0.000012913   -0.000065065   -0.000003268
      5        8          -0.000031739   -0.000566347    0.000019765
      6        6           0.000175238    0.000886396   -0.000762097
      7        1          -0.000010413   -0.000169520    0.000038561
      8        8          -0.000402546   -0.001083729    0.000282183
      9        8           0.000018445   -0.000351940    0.000219265
     10        6           0.000138290   -0.000585954   -0.000180277
     11        6           0.000325324    0.000426794    0.000155124
     12        6          -0.000102525    0.000011928   -0.000068172
     13        1           0.000014517    0.000085338    0.000017735
     14        6          -0.000267885    0.000387938    0.000298946
     15        1           0.000016779    0.000013897   -0.000036729
     16        1          -0.000053838    0.000163855    0.000011354
     17        1           0.000075261    0.000110899    0.000019086
     18        6          -0.000070191   -0.000111688   -0.000234305
     19        1          -0.000013347   -0.000061146   -0.000013818
     20        1          -0.000006570   -0.000059970    0.000022542
 -------------------------------------------------------------------
 Cartesian Forces:  Max     0.005302523 RMS     0.000969318
 -----------------------------------------------------------------------------------------------
                       Internal Coordinate Forces (Hartree/Bohr or radian)
  Cent   Atom   N1       Length/X         N2         Alpha/Y        N3         Beta/Z          J
 -----------------------------------------------------------------------------------------------
      1  C 
      2  C        1   0.000280(     1)
      3  C        1   0.000609(     2)      2   0.001377(    20)
      4  H        1   0.000010(     3)      2  -0.000005(    21)      3  -0.000113(    38)     0
      5  O        2   0.000045(     4)      1  -0.000027(    22)      3  -0.001726(    39)     0
      6  C        3  -0.000352(     5)      1   0.000840(    23)      2  -0.001372(    40)     0
      7  H        3  -0.000043(     6)      1   0.000015(    24)      6  -0.000263(    41)     0
      8  O        2  -0.000269(     7)      1   0.001000(    25)      5  -0.002713(    42)     0
      9  O        6   0.000078(     8)      3   0.000462(    26)      1  -0.000597(    43)     0
     10  C        1   0.000378(     9)      2   0.000741(    27)      3  -0.000320(    44)     0
     11  C       10   0.000275(    10)      1   0.002318(    28)      2   0.000268(    45)     0
     12  C       10   0.000083(    11)      1   0.000322(    29)     11   0.001158(    46)     0
     13  H       10  -0.000002(    12)      1   0.000177(    30)     11   0.000035(    47)     0
     14  C       11  -0.000363(    13)     10   0.000537(    31)      1   0.000755(    48)     0
     15  H       11  -0.000040(    14)     10  -0.000004(    32)     14  -0.000023(    49)     0
     16  H       12  -0.000108(    15)     10  -0.000004(    33)      1   0.001056(    50)     0
     17  H       12   0.000090(    16)     10   0.000006(    34)     16   0.000196(    51)     0
     18  C       12  -0.000136(    17)     10   0.000354(    35)     16   0.000603(    52)     0
     19  H       14  -0.000012(    18)     11   0.000007(    36)     10   0.000105(    53)     0
     20  H       18  -0.000014(    19)     12   0.000056(    37)     10  -0.000095(    54)     0
 -----------------------------------------------------------------------------------------------
 Internal  Forces:  Max     0.002712511 RMS     0.000715274

 GradGradGradGradGradGradGradGradGradGradGradGradGradGradGradGradGradGrad
 Berny optimization.
 Search for a local minimum.
 Step number   3 out of a maximum of   64
 All quantities printed in internal units (Hartrees-Bohrs-Radians)
 Update second derivatives using D2CorN and points    1    2    3
 DE= -1.89D-05 DEPred=-5.28D-05 R= 3.58D-01
 Trust test= 3.58D-01 RLast= 1.39D-01 DXMaxT set to 1.68D-01
 ITU=  0  1  0
     Eigenvalues ---    0.00616   0.03496   0.04883   0.05459   0.06861
     Eigenvalues ---    0.09077   0.10259   0.11522   0.13725   0.15697
     Eigenvalues ---    0.18242   0.19790   0.20049   0.21605   0.25007
     Eigenvalues ---    0.28141   0.29075   0.29243   0.29909   0.32194
     Eigenvalues ---    0.32679   0.33863   0.33971   0.34052   0.34697
     Eigenvalues ---    0.34809   0.35869   0.35908   0.35980   0.36013
     Eigenvalues ---    0.36213   0.36249   0.36824   0.38355   0.39738
     Eigenvalues ---    0.40512   0.42813   0.45884   0.50272   0.50710
     Eigenvalues ---    0.54799   0.58967   0.60139   0.60352   0.66891
     Eigenvalues ---    0.69362   0.77623   1.07688   1.11217   1.80811
     Eigenvalues ---    1.95495   2.01321  15.62738  19.59846
 RFO step:  Lambda=-1.86553389D-05 EMin= 6.16330594D-03
 Quartic linear search produced a step of -0.39324.
 Variable       Old X    -DE/DX   Delta X   Delta X   Delta X     New X
                                 (Linear)    (Quad)   (Total)
    R2        2.80137   0.00028   0.00066  -0.00061   0.00006   2.80143
    R3        2.51933   0.00061  -0.00041   0.00068   0.00027   2.51961
    R4        2.03666   0.00001   0.00008  -0.00004   0.00004   2.03670
    R5        2.26144   0.00005  -0.00085   0.00066  -0.00018   2.26126
    R6        2.80519  -0.00035   0.00043  -0.00067  -0.00024   2.80495
    R7        2.03749  -0.00004   0.00005  -0.00012  -0.00007   2.03742
    R8        2.60677  -0.00027   0.00122  -0.00116   0.00006   2.60683
    R9        2.24358   0.00008   0.00010  -0.00001   0.00008   2.24367
   R10        6.70600   0.00038   0.05297  -0.01516   0.03781   6.74381
   R11        2.54735   0.00028  -0.00026   0.00029   0.00002   2.54738
   R12        2.83477   0.00008   0.00024  -0.00034  -0.00011   2.83467
   R13        2.04120  -0.00000   0.00004  -0.00004   0.00001   2.04121
   R14        2.76006  -0.00036   0.00061  -0.00107  -0.00046   2.75960
   R15        2.04297  -0.00004   0.00003  -0.00010  -0.00007   2.04291
   R16        2.07286  -0.00011  -0.00002  -0.00020  -0.00022   2.07263
   R17        2.07398   0.00009   0.00003   0.00016   0.00019   2.07417
   R18        2.83423  -0.00014   0.00023  -0.00021   0.00002   2.83425
   R19        2.04217  -0.00001   0.00004  -0.00005  -0.00001   2.04216
   R20        2.04073  -0.00001  -0.00005   0.00001  -0.00004   2.04069
    A3        1.88612   0.00138  -0.00002  -0.00005  -0.00007   1.88605
    A4        2.13373  -0.00000  -0.00021   0.00016  -0.00005   2.13368
    A5        2.26141  -0.00003   0.00027  -0.00049  -0.00022   2.26120
    A6        1.88884   0.00084   0.00024  -0.00006   0.00018   1.88902
    A7        2.26947   0.00001  -0.00035   0.00021  -0.00014   2.26933
    A8        1.88416   0.00100  -0.00042   0.00032  -0.00010   1.88406
    A9        2.28305   0.00046  -0.00089   0.00114   0.00025   2.28330
   A10        1.59761   0.00074   0.00047   0.00033   0.00081   1.59841
   A11        1.38212   0.00232   0.00010   0.00211   0.00221   1.38433
   A12        1.54638   0.00032   0.00001   0.00082   0.00083   1.54721
   A13        1.80239   0.00018  -0.00136   0.00080  -0.00056   1.80183
   A14        1.90828   0.00054  -0.00003  -0.00011  -0.00013   1.90815
   A15        2.20128  -0.00000   0.00011  -0.00004   0.00007   2.20135
   A16        1.97745  -0.00000  -0.00087   0.00059  -0.00027   1.97718
   A17        1.94049   0.00001   0.00057  -0.00019   0.00038   1.94088
   A18        1.80071   0.00035  -0.00010  -0.00027  -0.00037   1.80034
   A19        2.17754   0.00001  -0.00017   0.00009  -0.00008   2.17746
   A20        2.16573   0.00006  -0.00004   0.00015   0.00011   2.16584
    D4        3.19113  -0.00011  -0.00363   0.00217  -0.00146   3.18967
    D5       -3.12288  -0.00173   0.00606   0.00115   0.00720  -3.11567
    D6        0.05950  -0.00137  -0.00371   0.00492   0.00121   0.06071
    D7        3.10495  -0.00026   0.00239  -0.00484  -0.00245   3.10250
    D8        3.09687  -0.00271  -0.00765  -0.00815  -0.01581   3.08106
    D9        3.00856  -0.00060   0.00491  -0.00847  -0.00356   3.00500
   D10       -1.63537  -0.00032  -0.00337   0.00196  -0.00141  -1.63678
   D11        0.50907   0.00027  -0.00043   0.00118   0.00075   0.50981
   D12        1.91511   0.00116   0.00004  -0.00014  -0.00010   1.91501
   D13       -2.18951   0.00004  -0.00022   0.00003  -0.00020  -2.18971
   D14        1.45992   0.00076  -0.00076  -0.00010  -0.00086   1.45907
   D15        3.11240  -0.00002   0.00250  -0.00125   0.00125   3.11364
   D16        0.81104   0.00106  -0.00141   0.00256   0.00116   0.81219
   D17        2.06825   0.00020   0.00012  -0.00004   0.00008   2.06833
   D18       -2.14227   0.00060   0.00182  -0.00184  -0.00002  -2.14230
   D19        3.10379   0.00011   0.00303  -0.00054   0.00249   3.10627
   D20       -3.10647  -0.00010  -0.00295  -0.00022  -0.00317  -3.10965
         Item               Value     Threshold  Converged?
 Maximum Force            0.002713     0.000450     NO 
 RMS     Force            0.000715     0.000300     NO 
 Maximum Displacement     0.037813     0.001800     NO 
 RMS     Displacement     0.005748     0.001200     NO 
 Predicted change in Energy=-2.970803D-05
 GradGradGradGradGradGradGradGradGradGradGradGradGradGradGradGradGradGrad

 ---------------------------------------------------------------------------------------------------
                            Z-MATRIX (ANGSTROMS AND DEGREES)
   CD    Cent   Atom    N1       Length/X        N2       Alpha/Y        N3        Beta/Z          J
 ---------------------------------------------------------------------------------------------------
      1      1  C 
      2      2  C        1   1.482451(     1)
      3      3  C        1   1.333319(     2)      2  108.063(    20)
      4      4  H        1   1.077776(     3)      2  122.251(    21)      3  182.754(    38)      0
      5      5  O        2   1.196606(     4)      1  129.557(    22)      3 -178.515(    39)      0
      6      6  C        3   1.484316(     5)      1  108.233(    23)      2    3.478(    40)      0
      7      7  H        3   1.078158(     6)      1  130.023(    24)      6  177.760(    41)      0
      8      8  O        2   1.379474(     7)      1  107.948(    25)      5  176.532(    42)      0
      9      9  O        6   1.187296(     8)      3  130.823(    26)      1  172.174(    43)      0
     10     10  C        1   3.568670(     9)      2   91.582(    27)      3  -93.781(    44)      0
     11     11  C       10   1.348013(    10)      1   79.316(    28)      2   29.210(    45)      0
     12     12  C       10   1.500041(    11)      1   88.649(    29)     11  109.722(    46)      0
     13     13  H       10   1.080160(    12)      1  103.237(    30)     11 -125.461(    47)      0
     14     14  C       11   1.460318(    13)     10  109.329(    31)      1   83.598(    48)      0
     15     15  H       11   1.081060(    14)     10  126.128(    32)     14  178.399(    49)      0
     16     16  H       12   1.096790(    15)     10  113.284(    33)      1   46.535(    50)      0
     17     17  H       12   1.097602(    16)     10  111.204(    34)     16  118.507(    51)      0
     18     18  C       12   1.499821(    17)     10  103.152(    35)     16 -122.745(    52)      0
     19     19  H       14   1.080665(    18)     11  124.759(    36)     10  177.976(    53)      0
     20     20  H       18   1.079886(    19)     12  124.093(    37)     10 -178.170(    54)      0
 ---------------------------------------------------------------------------------------------------
                         Z-Matrix orientation:                         
 ---------------------------------------------------------------------
 Center     Atomic      Atomic             Coordinates (Angstroms)
 Number     Number       Type             X           Y           Z
 ---------------------------------------------------------------------
      1          6           0        0.000000    0.000000    0.000000
      2          6           0        0.000000    0.000000    1.482451
      3          6           0        1.267611    0.000000   -0.413402
      4          1           0       -0.910442    0.043801   -0.575133
      5          8           0       -0.922264   -0.023909    2.244503
      6          6           0        2.145441   -0.085536    0.780454
      7          1           0        1.670863    0.017847   -1.413149
      8          8           0        1.311555   -0.045412    1.907551
      9          8           0        3.319724   -0.235479    0.871282
     10          6           0       -0.235221    3.559546   -0.098543
     11          6           0        0.424185    3.384758    1.064114
     12          6           0        0.752209    3.558074   -1.227747
     13          1           0       -1.294250    3.734179   -0.219816
     14          6           0        1.850641    3.230288    0.792282
     15          1           0       -0.014799    3.384400    2.052032
     16          1           0        0.523323    2.816615   -2.002859
     17          1           0        0.765325    4.526116   -1.744905
     18          6           0        2.059733    3.306583   -0.537387
     19          1           0        2.612251    3.107133    1.548998
     20          1           0        3.013311    3.267343   -1.042663
 ---------------------------------------------------------------------
                    Distance matrix (angstroms):
                    1          2          3          4          5
     1  C    0.000000
     2  C    1.482451   0.000000
     3  C    1.333319   2.280592   0.000000
     4  H    1.077776   2.250438   2.184489   0.000000
     5  O    2.426713   1.196606   3.443921   2.820473   0.000000
     6  C    2.284588   2.258989   1.484316   3.345559   3.399714
     7  H    2.188400   3.343143   1.078158   2.714053   4.483802
     8  O    2.315381   1.379474   2.321813   3.333008   2.259192
     9  O    3.440225   3.383717   2.432494   4.479332   4.463739
    10  C    3.568670   3.901953   3.876597   3.611581   4.336248
    11  C    3.573354   3.436790   3.788273   3.953524   3.850358
    12  C    3.838369   4.535514   3.686284   3.942135   5.262223
    13  H    3.958218   4.303125   4.532626   3.727257   4.509375
    14  C    3.806224   3.786286   3.496907   4.432504   4.515279
    15  H    3.957931   3.432027   4.379168   4.343244   3.532295
    16  H    3.495516   4.511604   3.318683   3.432576   5.310215
    17  H    4.910819   5.611352   4.744567   4.926226   6.282202
    18  C    3.932529   4.388136   3.402400   4.412382   5.265302
    19  H    4.344827   4.059872   3.913227   5.128869   4.772834
    20  H    4.565383   5.111925   3.757521   5.099573   6.093156
                    6          7          8          9         10
     6  C    0.000000
     7  H    2.246733   0.000000
     8  O    1.402613   3.340681   0.000000
     9  O    1.187296   2.828700   2.267757   0.000000
    10  C    4.441487   4.231427   4.405979   5.289651   0.000000
    11  C    3.884086   4.362010   3.642098   4.639768   1.348013
    12  C    4.387466   3.662172   4.809165   5.038760   1.500041
    13  H    5.236624   4.901741   5.059764   6.183642   1.080160
    14  C    3.328924   3.900772   3.502092   3.765101   2.291899
    15  H    4.280655   5.116896   3.680177   5.061298   2.168925
    16  H    4.335963   3.081835   4.909563   5.039427   2.180310
    17  H    5.435944   4.610266   5.876876   6.003514   2.155425
    18  C    3.640127   3.425488   4.215847   4.014739   2.350189
    19  H    3.316881   4.382261   3.429126   3.483227   3.320718
    20  H    3.913917   3.535343   4.751219   4.003353   3.395542
                   11         12         13         14         15
    11  C    0.000000
    12  C    2.321694   0.000000
    13  H    2.173382   2.287998   0.000000
    14  C    1.460318   2.322609   3.341943   0.000000
    15  H    1.081060   3.372746   2.630710   2.256233   0.000000
    16  H    3.120727   1.096790   2.706425   3.121812   4.129660
    17  H    3.051174   1.097602   2.682333   3.048672   4.040896
    18  C    2.290401   1.499821   3.396011   1.348170   3.318860
    19  H    2.258278   3.372449   4.333894   1.080665   2.689110
    20  H    3.340040   2.287217   4.410226   2.172602   4.331315
                   16         17         18         19         20
    16  H    0.000000
    17  H    1.745709   0.000000
    18  C    2.179044   2.149617   0.000000
    19  H    4.130824   4.034160   2.167501   0.000000
    20  H    2.706506   2.670412   1.079886   2.627398   0.000000
 Symmetry turned off by external request.
 Stoichiometry    C9H8O3
 Framework group  C1[X(C9H8O3)]
 Deg. of freedom    54
 Full point group                 C1      NOp   1
 Rotational constants (GHZ):           1.3509917           0.7738301           0.6272097
 Standard basis: def2TZVP (5D, 7F)
 The following finite field(s) will be applied:
 An electric field of             -0.0041 -0.0061  0.0017
   420 basis functions,   676 primitive gaussians,   480 cartesian basis functions
    43 alpha electrons       43 beta electrons
       nuclear repulsion energy       663.7476127130 Hartrees.
 NAtoms=   20 NActive=   20 NUniq=   20 SFac= 1.00D+00 NAtFMM=   60 NAOKFM=F Big=F
 Integral buffers will be    131072 words long.
 Raffenetti 2 integral format.
 Two-electron integral symmetry is turned off.
 One-electron integrals computed using PRISM.
   1 Symmetry operations used in ECPInt.
 ECPInt:  NShTT=   13530 NPrTT=   41904 LenC2=   13016 LenP2D=   30819.
 LDataN:  DoStor=T MaxTD1= 6 Len=  172
 NBasis=   420 RedAO= T EigKep=  4.00D-05  NBF=   420
 NBsUse=   420 1.00D-06 EigRej= -1.00D+00 NBFU=   420
 The nuclear repulsion energy is now       661.8580511714 hartrees.
 Initial guess from the checkpoint file:  "checkpoint.chk"
 B after Tr=    -0.002601    0.012684   -0.005117
         Rot=    1.000000   -0.000495   -0.000168   -0.000503 Ang=  -0.08 deg.
 ExpMin= 9.52D-02 ExpMax= 2.70D+04 ExpMxC= 9.22D+02 IAcc=2 IRadAn=         4 AccDes= 0.00D+00
 Harris functional with IExCor=  402 and IRadAn=       4 diagonalized for initial guess.
 HarFok:  IExCor=  402 AccDes= 0.00D+00 IRadAn=         4 IDoV= 1 UseB2=F ITyADJ=14
 ICtDFT=  3500011 ScaDFX=  1.000000  1.000000  1.000000  1.000000
 FoFCou: FMM=F IPFlag=           0 FMFlag=      100000 FMFlg1=           0
         NFxFlg=           0 DoJE=T BraDBF=F KetDBF=T FulRan=T
         wScrn=  0.000000 ICntrl=       500 IOpCl=  0 I1Cent=   200000004 NGrid=           0
         NMat0=    1 NMatS0=      1 NMatT0=    0 NMatD0=    1 NMtDS0=    0 NMtDT0=    0
 Symmetry not used in FoFCou.
 Requested convergence on RMS density matrix=1.00D-08 within 128 cycles.
 Requested convergence on MAX density matrix=1.00D-06.
 Requested convergence on             energy=1.00D-06.
 No special actions if energy rises.
 Integral accuracy reduced to 1.0D-05 until final iterations.
 Initial convergence to 1.0D-05 achieved.  Increase integral accuracy.
 SCF Done:  E(RB3LYP) =  -573.635470472     A.U. after   10 cycles
            NFock= 10  Conv=0.84D-08     -V/T= 2.0048
   1 Symmetry operations used in ECPInt.
 ECPInt:  NShTT=   13530 NPrTT=   41904 LenC2=   13016 LenP2D=   30819.
 LDataN:  DoStor=T MaxTD1= 7 Len=  274
 Calling FoFJK, ICntrl=      2127 FMM=F ISym2X=0 I1Cent= 0 IOpClX= 0 NMat=1 NMatS=1 NMatT=0.
 -------------------------------------------------------------------
 Center     Atomic                   Forces (Hartrees/Bohr)
[...]
 -0.00018276,0.00022744,0.01313971,-0.00056798,-0.01116435,-0.11132783,
 -0.00536430,0.32651917,-0.02110835,0.00303718,-0.03142574,-0.11671299,
 0.00038765,-0.06282064,-0.00019211,-0.00096670,0.00523696,0.00262237,-
 0.00042978,-0.00409728,-0.10133233,0.00111392,0.02194904,-0.05300562,0
 .00118091,-0.01437453,0.00129861,0.00027615,0.00026711,0.37611594,0.00
 195296,0.01629564,0.00111381,0.00027364,-0.06031569,0.00424537,-0.0001
 0868,0.01547973,0.00194906,-0.00000934,0.00226327,0.00011252,0.0018217
 9,0.01446933,-0.00118752,0.00161370,-0.05831196,0.00243227,0.00028809,
 0.00189954,0.00027749,-0.01492329,0.05548614,-0.03286069,0.00027171,-0
 .03177044,-0.05415155,0.00386333,-0.16155441,0.00798044,-0.00017325,-0
 .05776509,0.00187142,0.00022649,-0.00490410,0.04690027,-0.00107283,0.0
 2984269,-0.02638700,0.00430243,-0.17643064,-0.00648992,-0.00001033,-0.
 00323688,0.02424886,-0.00354277,0.38687736,0.00523859,-0.00086434,-0.0
 1164051,0.02325921,-0.00011615,0.01773844,-0.05050917,0.00762907,-0.01
 533980,-0.00152207,-0.00045034,0.00014504,-0.01012395,-0.00006742,-0.0
 0096666,-0.76734403,0.09359607,-0.08666971,-0.00035662,0.00012258,-0.0
 0152041,-0.08851317,0.00897530,0.03882544,0.88968315,0.00031735,0.0009
 6715,0.00252024,-0.00207452,0.00680879,-0.00261643,0.00834936,0.020208
 64,0.00152114,0.00024013,-0.00256232,-0.00035777,0.00093394,-0.0013899
 2,0.00044929,0.09170835,-0.07962070,0.01245022,-0.00002592,-0.00106816
 ,0.00012660,0.01034726,0.01314438,-0.00458920,-0.11082500,0.04478453,-
 0.00206533,-0.00069532,-0.00547733,-0.01309225,0.00038475,-0.01487741,
 -0.03638723,0.00462271,0.01094704,-0.00159607,-0.00021393,0.00186002,0
 .00843294,0.00013975,0.00078648,-0.07724309,0.01122933,-0.10679170,0.0
 0203034,-0.00024563,0.00166899,0.06067356,-0.00624624,0.01825897,0.059
 46510,-0.01006259,0.09328520,0.00017107,0.00075753,-0.00056544,-0.0009
 7352,0.00108882,0.00056120,0.00039316,-0.00108422,0.00032284,0.0001705
 0,-0.00006718,0.00010521,0.00049622,-0.00064798,-0.00026736,-0.0025800
 9,-0.00086858,-0.00041695,-0.00016869,0.00007736,-0.00007948,0.0008294
 7,-0.00019125,-0.00006881,0.00124624,0.00057668,0.00017827,0.74075474,
 -0.00032656,0.00150983,-0.00080856,-0.00034159,0.00010003,0.00039295,0
 .00145374,-0.00093451,0.00042075,0.00007361,-0.00016405,0.00015795,0.0
 0032894,-0.00015204,-0.00003849,-0.00057215,-0.00016606,-0.00147946,-0
 .00002031,0.00002838,-0.00001776,-0.00035635,0.00017831,0.00046046,0.0
 0061945,-0.00009009,0.00040934,-0.11188300,0.16060312,-0.00199843,0.00
 211117,0.00129219,-0.00023531,0.00218871,-0.00203612,0.00367672,-0.000
 65657,-0.00053357,-0.00005867,-0.00026099,0.00024383,-0.00097939,-0.00
 084959,0.00141388,-0.00278237,-0.00037377,-0.00221350,0.00009516,-0.00
 039921,0.00014734,0.00070007,-0.00037525,0.00004087,0.00222080,0.00011
 117,0.00071400,0.12332446,-0.05515563,0.61064503,0.00349113,-0.0033733
 5,-0.00217971,0.00109395,-0.00162542,0.00203488,-0.00560549,-0.0005598
 6,0.00060307,0.00003208,0.00035799,-0.00017993,0.00104230,0.00084438,-
 0.00145360,0.00298934,0.00078918,0.00288877,-0.00008845,0.00049930,-0.
 00014162,-0.00091079,-0.00002058,-0.00017058,-0.00301567,0.00004551,-0
 .00094181,-0.17995548,0.03093622,-0.13757388,0.54190610,0.00023356,0.0
 0054011,0.00021796,-0.00075970,0.00144999,-0.00003814,0.00132612,-0.00
 131470,-0.00012578,-0.00000930,0.00005578,0.00015689,-0.00022835,-0.00
 110503,0.00025717,-0.00142451,-0.00053988,-0.00097862,0.00000377,-0.00
 012155,0.00002722,0.00060893,-0.00032669,-0.00019862,0.00123440,-0.000
 16016,0.00030779,0.02921947,-0.06815387,0.03897541,-0.06679669,0.14365
 835,0.00183861,-0.00124889,-0.00141313,-0.00079768,-0.00177453,0.00286
 718,-0.00296633,-0.00000008,-0.00012371,0.00006035,0.00013737,-0.00019
 747,0.00162156,0.00069758,-0.00209918,0.00128483,-0.00019945,0.0021666
 5,-0.00008429,0.00022243,-0.00015981,0.00001799,0.00033999,-0.00029068
 ,-0.00146906,0.00028949,-0.00057170,-0.15102868,0.04369379,-0.37309359
 ,-0.01249460,-0.03617205,0.84424288,-0.00046409,-0.00041498,0.00091430
 ,-0.00023608,-0.00014237,-0.00087660,-0.00004957,0.00069604,-0.0007033
 9,-0.00008397,-0.00000208,0.00001076,-0.00020263,0.00003188,0.00038773
 ,0.00040556,0.00022195,0.00018277,0.00006729,-0.00018872,0.00013355,0.
 00033857,0.00011136,-0.00009231,-0.00018167,-0.00008932,-0.00000674,-0
 .13322980,0.00343317,0.06712451,0.00653852,-0.00033788,0.00207151,0.41
 759330,0.00024617,-0.00012288,-0.00016538,0.00000114,0.00019519,0.0005
 1558,-0.00016978,-0.00046226,0.00038729,-0.00006631,-0.00003458,0.0000
 7145,0.00015013,-0.00006463,-0.00023161,0.00030254,0.00021495,0.000187
 99,0.00007008,-0.00011085,0.00005004,-0.00013987,-0.00010155,-0.000228
 97,-0.00016925,-0.00014302,-0.00003324,0.00414833,-0.07232222,-0.00638
 240,0.00354884,0.00445801,0.00529884,0.01440732,0.50576325,-0.00075509
 ,0.00017505,0.00032877,-0.00072754,-0.00017991,-0.00076741,0.00095057,
 0.00016830,0.00025722,-0.00010046,-0.00005884,0.00013981,-0.00008228,0
 .00002296,0.00039803,0.00052457,-0.00012975,-0.00134893,0.00024205,-0.
 00013421,-0.00001387,-0.00007839,0.00067448,0.00025126,0.00016496,-0.0
 0014486,0.00034048,0.04981482,-0.00304187,-0.13399535,-0.00567658,0.00
 625487,-0.05411517,0.03127721,-0.00045507,0.56628492,0.00007549,-0.000
 02996,-0.00009956,-0.00025735,0.00000829,0.00011867,-0.00012089,-0.000
 05339,0.00005105,0.00001879,0.00007098,0.00001986,0.00016455,-0.000025
 83,-0.00011186,-0.00010940,-0.00011136,0.00005884,-0.00000669,-0.00001
 875,-0.00001053,0.00017446,0.00003988,-0.00000290,0.00004382,0.0000745
 3,-0.00000735,-0.33105764,0.05782471,-0.02889244,-0.00761492,0.0020874
 7,0.00380089,-0.00802807,0.00188487,-0.00622207,0.34819231,0.00006541,
 0.00000890,0.00029168,0.00040796,0.00001610,-0.00008119,0.00007389,0.0
 0011913,-0.00015065,-0.00001261,-0.00014350,-0.00008976,-0.00031929,0.
 00006205,0.00005174,0.00010519,0.00003021,0.00012446,0.00001209,0.0000
 2350,0.00000140,-0.00018601,-0.00003693,-0.00012614,-0.00007897,0.0000
 5310,-0.00006489,0.06055805,-0.04126780,0.00827767,0.00289675,0.004271
 95,-0.00081813,-0.00180314,-0.00108743,0.00005893,-0.06299713,0.033425
 08,0.00007013,-0.00001901,0.00001033,-0.00021476,-0.00003199,0.0001367
 2,-0.00004607,0.00001331,-0.00003992,-0.00000365,-0.00001877,0.0000228
 3,0.00012504,-0.00003623,-0.00009811,-0.00000607,-0.00000889,0.0000501
 0,0.00000969,0.00002262,0.00000214,0.00007749,0.00001418,-0.00002631,-
 0.00000130,0.00000978,-0.00000583,-0.02565088,0.00795977,-0.06013504,-
 0.02603361,0.00484350,0.00505907,0.01983104,-0.00489807,0.00889446,0.0
 3161452,-0.00859536,0.05251146,-0.00389546,0.00064493,0.00203718,0.001
 13249,-0.00090482,-0.00312116,0.00384770,0.00249221,-0.00021938,-0.000
 05036,-0.00027529,0.00004917,-0.00176807,0.00023733,0.00203928,-0.0002
 5218,0.00109184,-0.00145004,0.00004669,-0.00042008,0.00016637,-0.00075
 549,-0.00014034,0.00027438,0.00118331,-0.00049786,0.00033462,-0.053270
 32,0.01199954,-0.04070584,-0.21771531,0.02304040,0.03437262,-0.0017835
 5,-0.00044463,-0.01498936,-0.00032908,0.00125940,-0.00223038,0.5943909
 0,-0.00032456,-0.00152868,0.00022263,0.00070586,-0.00070988,-0.0010871
 8,-0.00099183,-0.00062034,0.00051507,-0.00000261,0.00007498,0.00001245
 ,-0.00056277,0.00013202,0.00059673,0.00043530,0.00127089,-0.00001095,0
 .00010923,0.00007330,0.00008346,-0.00075854,-0.00068688,0.00003218,0.0
 0013466,-0.00112217,-0.00005326,0.01062891,0.00804987,0.00746305,0.021
 52333,-0.06178877,-0.00443858,0.00316248,0.00470335,0.00688027,0.00169
 461,0.00688202,0.00088983,-0.06936762,0.14446097,0.00454592,-0.0002565
 6,-0.00307246,-0.00031351,0.00052121,0.00464245,-0.00506579,-0.0027915
 6,-0.00032034,0.00006028,0.00015625,-0.00019849,0.00190659,-0.00008504
 ,-0.00256519,0.00236304,-0.00301993,0.00348542,-0.00022429,0.00058658,
 -0.00026815,0.00042223,0.00047375,-0.00068246,-0.00345449,0.00163220,-
 0.00121058,-0.01432596,0.00381329,0.01709617,0.00955702,-0.00104105,-0
 .11088201,-0.02164547,0.00952829,-0.04690700,-0.00247064,0.00101710,-0
 .00447826,0.10590948,-0.05114375,0.79496512,0.00015801,0.00008842,-0.0
 0015141,0.00032995,0.00013191,0.00045612,-0.00017862,-0.00011606,-0.00
 005793,0.00000746,-0.00000822,-0.00002628,-0.00004326,-0.00004065,-0.0
 0017289,-0.00021593,-0.00012733,0.00044098,-0.00002438,-0.00000736,-0.
 00002707,-0.00003863,-0.00014013,-0.00029195,0.00001027,0.00008048,-0.
 00011145,0.01227795,-0.00054136,-0.01553289,-0.10396630,0.00588612,0.1
 0391845,-0.00176798,0.00252342,-0.00264236,0.00021701,-0.00090233,0.00
 093777,-0.00093771,-0.00041036,0.02431286,0.09856693,-0.00025406,0.000
 05468,0.00013681,0.00057989,-0.00081622,-0.00089811,0.00020107,0.00010
 580,0.00005303,-0.00000102,-0.00001794,0.00000350,-0.00027569,0.000536
 73,0.00044324,0.00064263,0.00006078,-0.00053993,0.00001286,-0.00003911
 ,0.00002515,-0.00042343,0.00020945,0.00040808,-0.00031027,-0.00002731,
 0.00007861,-0.00191844,0.00399664,0.00404329,0.00683469,-0.03799332,-0
 .00650532,0.00223783,0.01114597,0.00159559,-0.00100203,-0.00483949,-0.
 00061827,-0.00011797,0.00073421,-0.00321420,-0.00704212,0.02579994,-0.
 00017470,0.00000901,0.00013868,0.00052794,-0.00025268,-0.00064654,0.00
 020582,0.00006297,0.00001986,0.00000915,-0.00000470,-0.00001022,-0.000
 37127,0.00027319,0.00038584,0.00026294,0.00008379,-0.00036224,-0.00000
 672,0.00001580,0.00001608,-0.00024466,0.00006327,0.00024803,-0.0000906
 8,-0.00005816,0.00006825,0.01434933,-0.00138262,-0.01502359,0.10300429
 ,-0.00546669,-0.29737655,-0.00193889,0.00072901,-0.00248627,-0.0004936
 8,-0.00013859,0.00074579,-0.00274116,0.00029602,0.00234787,-0.11265649
 ,0.00565331,0.31365881,0.00028940,0.00000484,0.00024684,-0.00024153,0.
 00020609,-0.00004173,-0.00004418,-0.00009414,-0.00038319,-0.00002144,-
 0.00009859,0.00001792,0.00003667,-0.00010464,-0.00000052,-0.00021825,-
 0.00028028,-0.00002571,-0.00002750,0.00025569,0.00001444,0.00021163,0.
 00003479,0.00010106,0.00000439,0.00013632,0.00005294,0.00796157,0.0160
 7462,0.01490565,-0.00373523,-0.00221533,0.00315498,-0.05738229,-0.0406
 6436,-0.04104770,-0.00014093,-0.00070623,-0.00084899,-0.00413951,0.003
 17454,-0.00231680,0.00021963,-0.00170622,0.00031507,0.05976991,0.00005
 557,0.00001605,-0.00005316,-0.00004011,-0.00009611,0.00025394,-0.00005
 650,-0.00015962,0.00014713,-0.00001906,-0.00002129,-0.00000738,0.00009
 937,0.00002977,-0.00012346,0.00016909,-0.00009924,0.00012645,0.0000393
 2,-0.00013443,0.00002023,-0.00001422,-0.00004340,0.00003779,-0.0001247
 3,0.00004221,-0.00004984,0.00023646,-0.00089133,0.00161177,-0.00025958
 ,0.00040528,-0.00004497,-0.04001372,-0.15068292,-0.12198773,0.00037080
 ,0.00021612,-0.00052091,0.00151302,-0.00052597,0.00032040,-0.00004257,
 -0.00022326,0.00019567,0.04490461,0.17030371,0.00039161,-0.00021845,-0
 .00001844,0.00015834,-0.00014443,-0.00053739,-0.00037335,-0.00017864,0
 .00013492,0.00014137,0.00018586,-0.00002874,-0.00005886,0.00008833,0.0
 0020891,-0.00042935,-0.00006529,-0.00028673,-0.00015556,0.00023050,0.0
 0012921,0.00013430,0.00004142,0.00044860,0.00015053,0.00004658,0.00010
 671,-0.00686557,-0.01348281,-0.01609249,0.00165437,-0.00044609,-0.0023
 4092,-0.04154432,-0.12540991,-0.16080641,0.00059819,0.00074622,0.00028
 806,-0.00091701,-0.00114509,-0.00087586,-0.00004879,0.00177895,-0.0006
 6704,0.04660493,0.13373694,0.18059491,0.00001364,0.00001415,0.00019418
 ,-0.00022005,0.00018328,-0.00010449,-0.00001479,0.00002252,-0.00018099
 ,0.00001733,0.00001817,0.00000372,0.00002012,-0.00010722,0.00003180,-0
 .00015870,-0.00024688,0.00003790,-0.00000263,-0.00001193,0.00001330,0.
 00021841,0.00001867,0.00000348,0.00004395,0.00011094,0.00001167,-0.000
 01442,-0.01992029,0.01146832,-0.00316988,0.00217026,0.00287361,-0.0388
 0236,-0.00578466,0.00496073,0.00005536,0.00090829,-0.00036779,-0.00415
 087,-0.00089880,-0.00259770,0.00068693,0.00150859,0.00031132,0.0004115
 2,-0.00737209,0.00308864,0.04369519,0.00006540,-0.00001895,0.00003015,
 0.00004426,-0.00007838,-0.00017293,-0.00001286,-0.00002870,0.00007082,
 0.00003713,0.00003803,-0.00000628,-0.00004413,0.00002243,0.00008120,-0
 .00010817,-0.00001106,-0.00013142,-0.00005484,0.00007257,0.00003670,0.
 00001267,0.00003406,0.00013024,0.00007014,-0.00001891,0.00003709,-0.00
 082218,0.00186710,0.00014872,-0.00120885,-0.00003269,-0.00164272,-0.00
 688771,-0.23550330,0.10702520,-0.00020649,0.00031862,0.00062395,0.0017
 5863,-0.00000617,-0.00140378,-0.00019320,-0.00049464,-0.00013470,-0.00
 139622,-0.02184858,0.00910002,0.00754433,0.26028032,0.00000368,-0.0000
 2650,0.00007559,0.00007199,-0.00004464,-0.00020006,0.00006264,-0.00005
 318,0.00007112,0.00003703,0.00004017,-0.00000173,-0.00008165,0.0000036
 9,0.00011587,-0.00013420,0.00005075,-0.00015199,-0.00005062,0.00005826
 ,0.00004789,-0.00000265,-0.00002588,0.00014586,0.00012131,-0.00005182,
 0.00004524,0.00011953,0.01899720,-0.01334786,0.00121918,0.00019007,-0.
 00193435,0.00578388,0.11225666,-0.09181327,0.00010229,-0.00087673,0.00
 032998,-0.00003755,0.00098766,-0.00062416,-0.00062316,-0.00185120,-0.0
 0072823,-0.00111736,-0.02017983,0.00956642,-0.00443479,-0.11800153,0.1
 0660045,-0.00106603,0.00038708,0.00027424,-0.00102824,0.00042316,-0.00
 010525,0.00105778,0.00050701,0.00022521,-0.00004592,-0.00008326,0.0001
 2572,0.00016445,-0.00034333,0.00010808,-0.00084182,-0.00020612,-0.0007
 0858,0.00020614,-0.00013385,-0.00005412,0.00038167,0.00009998,0.000017
 45,0.00064957,0.00031248,0.00016967,-0.05554944,0.00942379,0.00732398,
 -0.02367561,0.00382969,0.03287906,-0.17238164,0.01939887,-0.03087850,-
 0.00063717,0.00022026,0.00291885,-0.10980384,0.00237661,0.04709231,-0.
 00593891,0.00113626,-0.00086073,-0.00366417,0.00115612,-0.00230358,0.0
 0131014,0.00094601,-0.00066079,0.64318433,-0.00187999,-0.00076895,0.00
 180565,-0.00008021,-0.00029897,-0.00269822,0.00099580,0.00186615,-0.00
 111437,0.00001460,-0.00002474,-0.00000110,-0.00074370,0.00008385,0.001
 24469,0.00088907,-0.00023727,-0.00056098,0.00006855,-0.00048102,0.0003
 1974,0.00043556,0.00028412,0.00032757,-0.00026207,-0.00041287,0.000422
 70,0.00902881,0.00655338,-0.00106906,0.00294991,0.00941391,-0.00121209
 ,0.02014128,-0.07592506,0.00588538,-0.00027172,-0.00055361,0.00021340,
 0.00136115,-0.06220468,0.01938314,0.00110778,0.00191954,0.00017662,-0.
 02054496,0.00436866,-0.00641396,0.02517289,-0.00522344,0.01010998,-0.0
 5841991,0.15130213,-0.00400442,-0.00077539,0.00247980,0.00160392,-0.00
 081897,-0.00466952,0.00374952,0.00272645,0.00001062,-0.00002712,-0.000
 15758,0.00010070,-0.00204997,0.00052035,0.00246994,-0.00103958,0.00287
 628,-0.00240691,0.00018669,-0.00062028,0.00030679,-0.00080745,-0.00043
 318,0.00051858,0.00209650,-0.00141565,0.00080663,0.01109893,-0.0014612
 9,-0.01151244,0.05797384,-0.00616555,-0.01423544,-0.04927828,0.0081649
 5,-0.09205944,0.00216050,0.00025616,-0.00507700,0.03374252,0.01720420,
 -0.45001817,0.00170121,-0.00052213,-0.00041627,-0.01974562,0.00677571,
 -0.00947915,-0.01515843,0.00385918,-0.00788303,-0.15198221,-0.02473385
 ,0.72620274,-0.00010752,0.00009745,0.00016834,-0.00074965,0.00007488,-
 0.00033238,0.00022507,-0.00005772,0.00003002,0.00000854,0.00000697,0.0
 0003532,0.00019169,-0.00005238,0.00005143,-0.00003667,-0.00041123,-0.0
 0079487,0.00001982,-0.00000569,0.00001834,0.00028817,0.00032903,0.0004
 2355,0.00009449,0.00021668,0.00018906,-0.00502875,0.00102875,0.0005334
 4,-0.00823313,0.00162102,-0.01925287,-0.00019559,0.00112133,0.00229579
 ,-0.00032355,0.00027422,-0.00118315,-0.20457301,0.02891462,-0.14120490
 ,0.00043263,-0.00014494,0.00061753,0.00059236,-0.00010158,0.00005482,0
 .00003538,-0.00002738,-0.00021260,0.00927848,-0.00108089,0.00592635,0.
 20794794,-0.00011131,0.00006526,0.00012868,-0.00089888,0.00008651,-0.0
 0010802,0.00025636,0.00010034,-0.00005248,0.00001037,-0.00004407,0.000
 02764,0.00035673,-0.00003558,-0.00014758,-0.00097970,-0.00090871,-0.00
 053666,0.00000513,-0.00001518,0.00001564,0.00065943,0.00017459,0.00012
 673,0.00041150,0.00049318,0.00024838,0.00085364,0.00190135,-0.00039906
 ,0.00171327,0.00023434,0.00283694,0.00182069,0.01120880,0.00097895,0.0
 0014094,0.00051116,0.00019249,0.02742137,-0.04254995,0.02489967,-0.000
 13914,-0.00060752,-0.00009653,0.00198521,-0.00073807,0.00101769,-0.002
 28309,0.00008201,-0.00111317,0.00056678,0.00396872,0.00052475,-0.03117
 326,0.03095272,-0.00005492,-0.00000277,0.00006463,-0.00028820,0.000020
 54,-0.00003043,0.00008573,0.00002330,-0.00003541,0.00001653,0.00000558
 ,-0.00000508,0.00011262,-0.00002255,-0.00006340,-0.00083725,-0.0001451
 6,-0.00003448,-0.00001698,0.00000463,-0.00000253,0.00030730,0.00003493
 ,-0.00002427,0.00051984,0.00018576,0.00007984,0.00308913,-0.00039408,-
 0.00098623,0.00749187,-0.00130654,0.00998633,0.00117497,0.00045733,-0.
 00412778,0.00025421,-0.00014301,0.00073572,-0.13968898,0.02510302,-0.1
 9528962,-0.00085598,0.00012074,-0.00008227,-0.00064362,0.00032453,-0.0
 0049216,-0.00074803,0.00001887,-0.00053590,-0.02385553,0.00413025,-0.0
 1160466,0.15340091,-0.02808398,0.20153861,-0.00004950,0.00006170,-0.00
 009307,-0.00009474,0.00004689,0.00015316,0.00001102,0.00002356,0.00014
 002,0.00000475,0.00001504,0.00000216,0.00007707,-0.00002654,-0.0001001
 9,-0.00018819,-0.00008742,0.00018474,-0.00005526,-0.00013740,-0.000056
 79,0.00009019,-0.00002559,-0.00013062,0.00010937,0.00006261,-0.0000868
 4,-0.00247278,0.00076506,-0.00261390,0.00059283,0.00051056,0.00019905,
 -0.01015396,-0.00036419,0.01296963,-0.00031611,0.00022420,0.00100211,0
 .00282368,0.00045694,-0.00255021,0.00020498,0.00004235,-0.00002443,0.0
 0011794,-0.00050019,-0.00028070,0.00002573,0.00048347,-0.00016614,-0.2
 8159978,0.02111806,0.12385309,0.00013329,-0.00061604,0.00053640,0.2907
 3949,-0.00002749,0.00007158,-0.00012281,-0.00004288,-0.00000183,0.0002
 1879,-0.00001740,-0.00002613,0.00030315,0.00000774,0.00000830,-0.00000
 592,0.00006701,0.00003390,-0.00013377,-0.00077574,0.00014471,0.0003497
 1,-0.00012237,-0.00010628,-0.00009442,0.00013852,-0.00009546,-0.000244
 90,0.00047538,0.00011367,-0.00021550,0.00030877,-0.00064607,0.00099057
 ,0.00090496,0.00704896,0.00054037,0.00361592,-0.00112882,-0.00358774,0
 .00051959,0.00199081,-0.00003531,-0.00065121,0.00536188,0.00062398,-0.
 00010731,0.00049508,-0.00002399,0.00103426,0.00008243,0.00053217,-0.00
 104715,0.00054969,-0.00046997,0.01840236,-0.03362986,-0.00580416,-0.00
 062987,-0.00487989,-0.00033141,-0.02205308,0.02461333,0.00004900,-0.00
 000346,-0.00006736,0.00014159,-0.00003131,0.00003289,-0.00009630,-0.00
 003521,0.00004566,-0.00000486,0.00001326,0.00000080,-0.00005633,0.0000
 2202,0.00002184,0.00047877,-0.00002500,-0.00004377,-0.00001333,0.00000
 114,0.00004234,-0.00018358,0.00003830,0.00005307,-0.00029534,-0.000045
 99,-0.00003328,-0.00369459,0.00095707,-0.00262352,0.00041865,0.0007082
 6,-0.00548839,-0.01280622,0.00015722,0.01154596,-0.00046800,0.00025910
 ,0.00107381,0.02717523,-0.00240776,-0.00514428,0.00143123,-0.00019113,
 0.00017002,0.00075740,-0.00058330,0.00014761,0.00059356,0.00033120,0.0
 0022216,0.12027472,-0.00621549,-0.12353377,-0.00076413,-0.00046008,0.0
 0090908,-0.13293747,0.00751116,0.12266912\\-0.00291539,-0.00615171,0.0
 0000973,0.00295423,0.00418271,-0.00001810,-0.00000424,0.00196751,-0.00
 000259,0.00000191,0.00001962,-0.00000184,0.00000670,0.00000961,0.00000
 450,-0.00001102,0.00004106,-0.00001412,-0.00000217,-0.00001401,-0.0000
 0334,0.00000151,-0.00001909,0.00002931,-0.00002283,-0.00001904,0.00001
 116,-0.00001027,0.00002602,-0.00001192,0.00000611,-0.00004055,-0.00000
 341,-0.00000052,-0.00002273,0.00000899,0.00000254,0.00001142,-0.000003
 10,-0.00000816,-0.00001023,0.00000337,-0.00000400,-0.00000160,-0.00000
 101,-0.00000772,0.00000581,-0.00001248,0.00000438,-0.00000593,0.000005
 76,0.00000778,0.00001478,-0.00000991,-0.00000375,-0.00000585,0.0000022
 4,0.00000492,0.00001221,0.00000677\\\@


 BLACK HOLES SUCK.
 Job cpu time:       0 days  2 hours 47 minutes 55.7 seconds.
 Elapsed time:       0 days  0 hours 14 minutes  2.4 seconds.
 File lengths (MBytes):  RWF=    289 Int=      0 D2E=      0 Chk=     32 Scr=      1
 Normal termination of Gaussian 16 at Sun Jun 12 04:15:07 2022.
