 Entering Gaussian System, Link 0=g16
 Input=int_zmat_field_N100.gjf
 Output=int_zmat_field_N100.out
 Initial command:
 /software/gaussian/g16-a03/l1.exe "/local_scratch/11172506/Gau-5918.inp" -scrdir="/local_scratch/11172506/"
 Entering Link 1 = /software/gaussian/g16-a03/l1.exe PID=      5919.
  
 Copyright (c) 1988,1990,1992,1993,1995,1998,2003,2009,2016,
            Gaussian, Inc.  All Rights Reserved.
  
 This is part of the Gaussian(R) 16 program.  It is based on
 the Gaussian(R) 09 system (copyright 2009, Gaussian, Inc.),
 the Gaussian(R) 03 system (copyright 2003, Gaussian, Inc.),
 the Gaussian(R) 98 system (copyright 1998, Gaussian, Inc.),
 the Gaussian(R) 94 system (copyright 1995, Gaussian, Inc.),
 the Gaussian 92(TM) system (copyright 1992, Gaussian, Inc.),
 the Gaussian 90(TM) system (copyright 1990, Gaussian, Inc.),
 the Gaussian 88(TM) system (copyright 1988, Gaussian, Inc.),
 the Gaussian 86(TM) system (copyright 1986, Carnegie Mellon
 University), and the Gaussian 82(TM) system (copyright 1983,
 Carnegie Mellon University). Gaussian is a federally registered
 trademark of Gaussian, Inc.
  
 This software contains proprietary and confidential information,
 including trade secrets, belonging to Gaussian, Inc.
  
 This software is provided under written license and may be
 used, copied, transmitted, or stored only in accord with that
 written license.
  
 The following legend is applicable only to US Government
 contracts under FAR:
  
                    RESTRICTED RIGHTS LEGEND
  
 Use, reproduction and disclosure by the US Government is
 subject to restrictions as set forth in subparagraphs (a)
 and (c) of the Commercial Computer Software - Restricted
 Rights clause in FAR 52.227-19.
  
 Gaussian, Inc.
 340 Quinnipiac St., Bldg. 40, Wallingford CT 06492
  
  
 ---------------------------------------------------------------
 Warning -- This program may not be used in any manner that
 competes with the business of Gaussian, Inc. or will provide
 assistance to any competitor of Gaussian, Inc.  The licensee
 of this program is prohibited from giving any competitor of
 Gaussian, Inc. access to this program.  By using this program,
 the user acknowledges that Gaussian, Inc. is engaged in the
 business of creating and licensing software in the field of
 computational chemistry and represents and warrants to the
 licensee that it is not a competitor of Gaussian, Inc. and that
 it will not use this program in any manner prohibited above.
 ---------------------------------------------------------------
  

 Cite this work as:
 Gaussian 16, Revision A.03,
 M. J. Frisch, G. W. Trucks, H. B. Schlegel, G. E. Scuseria, 
 M. A. Robb, J. R. Cheeseman, G. Scalmani, V. Barone, 
 G. A. Petersson, H. Nakatsuji, X. Li, M. Caricato, A. V. Marenich, 
 J. Bloino, B. G. Janesko, R. Gomperts, B. Mennucci, H. P. Hratchian, 
 J. V. Ortiz, A. F. Izmaylov, J. L. Sonnenberg, D. Williams-Young, 
 F. Ding, F. Lipparini, F. Egidi, J. Goings, B. Peng, A. Petrone, 
 T. Henderson, D. Ranasinghe, V. G. Zakrzewski, J. Gao, N. Rega, 
 G. Zheng, W. Liang, M. Hada, M. Ehara, K. Toyota, R. Fukuda, 
 J. Hasegawa, M. Ishida, T. Nakajima, Y. Honda, O. Kitao, H. Nakai, 
 T. Vreven, K. Throssell, J. A. Montgomery, Jr., J. E. Peralta, 
 F. Ogliaro, M. J. Bearpark, J. J. Heyd, E. N. Brothers, K. N. Kudin, 
 V. N. Staroverov, T. A. Keith, R. Kobayashi, J. Normand, 
 K. Raghavachari, A. P. Rendell, J. C. Burant, S. S. Iyengar, 
 J. Tomasi, M. Cossi, J. M. Millam, M. Klene, C. Adamo, R. Cammi, 
 J. W. Ochterski, R. L. Martin, K. Morokuma, O. Farkas, 
 J. B. Foresman, and D. J. Fox, Gaussian, Inc., Wallingford CT, 2016.
 
 ******************************************
 Gaussian 16:  ES64L-G16RevA.03 25-Dec-2016
                10-Jun-2022 
 ******************************************
 %nprocshared=12
 Will use up to   12 processors via shared memory.
 %chk=checkpoint.chk
 %mem=12GB
 ----------------------------------------------------------------------
 # Opt=(Z-matrix, MaxStep=10) B3LYP/Def2TZVP geom=allcheckpoint guess=r
 ead Field=read NoSymm freq=noraman pop=none
 ----------------------------------------------------------------------
 1/8=10,10=7,18=40,26=3,29=7,38=1/1,3;
 2/12=2,15=1,29=3,40=1/2;
 3/5=44,7=101,11=2,14=-6,25=1,30=1,71=1,74=-5,116=-2/1,2,3;
 4/5=1/1;
 5/5=2,38=6/2;
 7/29=1,30=1/1,2,3,16;
 1/8=10,10=7,18=40,26=3/3(2);
 2/15=1,29=3/2;
 99//99;
 2/15=1,29=3/2;
 3/5=44,7=101,11=2,14=-2,25=1,30=1,71=1,74=-5/1,2,3;
 4/5=5,16=3,69=1/1;
 5/5=2,38=5/2;
 7/30=1/1,2,3,16;
 1/8=10,18=40,26=3/3(-5);
 2/15=1,29=3/2;
 99/9=1/99;
 Structure from the checkpoint file:  "checkpoint.chk"
 ------------------
 int_zmat_initalOpt
 ------------------
 Charge =  0 Multiplicity = 1
 Z-Matrix found in chk file.
 C
 C,1,R2
 S,1,R3,2,A3
 C,1,R4,2,A4,3,D4,0
 C,3,R5,1,A5,2,D5,0
 O,3,R6,1,A6,5,D6,0
 H,2,R7,1,A7,3,D7,0
 C,2,R8,1,A8,7,D8,0
 C,4,R9,1,A9,2,D9,0
 H,4,R10,1,A10,9,D10,0
 C,5,R11,3,A11,1,D11,0
 H,5,R12,3,A12,11,D12,0
 H,5,R13,3,A13,11,D13,0
 H,8,R14,2,A14,1,D14,0
 C,8,R15,2,A15,14,D15,0
 H,9,R16,4,A16,1,D16,0
 C,11,R17,5,A17,3,D17,0
 H,11,R18,5,A18,17,D18,0
 H,15,R19,8,A19,2,D19,0
 H,17,R20,11,A20,5,D20,0
 H,17,R21,11,A21,20,D21,0
      Variables:
 R2=1.38894914
 R3=1.82134644
 R4=1.39069953
 R5=1.87023674
 R6=1.48040429
 R7=1.08321933
 R8=1.39086761
 R9=1.39019236
 R10=1.08436796
 R11=1.48982297
 R12=1.09270856
 R13=1.09085288
 R14=1.08306087
 R15=1.39156888
 R16=1.08418403
 R17=1.32817081
 R18=1.08578331
 R19=1.08387749
 R20=1.08189358
 R21=1.08340525
 A3=117.58118581
 A4=120.97666853
 A5=96.5909929
 A6=106.14223778
 A7=118.75417384
 A8=119.29688372
 A9=119.4248906
 A10=120.1684742
 A11=109.50843782
 A12=106.30390737
 A13=104.90242895
 A14=119.58885213
 A15=120.19877452
 A16=119.77804021
 A17=123.8184957
 A18=116.49080352
 A19=119.91723747
 A20=121.47110686
 A21=121.77421623
 D4=176.86161886
 D5=-100.78240041
 D6=109.0143753
 D7=0.84260912
 D8=-178.67583116
 D9=1.10748784
 D10=-178.90169681
 D11=-178.18199246
 D12=122.31715001
 D13=-121.02351762
 D14=-180.42082963
 D15=-179.34689136
 D16=180.46181281
 D17=-97.92618103
 D18=176.69196637
 D19=179.20265519
 D20=177.43852902
 D21=-178.82178988
 Recover connectivity data from disk.

 GradGradGradGradGradGradGradGradGradGradGradGradGradGradGradGradGradGrad
 Berny optimization.
 Initialization pass.
                       ----------------------------
                       !    Initial Parameters    !
                       ! (Angstroms and Degrees)  !
 ----------------------                            ----------------------
 !      Name          Value   Derivative information (Atomic Units)     !
 ------------------------------------------------------------------------
 !       R2          1.3889   estimate D2E/DX2                          !
 !       R3          1.8213   estimate D2E/DX2                          !
 !       R4          1.3907   estimate D2E/DX2                          !
 !       R5          1.8702   estimate D2E/DX2                          !
 !       R6          1.4804   estimate D2E/DX2                          !
 !       R7          1.0832   estimate D2E/DX2                          !
 !       R8          1.3909   estimate D2E/DX2                          !
 !       R9          1.3902   estimate D2E/DX2                          !
 !       R10         1.0844   estimate D2E/DX2                          !
 !       R11         1.4898   estimate D2E/DX2                          !
 !       R12         1.0927   estimate D2E/DX2                          !
 !       R13         1.0909   estimate D2E/DX2                          !
 !       R14         1.0831   estimate D2E/DX2                          !
 !       R15         1.3916   estimate D2E/DX2                          !
 !       R16         1.0842   estimate D2E/DX2                          !
 !       R17         1.3282   estimate D2E/DX2                          !
 !       R18         1.0858   estimate D2E/DX2                          !
 !       R19         1.0839   estimate D2E/DX2                          !
 !       R20         1.0819   estimate D2E/DX2                          !
 !       R21         1.0834   estimate D2E/DX2                          !
 !       A3        117.5812   estimate D2E/DX2                          !
 !       A4        120.9767   estimate D2E/DX2                          !
 !       A5         96.591    estimate D2E/DX2                          !
 !       A6        106.1422   estimate D2E/DX2                          !
 !       A7        118.7542   estimate D2E/DX2                          !
 !       A8        119.2969   estimate D2E/DX2                          !
 !       A9        119.4249   estimate D2E/DX2                          !
 !       A10       120.1685   estimate D2E/DX2                          !
 !       A11       109.5084   estimate D2E/DX2                          !
 !       A12       106.3039   estimate D2E/DX2                          !
 !       A13       104.9024   estimate D2E/DX2                          !
 !       A14       119.5889   estimate D2E/DX2                          !
 !       A15       120.1988   estimate D2E/DX2                          !
 !       A16       119.778    estimate D2E/DX2                          !
 !       A17       123.8185   estimate D2E/DX2                          !
 !       A18       116.4908   estimate D2E/DX2                          !
 !       A19       119.9172   estimate D2E/DX2                          !
 !       A20       121.4711   estimate D2E/DX2                          !
 !       A21       121.7742   estimate D2E/DX2                          !
 !       D4        176.8616   estimate D2E/DX2                          !
 !       D5       -100.7824   estimate D2E/DX2                          !
 !       D6        109.0144   estimate D2E/DX2                          !
 !       D7          0.8426   estimate D2E/DX2                          !
 !       D8       -178.6758   estimate D2E/DX2                          !
 !       D9          1.1075   estimate D2E/DX2                          !
 !       D10      -178.9017   estimate D2E/DX2                          !
 !       D11      -178.182    estimate D2E/DX2                          !
 !       D12       122.3172   estimate D2E/DX2                          !
 !       D13      -121.0235   estimate D2E/DX2                          !
 !       D14      -180.4208   estimate D2E/DX2                          !
 !       D15      -179.3469   estimate D2E/DX2                          !
 !       D16       180.4618   estimate D2E/DX2                          !
 !       D17       -97.9262   estimate D2E/DX2                          !
 !       D18       176.692    estimate D2E/DX2                          !
 !       D19       179.2027   estimate D2E/DX2                          !
 !       D20       177.4385   estimate D2E/DX2                          !
 !       D21      -178.8218   estimate D2E/DX2                          !
 ------------------------------------------------------------------------
 Trust Radius=1.00D-01 FncErr=1.00D-07 GrdErr=1.00D-06 EigMax=2.50D+02 EigMin=1.00D-04
 Number of steps in this run=     67 maximum allowed number of steps=    114.
 GradGradGradGradGradGradGradGradGradGradGradGradGradGradGradGradGradGrad

 ---------------------------------------------------------------------------------------------------
                            Z-MATRIX (ANGSTROMS AND DEGREES)
   CD    Cent   Atom    N1       Length/X        N2       Alpha/Y        N3        Beta/Z          J
 ---------------------------------------------------------------------------------------------------
      1      1  C 
      2      2  C        1   1.388949(     1)
      3      3  S        1   1.821346(     2)      2  117.581(    21)
      4      4  C        1   1.390700(     3)      2  120.977(    22)      3  176.862(    40)      0
      5      5  C        3   1.870237(     4)      1   96.591(    23)      2 -100.782(    41)      0
      6      6  O        3   1.480404(     5)      1  106.142(    24)      5  109.014(    42)      0
      7      7  H        2   1.083219(     6)      1  118.754(    25)      3    0.843(    43)      0
      8      8  C        2   1.390868(     7)      1  119.297(    26)      7 -178.676(    44)      0
      9      9  C        4   1.390192(     8)      1  119.425(    27)      2    1.107(    45)      0
     10     10  H        4   1.084368(     9)      1  120.168(    28)      9 -178.902(    46)      0
     11     11  C        5   1.489823(    10)      3  109.508(    29)      1 -178.182(    47)      0
     12     12  H        5   1.092709(    11)      3  106.304(    30)     11  122.317(    48)      0
     13     13  H        5   1.090853(    12)      3  104.902(    31)     11 -121.024(    49)      0
     14     14  H        8   1.083061(    13)      2  119.589(    32)      1 -180.421(    50)      0
     15     15  C        8   1.391569(    14)      2  120.199(    33)     14 -179.347(    51)      0
     16     16  H        9   1.084184(    15)      4  119.778(    34)      1  180.462(    52)      0
     17     17  C       11   1.328171(    16)      5  123.818(    35)      3  -97.926(    53)      0
     18     18  H       11   1.085783(    17)      5  116.491(    36)     17  176.692(    54)      0
     19     19  H       15   1.083877(    18)      8  119.917(    37)      2  179.203(    55)      0
     20     20  H       17   1.081894(    19)     11  121.471(    38)      5  177.439(    56)      0
     21     21  H       17   1.083405(    20)     11  121.774(    39)     20 -178.822(    57)      0
 ---------------------------------------------------------------------------------------------------
                         Z-Matrix orientation:                         
 ---------------------------------------------------------------------
 Center     Atomic      Atomic             Coordinates (Angstroms)
 Number     Number       Type             X           Y           Z
 ---------------------------------------------------------------------
      1          6           0        0.000000    0.000000    0.000000
      2          6           0        0.000000    0.000000    1.388949
      3         16           0        1.614361    0.000000   -0.843293
      4          6           0       -1.190565   -0.065279   -0.715778
      5          6           0        1.643706    1.825075   -1.250756
      6          8           0        2.630800   -0.203609    0.213586
      7          1           0        0.949547    0.013965    1.910035
      8          6           0       -1.212103   -0.045860    2.069549
      9          6           0       -2.398702   -0.108082   -0.029330
     10          1           0       -1.173675   -0.100490   -1.799442
     11          6           0        2.881060    2.143985   -2.016799
     12          1           0        0.729654    2.028383   -1.813951
     13          1           0        1.608604    2.328979   -0.283901
     14          1           0       -1.217369   -0.052982    3.152574
     15          6           0       -2.410019   -0.096063    1.363193
     16          1           0       -3.329930   -0.166606   -0.581457
     17          6           0        3.980475    2.648661   -1.468505
     18          1           0        2.875626    1.891195   -3.072732
     19          1           0       -3.351407   -0.144742    1.898178
     20          1           0        4.872453    2.827995   -2.053918
     21          1           0        4.035236    2.883146   -0.412198
 ---------------------------------------------------------------------
                    Distance matrix (angstroms):
                    1          2          3          4          5
     1  C    0.000000
     2  C    1.388949   0.000000
     3  S    1.821346   2.754825   0.000000
     4  C    1.390700   2.419004   2.808582   0.000000
     5  C    2.756276   3.605650   1.870237   3.448584   0.000000
     6  O    2.647297   2.888605   1.480404   3.935185   2.689649
     7  H    2.133088   1.083219   2.832487   3.388399   3.708446
     8  C    2.398819   1.390868   4.059020   2.785478   4.762401
     9  C    2.401314   2.788721   4.096204   1.390192   4.644355
    10  H    2.150721   3.399037   2.949146   1.084368   3.456369
    11  C    4.118818   4.949374   2.752875   4.811615   1.489823
    12  H    2.817295   3.860738   2.416448   3.045759   1.092709
    13  H    2.844705   3.287883   2.395223   3.708683   1.090853
    14  H    3.379869   2.143634   4.897800   3.868464   5.576931
    15  C    2.770508   2.412070   4.590581   2.410422   5.191934
    16  H    3.384418   3.872814   4.954021   2.145971   5.399241
    17  C    5.001609   5.569976   3.606216   5.888270   2.487207
    18  H    4.613840   5.634930   3.183992   5.090867   2.200362
    19  H    3.854343   3.392962   5.674104   3.392391   6.224718
    20  H    5.996410   6.602400   4.480886   6.849952   3.475015
    21  H    4.976501   5.276342   3.789328   6.007859   2.746290
                    6          7          8          9         10
     6  O    0.000000
     7  H    2.398309   0.000000
     8  C    4.270525   2.168352   0.000000
     9  C    5.036270   3.871279   2.411884   0.000000
    10  H    4.305455   4.275674   3.869568   2.152683   0.000000
    11  C    3.247838   4.867007   6.184469   6.074349   4.639589
    12  H    3.564694   4.239610   4.811910   4.187596   2.855691
    13  H    2.776036   3.256838   4.374354   4.697080   3.992525
    14  H    4.844454   2.498781   1.083061   3.394569   4.952437
    15  C    5.171365   3.405558   1.391569   1.392621   3.395707
    16  H    6.013631   4.955205   3.395233   1.084184   2.477357
    17  C    3.575822   5.248112   6.836749   7.096812   5.850864
    18  H    3.904872   5.662308   6.848705   6.409206   4.688807
    19  H    6.215152   4.303897   2.148434   2.150414   4.291488
    20  H    4.399683   6.246669   7.892011   8.098715   6.722830
    21  H    3.448493   4.811074   6.501746   7.105602   6.161110
                   11         12         13         14         15
    11  C    0.000000
    12  H    2.164037   0.000000
    13  H    2.157847   1.789961   0.000000
    14  H    6.953144   5.726198   5.046703   0.000000
    15  C    6.666159   4.946217   4.974241   2.150850   0.000000
    16  H    6.780519   4.776740   5.541263   4.291714   2.152411
    17  C    1.328171   3.327448   2.670441   7.461288   7.509357
    18  H    1.085783   2.491695   3.094281   7.699796   7.180854
    19  H    7.707721   5.929370   5.956716   2.477105   1.083877
    20  H    2.105919   4.226079   3.746290   8.514312   8.559273
    21  H    2.110267   3.690853   2.492409   6.994162   7.319085
                   16         17         18         19         20
    16  H    0.000000
    17  C    7.883819   0.000000
    18  H    6.996422   2.089974   0.000000
    19  H    2.479824   8.537807   8.223802   0.000000
    20  H    8.855217   1.081894   2.429588   9.596255   0.000000
    21  H    7.973412   1.083405   3.067100   8.310742   1.843697
                   21
    21  H    0.000000
 Symmetry turned off by external request.
 Stoichiometry    C9H10OS
 Framework group  C1[X(C9H10OS)]
 Deg. of freedom    57
 Full point group                 C1      NOp   1
 Rotational constants (GHZ):           2.3882836           0.5229244           0.4885772
 Standard basis: def2TZVP (5D, 7F)
 The following finite field(s) will be applied:
 An electric field of             -0.0098  0.0020 -0.0006
   407 basis functions,   659 primitive gaussians,   462 cartesian basis functions
    44 alpha electrons       44 beta electrons
       nuclear repulsion energy       665.0647350707 Hartrees.
 NAtoms=   21 NActive=   21 NUniq=   21 SFac= 1.00D+00 NAtFMM=   60 NAOKFM=F Big=F
 Integral buffers will be    131072 words long.
 Raffenetti 2 integral format.
 Two-electron integral symmetry is turned off.
 One-electron integrals computed using PRISM.
   1 Symmetry operations used in ECPInt.
 ECPInt:  NShTT=   13366 NPrTT=   41614 LenC2=   12468 LenP2D=   29253.
 LDataN:  DoStor=T MaxTD1= 6 Len=  172
 NBasis=   407 RedAO= T EigKep=  8.67D-06  NBF=   407
 NBsUse=   407 1.00D-06 EigRej= -1.00D+00 NBFU=   407
 The nuclear repulsion energy is now       664.1488581764 hartrees.
 Initial guess from the checkpoint file:  "checkpoint.chk"
 B after Tr=    -0.000000    0.000000    0.000000
         Rot=    1.000000    0.000000    0.000000    0.000000 Ang=   0.00 deg.
 Requested convergence on RMS density matrix=1.00D-08 within 128 cycles.
 Requested convergence on MAX density matrix=1.00D-06.
 Requested convergence on             energy=1.00D-06.
 No special actions if energy rises.
 SCF Done:  E(RB3LYP) =  -822.527198535     A.U. after   10 cycles
            NFock= 10  Conv=0.88D-08     -V/T= 2.0035
   1 Symmetry operations used in ECPInt.
 ECPInt:  NShTT=   13366 NPrTT=   41614 LenC2=   12468 LenP2D=   29253.
 LDataN:  DoStor=T MaxTD1= 7 Len=  274
 Calling FoFJK, ICntrl=      2127 FMM=F ISym2X=0 I1Cent= 0 IOpClX= 0 NMat=1 NMatS=1 NMatT=0.
 -------------------------------------------------------------------
 Center     Atomic                   Forces (Hartrees/Bohr)
 Number     Number              X              Y              Z
 -------------------------------------------------------------------
      1        6           0.001392350    0.002784041   -0.000291475
      2        6          -0.001798899   -0.000887986    0.000234989
      3       16           0.002702868   -0.002385134    0.000817995
      4        6          -0.000447959    0.000101710    0.000303959
      5        6           0.000010733    0.000341305    0.000062229
      6        8          -0.001971005    0.000273207   -0.001111261
      7        1           0.000274141   -0.000072462   -0.000026784
      8        6           0.000050753    0.000050985    0.000124107
      9        6           0.000217102    0.000115282    0.000033121
     10        1           0.000210124   -0.000053689   -0.000050823
     11        6          -0.000091060    0.000019466   -0.000371848
     12        1          -0.000331706    0.000037015   -0.000191844
     13        1           0.000113651   -0.000004056    0.000135008
     14        1           0.000111836   -0.000059457    0.000072300
     15        6          -0.000049903    0.000151016   -0.000067495
     16        1          -0.000415312   -0.000109644   -0.000257704
     17        6          -0.000009579    0.000170223    0.000121047
     18        1           0.000051923   -0.000166541    0.000039954
     19        1          -0.000323739   -0.000115508    0.000261864
     20        1           0.000087804   -0.000085130    0.000116376
     21        1           0.000215876   -0.000104640    0.000046283
 -------------------------------------------------------------------
 Cartesian Forces:  Max     0.002784041 RMS     0.000738164
 -----------------------------------------------------------------------------------------------
                       Internal Coordinate Forces (Hartree/Bohr or radian)
  Cent   Atom   N1       Length/X         N2         Alpha/Y        N3         Beta/Z          J
 -----------------------------------------------------------------------------------------------
      1  C 
      2  C        1   0.000599(     1)
      3  S        1   0.000847(     2)      2  -0.002327(    21)
      4  C        1   0.000356(     3)      2   0.000558(    22)      3   0.000044(    40)     0
      5  C        3   0.000213(     4)      1   0.001222(    23)      2   0.000575(    41)     0
      6  O        3  -0.002184(     5)      1  -0.001821(    24)      5   0.000004(    42)     0
      7  H        2   0.000226(     6)      1  -0.000317(    25)      3  -0.000155(    43)     0
      8  C        2   0.000374(     7)      1   0.001923(    26)      7  -0.000018(    44)     0
      9  C        4   0.000061(     8)      1   0.000788(    27)      2   0.000146(    45)     0
     10  H        4   0.000056(     9)      1  -0.000425(    28)      9   0.000105(    46)     0
     11  C        5   0.000201(    10)      3  -0.001126(    29)      1  -0.000014(    47)     0
     12  H        5   0.000383(    11)      3  -0.000075(    30)     11   0.000007(    48)     0
     13  H        5   0.000114(    12)      3  -0.000130(    31)     11   0.000237(    49)     0
     14  H        8   0.000072(    13)      2  -0.000225(    32)      1  -0.000224(    50)     0
     15  C        8   0.000222(    14)      2   0.001071(    33)     14  -0.000112(    51)     0
     16  H        9   0.000494(    15)      4  -0.000019(    34)      1   0.000148(    52)     0
     17  C       11   0.000353(    16)      5  -0.000199(    35)      3   0.000335(    53)     0
     18  H       11  -0.000000(    17)      5  -0.000030(    36)     17  -0.000328(    54)     0
     19  H       15   0.000416(    18)      8  -0.000136(    37)      2  -0.000174(    55)     0
     20  H       17  -0.000005(    19)     11   0.000218(    38)      5   0.000080(    56)     0
     21  H       17   0.000033(    20)     11   0.000338(    39)     20   0.000308(    57)     0
 -----------------------------------------------------------------------------------------------
 Internal  Forces:  Max     0.002326545 RMS     0.000671933

 GradGradGradGradGradGradGradGradGradGradGradGradGradGradGradGradGradGrad
 Berny optimization.
 Search for a local minimum.
 Step number   1 out of a maximum of   67
 All quantities printed in internal units (Hartrees-Bohrs-Radians)
 Second derivative matrix not updated -- first step.
 ITU=  0
     Eigenvalues ---    0.00846   0.03667   0.03841   0.05083   0.05160
     Eigenvalues ---    0.06887   0.06942   0.08103   0.08810   0.10811
     Eigenvalues ---    0.12242   0.13394   0.18213   0.18414   0.20309
     Eigenvalues ---    0.21086   0.21279   0.21364   0.22910   0.23572
     Eigenvalues ---    0.24505   0.25531   0.26574   0.27821   0.28490
     Eigenvalues ---    0.29423   0.29664   0.29966   0.33469   0.34502
     Eigenvalues ---    0.34714   0.35303   0.35471   0.35494   0.35530
     Eigenvalues ---    0.35585   0.35608   0.35628   0.35766   0.36597
     Eigenvalues ---    0.40874   0.41832   0.47063   0.47196   0.47326
     Eigenvalues ---    0.47738   0.49446   0.51706   0.52012   0.58751
     Eigenvalues ---    0.59938   0.61924   0.83540   0.87311   2.83245
     Eigenvalues ---    4.15783  26.25596
 RFO step:  Lambda=-4.54637296D-05 EMin= 8.46229188D-03
 Linear search not attempted -- first point.
 Variable       Old X    -DE/DX   Delta X   Delta X   Delta X     New X
                                 (Linear)    (Quad)   (Total)
    R2        2.62473   0.00060   0.00000   0.00047   0.00047   2.62520
    R3        3.44185   0.00085   0.00000   0.00345   0.00345   3.44530
    R4        2.62804   0.00036   0.00000   0.00049   0.00049   2.62853
    R5        3.53424   0.00021   0.00000   0.00102   0.00102   3.53526
    R6        2.79756  -0.00218   0.00000  -0.00258  -0.00258   2.79498
    R7        2.04699   0.00023   0.00000   0.00064   0.00064   2.04762
    R8        2.62836   0.00037   0.00000   0.00026   0.00026   2.62862
    R9        2.62708   0.00006   0.00000   0.00066   0.00066   2.62774
   R10        2.04916   0.00006   0.00000   0.00016   0.00016   2.04932
   R11        2.81536   0.00020   0.00000   0.00060   0.00060   2.81596
   R12        2.06492   0.00038   0.00000   0.00111   0.00111   2.06603
   R13        2.06141   0.00011   0.00000   0.00033   0.00033   2.06175
   R14        2.04669   0.00007   0.00000   0.00021   0.00021   2.04690
   R15        2.62968   0.00022   0.00000   0.00073   0.00073   2.63042
   R16        2.04881   0.00049   0.00000   0.00139   0.00139   2.05020
   R17        2.50988   0.00035   0.00000   0.00058   0.00058   2.51046
   R18        2.05183  -0.00000   0.00000   0.00000   0.00000   2.05184
   R19        2.04823   0.00042   0.00000   0.00117   0.00117   2.04941
   R20        2.04448  -0.00000   0.00000   0.00000   0.00000   2.04448
   R21        2.04734   0.00003   0.00000   0.00009   0.00009   2.04743
    A3        2.05218  -0.00233   0.00000  -0.00329  -0.00329   2.04889
    A4        2.11144   0.00056   0.00000  -0.00077  -0.00077   2.11067
    A5        1.68583   0.00122   0.00000   0.00300   0.00300   1.68883
    A6        1.85253  -0.00182   0.00000  -0.00615  -0.00615   1.84638
    A7        2.07265  -0.00032   0.00000  -0.00124  -0.00124   2.07141
    A8        2.08212   0.00192   0.00000   0.00055   0.00055   2.08268
    A9        2.08436   0.00079   0.00000   0.00059   0.00059   2.08495
   A10        2.09734  -0.00042   0.00000  -0.00167  -0.00167   2.09566
   A11        1.91128  -0.00113   0.00000  -0.00240  -0.00240   1.90888
   A12        1.85535  -0.00008   0.00000   0.00052   0.00052   1.85587
   A13        1.83089  -0.00013   0.00000  -0.00006  -0.00006   1.83083
   A14        2.08722  -0.00023   0.00000  -0.00083  -0.00083   2.08639
   A15        2.09786   0.00107   0.00000   0.00015   0.00015   2.09801
   A16        2.09052  -0.00002   0.00000  -0.00002  -0.00002   2.09050
   A17        2.16104  -0.00020   0.00000  -0.00012  -0.00012   2.16092
   A18        2.03315  -0.00003   0.00000  -0.00012  -0.00012   2.03303
   A19        2.09295  -0.00014   0.00000  -0.00033  -0.00033   2.09262
   A20        2.12007   0.00022   0.00000  -0.00004  -0.00004   2.12003
   A21        2.12536   0.00034   0.00000   0.00110   0.00110   2.12647
    D4        3.08682   0.00004   0.00000  -0.00063  -0.00063   3.08619
    D5       -1.75898   0.00057   0.00000   0.00403   0.00403  -1.75496
    D6        1.90266   0.00000   0.00000  -0.00071  -0.00071   1.90195
    D7        0.01471  -0.00016   0.00000  -0.00046  -0.00046   0.01425
    D8       -3.11848  -0.00002   0.00000   0.00185   0.00185  -3.11664
    D9        0.01933   0.00015   0.00000  -0.00097  -0.00097   0.01836
   D10       -3.12242   0.00011   0.00000   0.00215   0.00215  -3.12027
   D11       -3.10986  -0.00001   0.00000   0.00180   0.00180  -3.10807
   D12        2.13484   0.00001   0.00000   0.00016   0.00016   2.13500
   D13       -2.11226   0.00024   0.00000   0.00152   0.00152  -2.11074
   D14       -3.14894  -0.00022   0.00000  -0.00212  -0.00212  -3.15106
   D15       -3.13019  -0.00011   0.00000   0.00204   0.00204  -3.12816
   D16        3.14965   0.00015   0.00000   0.00326   0.00326   3.15291
   D17       -1.70913   0.00034   0.00000   0.00121   0.00121  -1.70793
   D18        3.08386  -0.00033   0.00000  -0.00236  -0.00236   3.08150
   D19        3.12768  -0.00017   0.00000  -0.00335  -0.00335   3.12432
   D20        3.09689   0.00008   0.00000  -0.00009  -0.00009   3.09679
   D21       -3.12103   0.00031   0.00000   0.00121   0.00121  -3.11982
         Item               Value     Threshold  Converged?
 Maximum Force            0.002327     0.000450     NO 
 RMS     Force            0.000672     0.000300     NO 
 Maximum Displacement     0.006152     0.001800     NO 
 RMS     Displacement     0.001723     0.001200     NO 
 Predicted change in Energy=-2.273186D-05
 GradGradGradGradGradGradGradGradGradGradGradGradGradGradGradGradGradGrad

 ---------------------------------------------------------------------------------------------------
                            Z-MATRIX (ANGSTROMS AND DEGREES)
   CD    Cent   Atom    N1       Length/X        N2       Alpha/Y        N3        Beta/Z          J
 ---------------------------------------------------------------------------------------------------
      1      1  C 
      2      2  C        1   1.389197(     1)
      3      3  S        1   1.823174(     2)      2  117.393(    21)
      4      4  C        1   1.390957(     3)      2  120.932(    22)      3  176.826(    40)      0
      5      5  C        3   1.870778(     4)      1   96.763(    23)      2 -100.552(    41)      0
      6      6  O        3   1.479038(     5)      1  105.790(    24)      5  108.973(    42)      0
      7      7  H        2   1.083555(     6)      1  118.683(    25)      3    0.816(    43)      0
      8      8  C        2   1.391005(     7)      1  119.329(    26)      7 -178.570(    44)      0
      9      9  C        4   1.390542(     8)      1  119.459(    27)      2    1.052(    45)      0
     10     10  H        4   1.084452(     9)      1  120.073(    28)      9 -178.779(    46)      0
     11     11  C        5   1.490139(    10)      3  109.371(    29)      1 -178.079(    47)      0
     12     12  H        5   1.093299(    11)      3  106.334(    30)     11  122.327(    48)      0
     13     13  H        5   1.091029(    12)      3  104.899(    31)     11 -120.936(    49)      0
     14     14  H        8   1.083171(    13)      2  119.541(    32)      1 -180.543(    50)      0
     15     15  C        8   1.391958(    14)      2  120.207(    33)     14 -179.230(    51)      0
     16     16  H        9   1.084921(    15)      4  119.777(    34)      1  180.649(    52)      0
     17     17  C       11   1.328480(    16)      5  123.812(    35)      3  -97.857(    53)      0
     18     18  H       11   1.085786(    17)      5  116.484(    36)     17  176.557(    54)      0
     19     19  H       15   1.084499(    18)      8  119.898(    37)      2  179.011(    55)      0
     20     20  H       17   1.081895(    19)     11  121.469(    38)      5  177.433(    56)      0
     21     21  H       17   1.083454(    20)     11  121.838(    39)     20 -178.753(    57)      0
 ---------------------------------------------------------------------------------------------------
                         Z-Matrix orientation:                         
 ---------------------------------------------------------------------
 Center     Atomic      Atomic             Coordinates (Angstroms)
 Number     Number       Type             X           Y           Z
 ---------------------------------------------------------------------
      1          6           0        0.000000    0.000000    0.000000
      2          6           0        0.000000    0.000000    1.389197
      3         16           0        1.618747    0.000000   -0.838822
      4          6           0       -1.191297   -0.066068   -0.714989
      5          6           0        1.657835    1.826346   -1.242236
      6          8           0        2.623829   -0.208445    0.226033
      7          1           0        0.950492    0.013542    1.909268
      8          6           0       -1.211781   -0.047530    2.070535
      9          6           0       -2.399533   -0.110818   -0.028134
     10          1           0       -1.173364   -0.102354   -1.798686
     11          6           0        2.899566    2.137566   -2.004968
     12          1           0        0.745541    2.036054   -1.807077
     13          1           0        1.624754    2.328252   -0.274072
     14          1           0       -1.215469   -0.056605    3.153661
     15          6           0       -2.410462   -0.099322    1.364823
     16          1           0       -3.331283   -0.173056   -0.580421
     17          6           0        4.001691    2.632902   -1.452862
     18          1           0        2.895337    1.884895   -3.060937
     19          1           0       -3.351615   -0.152461    1.901055
     20          1           0        4.896398    2.806662   -2.035789
     21          1           0        4.057158    2.864153   -0.395829
 ---------------------------------------------------------------------
                    Distance matrix (angstroms):
                    1          2          3          4          5
     1  C    0.000000
     2  C    1.389197   0.000000
     3  S    1.823174   2.753980   0.000000
     4  C    1.390957   2.418915   2.813547   0.000000
     5  C    2.761722   3.606715   1.870778   3.460747   0.000000
     6  O    2.641784   2.877652   1.479038   3.932045   2.688742
     7  H    2.132821   1.083555   2.828206   3.388263   3.703859
     8  C    2.399539   1.391005   4.059372   2.785661   4.766608
     9  C    2.402255   2.789061   4.100740   1.390542   4.657132
    10  H    2.150007   3.398508   2.954269   1.084452   3.470621
    11  C    4.122690   4.949447   2.751288   4.822365   1.490139
    12  H    2.822565   3.862319   2.417751   3.059888   1.093299
    13  H    2.852314   3.290447   2.395774   3.722541   1.091029
    14  H    3.380259   2.143340   4.896520   3.868738   5.579004
    15  C    2.771811   2.412631   4.593522   2.411035   5.201537
    16  H    3.385895   3.873860   4.959790   2.146881   5.415432
    17  C    5.005648   5.569829   3.603836   5.898814   2.487681
    18  H    4.615749   5.633781   3.181243   5.100030   2.200571
    19  H    3.856239   3.393901   5.677558   3.393837   6.236228
    20  H    5.999708   6.601711   4.478066   6.859818   3.475490
    21  H    4.982026   5.277330   3.787540   6.019496   2.747762
                    6          7          8          9         10
     6  O    0.000000
     7  H    2.383825   0.000000
     8  C    4.259107   2.169138   0.000000
     9  C    5.030735   3.871906   2.412295   0.000000
    10  H    4.304581   4.274707   3.869800   2.153698   0.000000
    11  C    3.249179   4.861236   6.187693   6.086341   4.652801
    12  H    3.563604   4.236010   4.817500   4.202998   2.873162
    13  H    2.771838   3.252612   4.380348   4.712157   4.007712
    14  H    4.830557   2.498964   1.083171   3.395404   4.952738
    15  C    5.162639   3.406636   1.391958   1.393048   3.396794
    16  H    6.009574   4.956508   3.396411   1.084921   2.479069
    17  C    3.576373   5.241639   6.839541   7.108693   5.863652
    18  H    3.906399   5.655734   6.850889   6.420001   4.700720
    19  H    6.206027   4.305316   2.149098   2.151736   4.293643
    20  H    4.401281   6.239805   7.894184   8.110053   6.735028
    21  H    3.447028   4.805292   6.505579   7.118603   6.174668
                   11         12         13         14         15
    11  C    0.000000
    12  H    2.165476   0.000000
    13  H    2.158127   1.791228   0.000000
    14  H    6.954089   5.730070   5.050125   0.000000
    15  C    6.674995   4.957937   4.986186   2.151691   0.000000
    16  H    6.796454   4.796389   5.559918   4.293437   2.153444
    17  C    1.328480   3.329295   2.670616   7.461384   7.517985
    18  H    1.085786   2.493318   3.094764   7.699960   7.188600
    19  H    7.718712   5.943613   5.970708   2.478170   1.084499
    20  H    2.106175   4.227973   3.746489   8.513730   8.567327
    21  H    2.111226   3.693802   2.493713   6.995020   7.328860
                   16         17         18         19         20
    16  H    0.000000
    17  C    7.899814   0.000000
    18  H    7.011342   2.090320   0.000000
    19  H    2.481645   8.548574   8.233869   0.000000
    20  H    8.870825   1.081895   2.429985   9.606501   0.000000
    21  H    7.990480   1.083454   3.067829   8.322593   1.843121
                   21
    21  H    0.000000
 Symmetry turned off by external request.
 Stoichiometry    C9H10OS
 Framework group  C1[X(C9H10OS)]
 Deg. of freedom    57
 Full point group                 C1      NOp   1
 Rotational constants (GHZ):           2.3971899           0.5220570           0.4878349
 Standard basis: def2TZVP (5D, 7F)
 The following finite field(s) will be applied:
 An electric field of             -0.0098  0.0020 -0.0006
   407 basis functions,   659 primitive gaussians,   462 cartesian basis functions
    44 alpha electrons       44 beta electrons
       nuclear repulsion energy       664.9432555360 Hartrees.
 NAtoms=   21 NActive=   21 NUniq=   21 SFac= 1.00D+00 NAtFMM=   60 NAOKFM=F Big=F
 Integral buffers will be    131072 words long.
 Raffenetti 2 integral format.
 Two-electron integral symmetry is turned off.
 One-electron integrals computed using PRISM.
   1 Symmetry operations used in ECPInt.
 ECPInt:  NShTT=   13366 NPrTT=   41614 LenC2=   12465 LenP2D=   29248.
 LDataN:  DoStor=T MaxTD1= 6 Len=  172
 NBasis=   407 RedAO= T EigKep=  8.70D-06  NBF=   407
 NBsUse=   407 1.00D-06 EigRej= -1.00D+00 NBFU=   407
 The nuclear repulsion energy is now       664.0179286982 hartrees.
 Initial guess from the checkpoint file:  "checkpoint.chk"
 B after Tr=     0.005670   -0.003112    0.006152
         Rot=    0.999998   -0.000707    0.001073    0.001286 Ang=  -0.21 deg.
 Requested convergence on RMS density matrix=1.00D-08 within 128 cycles.
 Requested convergence on MAX density matrix=1.00D-06.
 Requested convergence on             energy=1.00D-06.
 No special actions if energy rises.
 SCF Done:  E(RB3LYP) =  -822.527228188     A.U. after    9 cycles
            NFock=  9  Conv=0.92D-08     -V/T= 2.0035
   1 Symmetry operations used in ECPInt.
 ECPInt:  NShTT=   13366 NPrTT=   41614 LenC2=   12465 LenP2D=   29248.
 LDataN:  DoStor=T MaxTD1= 7 Len=  274
 Calling FoFJK, ICntrl=      2127 FMM=F ISym2X=0 I1Cent= 0 IOpClX= 0 NMat=1 NMatS=1 NMatT=0.
 -------------------------------------------------------------------
 Center     Atomic                   Forces (Hartrees/Bohr)
 Number     Number              X              Y              Z
 -------------------------------------------------------------------
      1        6           0.001108267    0.003057691   -0.000334872
      2        6          -0.001738532   -0.000936873    0.000167389
      3       16           0.001056490   -0.002137251    0.000570063
      4        6          -0.000123951    0.000052299    0.000277774
      5        6          -0.000150654    0.000143860   -0.000042139
      6        8          -0.000367753   -0.000003186   -0.000440911
      7        1           0.000010472   -0.000050249   -0.000047047
      8        6           0.000032565   -0.000006637   -0.000041970
      9        6           0.000030924   -0.000014779    0.000040129
     10        1           0.000022255    0.000003862   -0.000021046
     11        6           0.000045247    0.000094795   -0.000119228
     12        1           0.000013808    0.000019395   -0.000017830
     13        1           0.000020463   -0.000073540    0.000012728
     14        1           0.000015101   -0.000005663   -0.000001005
     15        6          -0.000011690    0.000035691   -0.000079452
     16        1           0.000005518   -0.000002656   -0.000006309
     17        6          -0.000141680    0.000018672   -0.000003631
     18        1           0.000029463   -0.000024667    0.000023448
     19        1           0.000008766   -0.000001885   -0.000005580
     20        1           0.000077638   -0.000126482    0.000063715
     21        1           0.000057283   -0.000042395    0.000005774
 -------------------------------------------------------------------
 Cartesian Forces:  Max     0.003057691 RMS     0.000580128
 -----------------------------------------------------------------------------------------------
                       Internal Coordinate Forces (Hartree/Bohr or radian)
  Cent   Atom   N1       Length/X         N2         Alpha/Y        N3         Beta/Z          J
 -----------------------------------------------------------------------------------------------
      1  C 
      2  C        1  -0.000008(     1)
      3  S        1   0.000545(     2)      2  -0.001351(    21)
      4  C        1  -0.000095(     3)      2  -0.000801(    22)      3   0.000045(    40)     0
      5  C        3   0.000025(     4)      1   0.000687(    23)      2   0.000447(    41)     0
      6  O        3  -0.000567(     5)      1   0.000089(    24)      5   0.000229(    42)     0
      7  H        2  -0.000014(     6)      1  -0.000094(    25)      3  -0.000208(    43)     0
      8  C        2  -0.000102(     7)      1  -0.000396(    26)      7  -0.000118(    44)     0
      9  C        4  -0.000014(     8)      1  -0.000106(    27)      2  -0.000052(    45)     0
     10  H        4   0.000021(     9)      1  -0.000045(    28)      9  -0.000007(    46)     0
     11  C        5   0.000055(    10)      3  -0.000735(    29)      1  -0.000125(    47)     0
     12  H        5   0.000001(    11)      3   0.000049(    30)     11  -0.000036(    48)     0
     13  H        5  -0.000023(    12)      3  -0.000145(    31)     11   0.000044(    49)     0
     14  H        8  -0.000001(    13)      2  -0.000030(    32)      1  -0.000089(    50)     0
     15  C        8   0.000044(    14)      2  -0.000192(    33)     14  -0.000078(    51)     0
     16  H        9  -0.000001(    15)      4  -0.000017(    34)      1   0.000005(    52)     0
     17  C       11  -0.000034(    16)      5  -0.000175(    35)      3   0.000334(    53)     0
     18  H       11  -0.000017(    17)      5   0.000035(    36)     17  -0.000070(    54)     0
     19  H       15  -0.000010(    18)      8   0.000001(    37)      2  -0.000004(    55)     0
     20  H       17   0.000010(    19)     11   0.000093(    38)      5  -0.000167(    56)     0
     21  H       17  -0.000000(    20)     11   0.000083(    39)     20   0.000103(    57)     0
 -----------------------------------------------------------------------------------------------
 Internal  Forces:  Max     0.001351189 RMS     0.000293901

 GradGradGradGradGradGradGradGradGradGradGradGradGradGradGradGradGradGrad
 Berny optimization.
 Search for a local minimum.
 Step number   2 out of a maximum of   67
 All quantities printed in internal units (Hartrees-Bohrs-Radians)
 Update second derivatives using D2CorN and points    1    2
 DE= -2.97D-05 DEPred=-2.27D-05 R= 1.30D+00
 TightC=F SS=  1.41D+00  RLast= 1.30D-02 DXNew= 1.6818D-01 3.9033D-02
 Trust test= 1.30D+00 RLast= 1.30D-02 DXMaxT set to 1.00D-01
 ITU=  1  0
     Eigenvalues ---    0.01011   0.03193   0.03757   0.05000   0.05131
     Eigenvalues ---    0.06684   0.06931   0.08076   0.08770   0.10504
     Eigenvalues ---    0.12214   0.13392   0.18217   0.18237   0.20286
     Eigenvalues ---    0.20588   0.21182   0.21563   0.21770   0.23529
     Eigenvalues ---    0.23750   0.25538   0.26315   0.27276   0.28487
     Eigenvalues ---    0.29310   0.29673   0.30029   0.33453   0.34500
     Eigenvalues ---    0.34719   0.35303   0.35463   0.35489   0.35531
     Eigenvalues ---    0.35585   0.35611   0.35628   0.35766   0.36347
     Eigenvalues ---    0.40763   0.41808   0.47060   0.47224   0.47309
     Eigenvalues ---    0.47746   0.49429   0.50994   0.52023   0.58547
     Eigenvalues ---    0.59949   0.61684   0.82558   0.86137   2.83229
     Eigenvalues ---    4.15782  26.25643
 RFO step:  Lambda=-1.28961995D-05 EMin= 1.01106937D-02
 Quartic linear search produced a step of  0.43497.
 Variable       Old X    -DE/DX   Delta X   Delta X   Delta X     New X
                                 (Linear)    (Quad)   (Total)
    R2        2.62520  -0.00001   0.00020  -0.00001   0.00019   2.62539
    R3        3.44530   0.00054   0.00150   0.00216   0.00366   3.44896
    R4        2.62853  -0.00010   0.00021  -0.00040  -0.00019   2.62834
    R5        3.53526   0.00003   0.00045  -0.00010   0.00035   3.53560
    R6        2.79498  -0.00057  -0.00112   0.00006  -0.00107   2.79391
    R7        2.04762  -0.00001   0.00028  -0.00027   0.00000   2.04763
    R8        2.62862  -0.00010   0.00011  -0.00027  -0.00016   2.62846
    R9        2.62774  -0.00001   0.00029  -0.00043  -0.00014   2.62760
   R10        2.04932   0.00002   0.00007   0.00003   0.00010   2.04942
   R11        2.81596   0.00006   0.00026   0.00003   0.00029   2.81625
   R12        2.06603   0.00000   0.00048  -0.00037   0.00011   2.06615
   R13        2.06175  -0.00002   0.00014  -0.00021  -0.00006   2.06168
   R14        2.04690  -0.00000   0.00009  -0.00008   0.00001   2.04691
   R15        2.63042   0.00004   0.00032  -0.00019   0.00013   2.63055
   R16        2.05020  -0.00000   0.00061  -0.00049   0.00011   2.05032
   R17        2.51046  -0.00003   0.00025  -0.00031  -0.00006   2.51040
   R18        2.05184  -0.00002   0.00000  -0.00006  -0.00006   2.05178
   R19        2.04941  -0.00001   0.00051  -0.00045   0.00006   2.04946
   R20        2.04448   0.00001   0.00000   0.00006   0.00006   2.04454
   R21        2.04743  -0.00000   0.00004  -0.00004  -0.00000   2.04743
    A3        2.04889  -0.00135  -0.00143  -0.00176  -0.00319   2.04571
    A4        2.11067  -0.00080  -0.00034   0.00038   0.00005   2.11071
    A5        1.68883   0.00069   0.00131   0.00115   0.00246   1.69129
    A6        1.84638   0.00009  -0.00268   0.00287   0.00019   1.84657
    A7        2.07141  -0.00009  -0.00054   0.00007  -0.00047   2.07095
    A8        2.08268  -0.00040   0.00024  -0.00040  -0.00016   2.08251
    A9        2.08495  -0.00011   0.00026  -0.00013   0.00013   2.08508
   A10        2.09566  -0.00005  -0.00073   0.00029  -0.00043   2.09523
   A11        1.90888  -0.00074  -0.00105  -0.00118  -0.00223   1.90665
   A12        1.85587   0.00005   0.00023   0.00104   0.00127   1.85714
   A13        1.83083  -0.00015  -0.00003  -0.00055  -0.00058   1.83025
   A14        2.08639  -0.00003  -0.00036   0.00012  -0.00025   2.08614
   A15        2.09801  -0.00019   0.00007  -0.00003   0.00004   2.09805
   A16        2.09050  -0.00002  -0.00001  -0.00002  -0.00003   2.09047
   A17        2.16092  -0.00017  -0.00005  -0.00014  -0.00019   2.16073
   A18        2.03303   0.00003  -0.00005   0.00012   0.00007   2.03310
   A19        2.09262   0.00000  -0.00014   0.00009  -0.00006   2.09257
   A20        2.12003   0.00009  -0.00002  -0.00011  -0.00013   2.11991
   A21        2.12647   0.00008   0.00048   0.00019   0.00067   2.12714
    D4        3.08619   0.00005  -0.00027   0.00742   0.00714   3.09333
    D5       -1.75496   0.00045   0.00175   0.00291   0.00467  -1.75029
    D6        1.90195   0.00023  -0.00031   0.00184   0.00153   1.90347
    D7        0.01425  -0.00021  -0.00020  -0.00655  -0.00675   0.00750
    D8       -3.11664  -0.00012   0.00080   0.00002   0.00083  -3.11581
    D9        0.01836  -0.00005  -0.00042  -0.00061  -0.00103   0.01733
   D10       -3.12027  -0.00001   0.00093  -0.00156  -0.00063  -3.12090
   D11       -3.10807  -0.00012   0.00078   0.00070   0.00148  -3.10658
   D12        2.13500  -0.00004   0.00007   0.00005   0.00012   2.13512
   D13       -2.11074   0.00004   0.00066   0.00061   0.00127  -2.10946
   D14       -3.15106  -0.00009  -0.00092  -0.00081  -0.00174  -3.15280
   D15       -3.12816  -0.00008   0.00089  -0.00016   0.00073  -3.12743
   D16        3.15291   0.00000   0.00142  -0.00182  -0.00040   3.15251
   D17       -1.70793   0.00033   0.00053   0.00290   0.00343  -1.70450
   D18        3.08150  -0.00007  -0.00103  -0.00225  -0.00327   3.07823
   D19        3.12432  -0.00000  -0.00146   0.00207   0.00061   3.12493
   D20        3.09679  -0.00017  -0.00004  -0.00282  -0.00286   3.09393
   D21       -3.11982   0.00010   0.00053   0.00067   0.00119  -3.11863
         Item               Value     Threshold  Converged?
 Maximum Force            0.001351     0.000450     NO 
 RMS     Force            0.000294     0.000300     YES
 Maximum Displacement     0.007142     0.001800     NO 
 RMS     Displacement     0.001882     0.001200     NO 
 Predicted change in Energy=-7.237440D-06
 GradGradGradGradGradGradGradGradGradGradGradGradGradGradGradGradGradGrad

 ---------------------------------------------------------------------------------------------------
                            Z-MATRIX (ANGSTROMS AND DEGREES)
   CD    Cent   Atom    N1       Length/X        N2       Alpha/Y        N3        Beta/Z          J
 ---------------------------------------------------------------------------------------------------
      1      1  C 
      2      2  C        1   1.389299(     1)
      3      3  S        1   1.825111(     2)      2  117.210(    21)
      4      4  C        1   1.390856(     3)      2  120.935(    22)      3  177.235(    40)      0
      5      5  C        3   1.870961(     4)      1   96.904(    23)      2 -100.284(    41)      0
      6      6  O        3   1.478474(     5)      1  105.801(    24)      5  109.061(    42)      0
      7      7  H        2   1.083558(     6)      1  118.657(    25)      3    0.430(    43)      0
      8      8  C        2   1.390922(     7)      1  119.319(    26)      7 -178.523(    44)      0
      9      9  C        4   1.390466(     8)      1  119.466(    27)      2    0.993(    45)      0
     10     10  H        4   1.084506(     9)      1  120.048(    28)      9 -178.814(    46)      0
     11     11  C        5   1.490295(    10)      3  109.243(    29)      1 -177.994(    47)      0
     12     12  H        5   1.093358(    11)      3  106.406(    30)     11  122.334(    48)      0
     13     13  H        5   1.090996(    12)      3  104.866(    31)     11 -120.863(    49)      0
     14     14  H        8   1.083179(    13)      2  119.527(    32)      1 -180.642(    50)      0
     15     15  C        8   1.392028(    14)      2  120.210(    33)     14 -179.188(    51)      0
     16     16  H        9   1.084981(    15)      4  119.775(    34)      1  180.625(    52)      0
     17     17  C       11   1.328448(    16)      5  123.801(    35)      3  -97.661(    53)      0
     18     18  H       11   1.085753(    17)      5  116.488(    36)     17  176.369(    54)      0
     19     19  H       15   1.084529(    18)      8  119.895(    37)      2  179.045(    55)      0
     20     20  H       17   1.081925(    19)     11  121.462(    38)      5  177.269(    56)      0
     21     21  H       17   1.083453(    20)     11  121.876(    39)     20 -178.684(    57)      0
 ---------------------------------------------------------------------------------------------------
                         Z-Matrix orientation:                         
 ---------------------------------------------------------------------
 Center     Atomic      Atomic             Coordinates (Angstroms)
 Number     Number       Type             X           Y           Z
 ---------------------------------------------------------------------
      1          6           0        0.000000    0.000000    0.000000
      2          6           0        0.000000    0.000000    1.389299
      3         16           0        1.623134    0.000000   -0.834547
      4          6           0       -1.191618   -0.057552   -0.714992
      5          6           0        1.671513    1.827554   -1.232293
      6          8           0        2.624045   -0.217062    0.231730
      7          1           0        0.950806    0.007129    1.908929
      8          6           0       -1.212081   -0.040355    2.070398
      9          6           0       -2.400149   -0.094922   -0.028367
     10          1           0       -1.173469   -0.092399   -1.798786
     11          6           0        2.917340    2.132220   -1.991287
     12          1           0        0.761698    2.044565   -1.798485
     13          1           0        1.639943    2.326036   -0.262350
     14          1           0       -1.215687   -0.051042    3.153518
     15          6           0       -2.411062   -0.083836    1.364497
     16          1           0       -3.332271   -0.150130   -0.580892
     17          6           0        4.022334    2.615726   -1.434527
     18          1           0        2.914209    1.881855   -3.047775
     19          1           0       -3.352609   -0.130838    1.900671
     20          1           0        4.920412    2.782472   -2.014367
     21          1           0        4.077722    2.842964   -0.376620
 ---------------------------------------------------------------------
                    Distance matrix (angstroms):
                    1          2          3          4          5
     1  C    0.000000
     2  C    1.389299   0.000000
     3  S    1.825111   2.753190   0.000000
     4  C    1.390856   2.418947   2.817877   0.000000
     5  C    2.766307   3.606474   1.870961   3.466806   0.000000
     6  O    2.643185   2.876229   1.478474   3.934591   2.689077
     7  H    2.132626   1.083558   2.824666   3.388086   3.701438
     8  C    2.399441   1.390922   4.059406   2.785518   4.765707
     9  C    2.402192   2.789176   4.104356   1.390466   4.660877
    10  H    2.149697   3.398449   2.959608   1.084506   3.478657
    11  C    4.125828   4.948292   2.749433   4.827791   1.490295
    12  H    2.827539   3.862952   2.418986   3.067295   1.093358
    13  H    2.858090   3.290562   2.395440   3.728822   1.090996
    14  H    3.380115   2.143121   4.895526   3.868590   5.576772
    15  C    2.771660   2.412647   4.595385   2.410811   5.202322
    16  H    3.385854   3.874045   4.964163   2.146846   5.419724
    17  C    5.007900   5.567332   3.599745   5.903342   2.487665
    18  H    4.617675   5.632195   3.179093   5.104997   2.200731
    19  H    3.856119   3.393907   5.679485   3.393663   6.236390
    20  H    6.000856   6.598299   4.472826   6.863747   3.475464
    21  H    4.985188   5.275294   3.783800   6.024403   2.748286
                    6          7          8          9         10
     6  O    0.000000
     7  H    2.379703   0.000000
     8  C    4.257674   2.169425   0.000000
     9  C    5.032404   3.872005   2.412322   0.000000
    10  H    4.308091   4.274295   3.869727   2.153865   0.000000
    11  C    3.247607   4.857464   6.186234   6.090066   4.660547
    12  H    3.564417   4.234599   4.817774   4.208086   2.882964
    13  H    2.771266   3.250644   4.378990   4.715731   4.015563
    14  H    4.827831   2.499215   1.083179   3.395477   4.952657
    15  C    5.162675   3.406881   1.392028   1.392951   3.396773
    16  H    6.011866   4.956681   3.396556   1.084981   2.479320
    17  C    3.571598   5.236197   6.836547   7.111482   5.870519
    18  H    3.904459   5.651413   6.849588   6.423929   4.708159
    19  H    6.205899   4.305634   2.149152   2.151665   4.293730
    20  H    4.394935   6.233182   7.890572   8.112595   6.741420
    21  H    3.441951   4.800344   6.502572   7.121464   6.181740
                   11         12         13         14         15
    11  C    0.000000
    12  H    2.166022   0.000000
    13  H    2.158364   1.791718   0.000000
    14  H    6.951084   5.729219   5.047105   0.000000
    15  C    6.675632   4.959935   4.986457   2.151882   0.000000
    16  H    6.801175   4.802062   5.563791   4.293665   2.153499
    17  C    1.328448   3.330232   2.670901   7.456452   7.517364
    18  H    1.085753   2.494094   3.095100   7.697283   7.189617
    19  H    7.718875   5.945053   5.969963   2.478392   1.084529
    20  H    2.106100   4.229186   3.746916   8.508087   8.566385
    21  H    2.111586   3.695289   2.494602   6.989801   7.328163
                   16         17         18         19         20
    16  H    0.000000
    17  C    7.903725   0.000000
    18  H    7.016622   2.090235   0.000000
    19  H    2.481722   8.547336   8.234747   0.000000
    20  H    8.874783   1.081925   2.429793   9.605091   0.000000
    21  H    7.994269   1.083453   3.067990   8.321020   1.842825
                   21
    21  H    0.000000
 Symmetry turned off by external request.
 Stoichiometry    C9H10OS
 Framework group  C1[X(C9H10OS)]
 Deg. of freedom    57
 Full point group                 C1      NOp   1
 Rotational constants (GHZ):           2.3986427           0.5218298           0.4877020
 Standard basis: def2TZVP (5D, 7F)
 The following finite field(s) will be applied:
 An electric field of             -0.0098  0.0020 -0.0006
   407 basis functions,   659 primitive gaussians,   462 cartesian basis functions
    44 alpha electrons       44 beta electrons
       nuclear repulsion energy       664.8855284032 Hartrees.
 NAtoms=   21 NActive=   21 NUniq=   21 SFac= 1.00D+00 NAtFMM=   60 NAOKFM=F Big=F
 Integral buffers will be    131072 words long.
 Raffenetti 2 integral format.
 Two-electron integral symmetry is turned off.
 One-electron integrals computed using PRISM.
   1 Symmetry operations used in ECPInt.
 ECPInt:  NShTT=   13366 NPrTT=   41614 LenC2=   12464 LenP2D=   29248.
 LDataN:  DoStor=T MaxTD1= 6 Len=  172
 NBasis=   407 RedAO= T EigKep=  8.69D-06  NBF=   407
 NBsUse=   407 1.00D-06 EigRej= -1.00D+00 NBFU=   407
 The nuclear repulsion energy is now       663.9515077084 hartrees.
 Initial guess from the checkpoint file:  "checkpoint.chk"
 B after Tr=     0.003716    0.008334    0.004389
         Rot=    0.999995   -0.001402    0.000800    0.002793 Ang=  -0.37 deg.
 Requested convergence on RMS density matrix=1.00D-08 within 128 cycles.
 Requested convergence on MAX density matrix=1.00D-06.
 Requested convergence on             energy=1.00D-06.
 No special actions if energy rises.
 SCF Done:  E(RB3LYP) =  -822.527237475     A.U. after    9 cycles
            NFock=  9  Conv=0.59D-08     -V/T= 2.0035
   1 Symmetry operations used in ECPInt.
 ECPInt:  NShTT=   13366 NPrTT=   41614 LenC2=   12464 LenP2D=   29248.
 LDataN:  DoStor=T MaxTD1= 7 Len=  274
 Calling FoFJK, ICntrl=      2127 FMM=F ISym2X=0 I1Cent= 0 IOpClX= 0 NMat=1 NMatS=1 NMatT=0.
 -------------------------------------------------------------------
 Center     Atomic                   Forces (Hartrees/Bohr)
 Number     Number              X              Y              Z
 -------------------------------------------------------------------
      1        6           0.001747205    0.003756545   -0.000043582
      2        6          -0.001895208   -0.001132683    0.000038699
      3       16           0.000167845   -0.002592569   -0.000289092
      4        6           0.000198938   -0.000002629   -0.000027304
      5        6          -0.000141386    0.000047633    0.000108949
      6        8          -0.000112243    0.000064503    0.000060542
      7        1          -0.000012760    0.000015220    0.000013877
      8        6           0.000038756   -0.000123011    0.000024612
      9        6          -0.000032111   -0.000019708    0.000040905
     10        1          -0.000019692    0.000017900   -0.000000512
     11        6           0.000008213   -0.000026291   -0.000015898
     12        1           0.000045098   -0.000042173    0.000041986
     13        1          -0.000017860    0.000029921   -0.000009279
     14        1          -0.000030047    0.000065412    0.000004869
     15        6          -0.000025044   -0.000001173    0.000013188
     16        1           0.000037594   -0.000010205    0.000017758
     17        6           0.000002198    0.000011985   -0.000009648
     18        1          -0.000010434    0.000042700   -0.000003701
     19        1           0.000021436    0.000000067   -0.000009936
     20        1           0.000039993   -0.000070183    0.000039901
     21        1          -0.000010489   -0.000031262    0.000003665
 -------------------------------------------------------------------
 Cartesian Forces:  Max     0.003756545 RMS     0.000678700
 -----------------------------------------------------------------------------------------------
                       Internal Coordinate Forces (Hartree/Bohr or radian)
  Cent   Atom   N1       Length/X         N2         Alpha/Y        N3         Beta/Z          J
 -----------------------------------------------------------------------------------------------
      1  C 
      2  C        1   0.000085(     1)
      3  S        1   0.000007(     2)      2  -0.000258(    21)
      4  C        1  -0.000174(     3)      2   0.000008(    22)      3  -0.000143(    40)     0
      5  C        3  -0.000072(     4)      1  -0.000048(    23)      2   0.000386(    41)     0
      6  O        3  -0.000042(     5)      1  -0.000337(    24)      5  -0.000172(    42)     0
      7  H        2  -0.000004(     6)      1   0.000037(    25)      3   0.000165(    43)     0
      8  C        2   0.000013(     7)      1   0.000038(    26)      7   0.000138(    44)     0
      9  C        4   0.000025(     8)      1  -0.000131(    27)      2  -0.000104(    45)     0
     10  H        4  -0.000000(     9)      1   0.000039(    28)      9  -0.000033(    46)     0
     11  C        5   0.000002(    10)      3  -0.000448(    29)      1  -0.000129(    47)     0
     12  H        5  -0.000068(    11)      3  -0.000064(    30)     11   0.000011(    48)     0
     13  H        5   0.000006(    12)      3   0.000062(    31)     11  -0.000037(    49)     0
     14  H        8   0.000004(    13)      2   0.000058(    32)      1   0.000120(    50)     0
     15  C        8   0.000001(    14)      2   0.000016(    33)     14   0.000002(    51)     0
     16  H        9  -0.000041(    15)      4  -0.000008(    34)      1   0.000022(    52)     0
     17  C       11   0.000008(    16)      5  -0.000143(    35)      3   0.000326(    53)     0
     18  H       11  -0.000006(    17)      5   0.000011(    36)     17   0.000080(    54)     0
     19  H       15  -0.000024(    18)      8  -0.000004(    37)      2  -0.000002(    55)     0
     20  H       17   0.000001(    19)     11   0.000057(    38)      5  -0.000103(    56)     0
     21  H       17  -0.000004(    20)     11  -0.000040(    39)     20   0.000046(    57)     0
 -----------------------------------------------------------------------------------------------
 Internal  Forces:  Max     0.000448204 RMS     0.000126342

 GradGradGradGradGradGradGradGradGradGradGradGradGradGradGradGradGradGrad
 Berny optimization.
 Search for a local minimum.
 Step number   3 out of a maximum of   67
 All quantities printed in internal units (Hartrees-Bohrs-Radians)
 Update second derivatives using D2CorN and points    1    2    3
 DE= -9.29D-06 DEPred=-7.24D-06 R= 1.28D+00
 TightC=F SS=  1.41D+00  RLast= 1.42D-02 DXNew= 1.6818D-01 4.2622D-02
 Trust test= 1.28D+00 RLast= 1.42D-02 DXMaxT set to 1.00D-01
 ITU=  1  1  0
     Eigenvalues ---    0.01317   0.03423   0.03755   0.04804   0.05137
     Eigenvalues ---    0.06436   0.06982   0.08060   0.08755   0.10420
     Eigenvalues ---    0.12284   0.13408   0.17329   0.18306   0.19985
     Eigenvalues ---    0.20351   0.21205   0.21377   0.21702   0.23532
     Eigenvalues ---    0.23850   0.25564   0.26325   0.27305   0.28487
     Eigenvalues ---    0.29409   0.29676   0.30181   0.33452   0.34526
     Eigenvalues ---    0.34720   0.35303   0.35465   0.35503   0.35545
     Eigenvalues ---    0.35585   0.35617   0.35628   0.35766   0.36228
     Eigenvalues ---    0.40767   0.41795   0.47082   0.47236   0.47291
     Eigenvalues ---    0.47753   0.49421   0.50570   0.52024   0.58489
     Eigenvalues ---    0.59955   0.61657   0.82180   0.85782   2.83218
     Eigenvalues ---    4.15783  26.25650
 RFO step:  Lambda=-8.37591579D-06 EMin= 1.31702187D-02
 Quartic linear search produced a step of  0.13022.
 Variable       Old X    -DE/DX   Delta X   Delta X   Delta X     New X
                                 (Linear)    (Quad)   (Total)
    R2        2.62539   0.00009   0.00003   0.00026   0.00029   2.62568
    R3        3.44896   0.00001   0.00048   0.00120   0.00168   3.45064
    R4        2.62834  -0.00017  -0.00002  -0.00048  -0.00051   2.62783
    R5        3.53560  -0.00007   0.00004  -0.00026  -0.00021   3.53539
    R6        2.79391  -0.00004  -0.00014  -0.00033  -0.00047   2.79344
    R7        2.04763  -0.00000   0.00000  -0.00001  -0.00000   2.04762
    R8        2.62846   0.00001  -0.00002  -0.00004  -0.00006   2.62840
    R9        2.62760   0.00003  -0.00002   0.00008   0.00006   2.62766
   R10        2.04942  -0.00000   0.00001   0.00003   0.00004   2.04946
   R11        2.81625   0.00000   0.00004   0.00010   0.00014   2.81639
   R12        2.06615  -0.00007   0.00001  -0.00018  -0.00016   2.06598
   R13        2.06168   0.00001  -0.00001   0.00001   0.00000   2.06169
   R14        2.04691   0.00000   0.00000   0.00002   0.00003   2.04694
   R15        2.63055   0.00000   0.00002   0.00003   0.00005   2.63060
   R16        2.05032  -0.00004   0.00001  -0.00007  -0.00006   2.05026
   R17        2.51040   0.00001  -0.00001   0.00000  -0.00000   2.51040
   R18        2.05178  -0.00001  -0.00001  -0.00003  -0.00004   2.05174
   R19        2.04946  -0.00002   0.00001  -0.00003  -0.00002   2.04944
   R20        2.04454   0.00000   0.00001   0.00003   0.00004   2.04458
   R21        2.04743  -0.00000  -0.00000  -0.00002  -0.00002   2.04741
    A3        2.04571  -0.00026  -0.00041  -0.00116  -0.00157   2.04414
    A4        2.11071   0.00001   0.00001   0.00025   0.00026   2.11097
    A5        1.69129  -0.00005   0.00032  -0.00042  -0.00010   1.69119
    A6        1.84657  -0.00034   0.00003  -0.00175  -0.00173   1.84485
    A7        2.07095   0.00004  -0.00006  -0.00003  -0.00009   2.07086
    A8        2.08251   0.00004  -0.00002  -0.00003  -0.00005   2.08246
    A9        2.08508  -0.00013   0.00002  -0.00021  -0.00020   2.08488
   A10        2.09523   0.00004  -0.00006   0.00006  -0.00000   2.09523
   A11        1.90665  -0.00045  -0.00029  -0.00201  -0.00230   1.90435
   A12        1.85714  -0.00006   0.00017   0.00045   0.00062   1.85776
   A13        1.83025   0.00006  -0.00008   0.00050   0.00042   1.83068
   A14        2.08614   0.00006  -0.00003   0.00021   0.00018   2.08632
   A15        2.09805   0.00002   0.00001  -0.00015  -0.00014   2.09791
   A16        2.09047  -0.00001  -0.00000  -0.00019  -0.00019   2.09028
   A17        2.16073  -0.00014  -0.00003   0.00000  -0.00002   2.16071
   A18        2.03310   0.00001   0.00001  -0.00013  -0.00012   2.03298
   A19        2.09257  -0.00000  -0.00001  -0.00005  -0.00006   2.09251
   A20        2.11991   0.00006  -0.00002  -0.00004  -0.00006   2.11985
   A21        2.12714  -0.00004   0.00009   0.00022   0.00031   2.12745
    D4        3.09333  -0.00014   0.00093  -0.00642  -0.00549   3.08784
    D5       -1.75029   0.00039   0.00061   0.00497   0.00557  -1.74472
    D6        1.90347  -0.00017   0.00020  -0.00160  -0.00140   1.90207
    D7        0.00750   0.00017  -0.00088   0.00506   0.00418   0.01168
    D8       -3.11581   0.00014   0.00011   0.00340   0.00351  -3.11230
    D9        0.01733  -0.00010  -0.00013  -0.00418  -0.00432   0.01301
   D10       -3.12090  -0.00003  -0.00008   0.00432   0.00424  -3.11666
   D11       -3.10658  -0.00013   0.00019  -0.00028  -0.00008  -3.10667
   D12        2.13512   0.00001   0.00002  -0.00023  -0.00022   2.13491
   D13       -2.10946  -0.00004   0.00017   0.00053   0.00070  -2.10876
   D14       -3.15280   0.00012  -0.00023  -0.00118  -0.00140  -3.15420
   D15       -3.12743   0.00000   0.00009   0.00258   0.00267  -3.12476
   D16        3.15251   0.00002  -0.00005   0.00634   0.00629   3.15880
   D17       -1.70450   0.00033   0.00045   0.00355   0.00399  -1.70051
   D18        3.07823   0.00008  -0.00043  -0.00299  -0.00342   3.07481
   D19        3.12493  -0.00000   0.00008  -0.00559  -0.00551   3.11942
   D20        3.09393  -0.00010  -0.00037  -0.00353  -0.00390   3.09003
   D21       -3.11863   0.00005   0.00016   0.00094   0.00109  -3.11754
         Item               Value     Threshold  Converged?
 Maximum Force            0.000448     0.000450     YES
 RMS     Force            0.000126     0.000300     YES
 Maximum Displacement     0.006290     0.001800     NO 
 RMS     Displacement     0.002170     0.001200     NO 
 Predicted change in Energy=-4.004440D-06
 GradGradGradGradGradGradGradGradGradGradGradGradGradGradGradGradGradGrad

 ---------------------------------------------------------------------------------------------------
                            Z-MATRIX (ANGSTROMS AND DEGREES)
   CD    Cent   Atom    N1       Length/X        N2       Alpha/Y        N3        Beta/Z          J
 ---------------------------------------------------------------------------------------------------
      1      1  C 
      2      2  C        1   1.389452(     1)
      3      3  S        1   1.826000(     2)      2  117.120(    21)
      4      4  C        1   1.390587(     3)      2  120.950(    22)      3  176.920(    40)      0
      5      5  C        3   1.870849(     4)      1   96.898(    23)      2  -99.965(    41)      0
      6      6  O        3   1.478225(     5)      1  105.702(    24)      5  108.980(    42)      0
      7      7  H        2   1.083556(     6)      1  118.651(    25)      3    0.669(    43)      0
      8      8  C        2   1.390889(     7)      1  119.316(    26)      7 -178.322(    44)      0
      9      9  C        4   1.390500(     8)      1  119.455(    27)      2    0.745(    45)      0
     10     10  H        4   1.084529(     9)      1  120.048(    28)      9 -178.571(    46)      0
     11     11  C        5   1.490370(    10)      3  109.111(    29)      1 -177.999(    47)      0
     12     12  H        5   1.093270(    11)      3  106.442(    30)     11  122.321(    48)      0
     13     13  H        5   1.090997(    12)      3  104.890(    31)     11 -120.823(    49)      0
     14     14  H        8   1.083192(    13)      2  119.537(    32)      1 -180.722(    50)      0
     15     15  C        8   1.392055(    14)      2  120.202(    33)     14 -179.035(    51)      0
     16     16  H        9   1.084952(    15)      4  119.764(    34)      1  180.986(    52)      0
     17     17  C       11   1.328446(    16)      5  123.800(    35)      3  -97.432(    53)      0
     18     18  H       11   1.085732(    17)      5  116.481(    36)     17  176.174(    54)      0
     19     19  H       15   1.084518(    18)      8  119.892(    37)      2  178.730(    55)      0
     20     20  H       17   1.081944(    19)     11  121.458(    38)      5  177.046(    56)      0
     21     21  H       17   1.083444(    20)     11  121.894(    39)     20 -178.622(    57)      0
 ---------------------------------------------------------------------------------------------------
                         Z-Matrix orientation:                         
 ---------------------------------------------------------------------
 Center     Atomic      Atomic             Coordinates (Angstroms)
 Number     Number       Type             X           Y           Z
 ---------------------------------------------------------------------
      1          6           0        0.000000    0.000000    0.000000
      2          6           0        0.000000    0.000000    1.389452
      3         16           0        1.625234    0.000000   -0.832401
      4          6           0       -1.190869   -0.064069   -0.715162
      5          6           0        1.678707    1.829287   -1.220893
      6          8           0        2.622009   -0.222992    0.236178
      7          1           0        0.950813    0.011108    1.908995
      8          6           0       -1.211739   -0.049679    2.070476
      9          6           0       -2.399008   -0.113294   -0.028526
     10          1           0       -1.172250   -0.098729   -1.798978
     11          6           0        2.927474    2.131409   -1.976212
     12          1           0        0.770722    2.051934   -1.787666
     13          1           0        1.647513    2.323386   -0.248696
     14          1           0       -1.215459   -0.061723    3.153595
     15          6           0       -2.410174   -0.103905    1.364340
     16          1           0       -3.330304   -0.179547   -0.581173
     17          6           0        4.034856    2.603736   -1.414623
     18          1           0        2.925074    1.885647   -3.033761
     19          1           0       -3.351109   -0.163321    1.900336
     20          1           0        4.935771    2.765503   -1.991498
     21          1           0        4.089898    2.825456   -0.355538
 ---------------------------------------------------------------------
                    Distance matrix (angstroms):
                    1          2          3          4          5
     1  C    0.000000
     2  C    1.389452   0.000000
     3  S    1.826000   2.752820   0.000000
     4  C    1.390587   2.419024   2.819271   0.000000
     5  C    2.766754   3.602534   1.870849   3.474914   0.000000
     6  O    2.642052   2.873099   1.478225   3.932982   2.687885
     7  H    2.132705   1.083556   2.823158   3.388016   3.692128
     8  C    2.399511   1.390889   4.059259   2.785754   4.766372
     9  C    2.401851   2.789038   4.105310   1.390500   4.671522
    10  H    2.149474   3.398530   2.961408   1.084529   3.489897
    11  C    4.125339   4.943754   2.747187   4.834369   1.490370
    12  H    2.828461   3.859860   2.419329   3.078241   1.093270
    13  H    2.859068   3.285719   2.395690   3.738174   1.090997
    14  H    3.380283   2.143210   4.895050   3.868836   5.575685
    15  C    2.771491   2.412544   4.595758   2.410938   5.209569
    16  H    3.385398   3.873825   4.965149   2.146734   5.434597
    17  C    5.006062   5.560786   3.595094   5.908860   2.487718
    18  H    4.616863   5.628191   3.176670   5.110605   2.200703
    19  H    3.855889   3.393760   5.679658   3.393717   6.245927
    20  H    5.997992   6.590954   4.466673   6.868132   3.475457
    21  H    4.983661   5.268345   3.779573   6.030355   2.748643
                    6          7          8          9         10
     6  O    0.000000
     7  H    2.376134   0.000000
     8  C    4.253506   2.169424   0.000000
     9  C    5.029186   3.871790   2.412356   0.000000
    10  H    4.307401   4.274169   3.869966   2.153984   0.000000
    11  C    3.245178   4.847443   6.185945   6.099474   4.670403
    12  H    3.563495   4.226429   4.819978   4.222555   2.898382
    13  H    2.769257   3.238464   4.380105   4.728659   4.027540
    14  H    4.823224   2.499414   1.083192   3.395488   4.952900
    15  C    5.158469   3.406774   1.392055   1.392942   3.396919
    16  H    6.008325   4.956333   3.396531   1.084952   2.479269
    17  C    3.565343   5.222976   6.834712   7.120261   5.879200
    18  H    3.902654   5.642911   6.849230   6.432189   4.717044
    19  H    6.200896   4.305465   2.149131   2.151629   4.293777
    20  H    4.387156   6.219360   7.887761   8.120327   6.748986
    21  H    3.434801   4.785658   6.500716   7.130855   6.190685
                   11         12         13         14         15
    11  C    0.000000
    12  H    2.166437   0.000000
    13  H    2.158580   1.791892   0.000000
    14  H    6.949004   5.729618   5.045883   0.000000
    15  C    6.681797   4.969998   4.995844   2.151873   0.000000
    16  H    6.815162   4.822192   5.581565   4.293593   2.153457
    17  C    1.328446   3.331399   2.671589   7.452456   7.522790
    18  H    1.085732   2.494321   3.095216   7.695430   7.194893
    19  H    7.727484   5.958036   5.982329   2.478301   1.084518
    20  H    2.106079   4.230646   3.747729   8.503107   8.570768
    21  H    2.111757   3.696791   2.495744   6.985459   7.334172
                   16         17         18         19         20
    16  H    0.000000
    17  C    7.917504   0.000000
    18  H    7.029222   2.090185   0.000000
    19  H    2.481649   8.555584   8.242212   0.000000
    20  H    8.887650   1.081944   2.429683   9.612323   0.000000
    21  H    8.008767   1.083444   3.068051   8.330086   1.842678
                   21
    21  H    0.000000
 Symmetry turned off by external request.
 Stoichiometry    C9H10OS
 Framework group  C1[X(C9H10OS)]
 Deg. of freedom    57
 Full point group                 C1      NOp   1
 Rotational constants (GHZ):           2.4091228           0.5213067           0.4874643
 Standard basis: def2TZVP (5D, 7F)
 The following finite field(s) will be applied:
 An electric field of             -0.0098  0.0020 -0.0006
   407 basis functions,   659 primitive gaussians,   462 cartesian basis functions
    44 alpha electrons       44 beta electrons
       nuclear repulsion energy       664.9202273366 Hartrees.
 NAtoms=   21 NActive=   21 NUniq=   21 SFac= 1.00D+00 NAtFMM=   60 NAOKFM=F Big=F
 Integral buffers will be    131072 words long.
 Raffenetti 2 integral format.
 Two-electron integral symmetry is turned off.
 One-electron integrals computed using PRISM.
   1 Symmetry operations used in ECPInt.
 ECPInt:  NShTT=   13366 NPrTT=   41614 LenC2=   12463 LenP2D=   29251.
[...]
 01895,0.00106837,0.00175384,0.02501150,-0.00099049,-0.00046402,-0.0132
 9720,-0.00325067,-0.00029939,-0.00001347,0.00114585,-0.00025502,0.0000
 4307,0.00516658,-0.00932062,-0.32807023,-0.00046470,0.00032963,-0.0001
 1630,-0.00028104,0.00030523,-0.00025044,0.00055376,0.00006228,-0.00063
 983,-0.00023844,0.00003480,0.00073529,-0.00213555,-0.00008569,-0.01165
 161,-0.00328393,0.01009955,0.35173875,0.00156813,-0.00136583,0.0006091
 2,-0.00010045,0.00041338,0.00019278,-0.00748282,-0.02554555,0.00598361
 ,0.00003887,0.00040897,-0.00049662,-0.16876667,-0.00388252,0.04987552,
 0.00015152,0.00245795,-0.00130521,-0.00014706,-0.00010277,0.00012173,-
 0.00001138,0.00013670,0.00015299,0.00014612,-0.00001375,-0.00002726,-0
 .00003494,0.00004419,0.00006314,0.67319796,0.00106845,-0.00694771,0.00
 106621,-0.00122592,0.00024562,0.00050699,-0.02411373,-0.01165918,0.013
 68572,-0.00060921,0.00036001,0.00052976,-0.02656628,-0.06567400,0.0102
 6585,-0.00026159,0.00168540,-0.00096532,-0.00008305,-0.00046780,0.0000
 2438,0.00014350,0.00071538,0.00008718,0.00001937,0.00054643,-0.0001147
 2,-0.00004703,-0.00034257,-0.00019608,0.18425998,0.21706440,0.00064516
 ,-0.00099472,0.00101052,-0.00024996,0.00007965,-0.00014161,0.00144434,
 0.01169090,-0.00453629,-0.00061930,-0.00009356,0.00044670,0.05745221,0
 .00085924,-0.12947241,0.00128537,-0.00086838,0.00205608,0.00005362,-0.
 00020987,-0.00005785,-0.00046871,0.00019888,0.00014536,0.00049991,-0.0
 0008364,-0.00050223,0.00008937,0.00018234,0.00004063,0.10239153,0.1111
 5662,0.65701735,-0.00025899,-0.00017714,0.00051707,0.00016458,-0.00012
 450,-0.00041772,0.00068510,0.00122591,0.00072845,-0.00022973,-0.000318
 61,0.00009652,-0.21763164,0.04851186,-0.11219259,0.00035156,-0.0008960
 8,0.00017050,-0.00000804,0.00001086,0.00002142,-0.00017515,-0.00001344
 ,0.00008121,0.00003013,-0.00013243,0.00007556,-0.00001710,-0.00000971,
 0.00022560,-0.02227221,0.00517246,-0.01554047,0.23992340,-0.00004297,0
 .00056926,-0.00080685,-0.00041365,0.00010908,0.00055313,0.01800455,-0.
 00309572,0.01320057,-0.00003572,0.00039023,0.00043396,0.05497793,-0.05
 343857,0.02897438,0.00186944,-0.00912107,0.00267263,0.00018889,-0.0000
 2401,-0.00013328,0.00056331,-0.00013034,-0.00001973,-0.00057265,0.0000
 3994,0.00020063,-0.00017803,-0.00039834,-0.00011926,-0.00957516,0.0024
 2927,-0.00478096,-0.05181502,0.05749514,0.00000281,-0.00027363,0.00027
 220,0.00017641,-0.00000682,-0.00043000,-0.00327378,-0.00031466,-0.0043
 5612,0.00011399,-0.00014369,0.00001778,-0.11195485,0.02769530,-0.11960
 065,-0.00052791,0.00277107,0.00058868,-0.00010046,-0.00005926,0.000123
 27,-0.00026238,0.00004833,0.00003793,0.00035169,-0.00014996,-0.0001174
 1,-0.00001266,0.00012559,0.00019067,0.01521197,-0.00467743,0.01026436,
 0.12025362,-0.03488363,0.12474802,-0.00000536,-0.00018827,-0.00079994,
 0.00018849,0.00017279,0.00005509,0.00080984,-0.00092804,-0.00091885,-0
 .00045472,-0.00002947,-0.00012473,-0.04918946,0.00328789,0.00363886,-0
 .00053474,0.00039169,0.00042729,0.00011573,-0.00007806,-0.00001667,-0.
 00029225,0.00005168,0.00009112,0.00007851,-0.00003597,-0.00015185,0.00
 007289,0.00002255,0.00009977,0.00022687,0.01134034,0.02570231,0.001207
 57,-0.01245845,-0.02117179,0.04996322,0.00232152,0.00205388,-0.0004881
 9,-0.00020326,0.00021356,0.00011156,-0.00521389,-0.03036978,-0.0220939
 7,-0.00075680,0.00029358,0.00003461,0.00690206,-0.08591081,-0.10978203
 ,0.00077877,0.00808891,0.00301043,0.00003552,-0.00012509,0.00013540,-0
 .00040757,-0.00011193,0.00019489,0.00043956,-0.00023158,-0.00050040,0.
 00005929,0.00002602,-0.00003150,-0.00222099,0.00369962,0.00789212,-0.0
 0060068,0.00496862,0.00851085,-0.00028132,0.09654417,-0.00068201,0.000
 33759,0.00111140,-0.00033731,-0.00020333,0.00024955,0.00066997,0.00546
 096,0.00298990,-0.00017771,-0.00004489,-0.00002838,0.00416101,-0.10301
 431,-0.26444986,0.00100996,-0.00157853,0.00081947,0.00003547,0.0000464
 7,-0.00000496,0.00017767,-0.00001127,0.00000944,-0.00001353,-0.0000361
 7,0.00010820,0.00001111,0.00006881,0.00001734,0.00138756,-0.00581531,-
 0.01574435,0.00128293,-0.00670399,-0.01170313,-0.00866697,0.11092537,0
 .28421903,-0.00442404,-0.00047515,0.00319164,0.00379826,0.00001763,0.0
 2884048,0.00047770,-0.00003289,0.00142905,-0.00127712,-0.00001345,-0.0
 0001443,-0.00004004,0.00009720,0.00006182,-0.00006344,0.00003437,-0.00
 060876,0.00113784,0.00013171,-0.00055402,-0.05934011,-0.00078387,0.000
 45533,-0.00432479,-0.00046305,-0.00221366,0.00012920,0.00004232,0.0000
 2003,0.00000448,-0.00009938,-0.00007149,0.00000127,-0.00000824,0.00000
 320,0.00000337,-0.00003773,-0.00000279,0.05852770,-0.00036092,0.007588
 63,-0.00016673,-0.00007941,0.00300276,0.00114712,-0.00007258,-0.000111
 21,-0.00022920,0.00028740,-0.00087329,0.00012798,0.00000424,0.00000816
 ,-0.00000891,0.00005731,0.00018013,0.00000228,-0.00005741,-0.00391222,
 -0.00011021,-0.00077894,-0.03538454,0.00311439,-0.00052643,0.00800676,
 -0.00014318,0.00006344,-0.00133851,0.00003342,0.00000177,-0.00002465,0
 .00001304,0.00001624,-0.00000431,-0.00000009,-0.00002987,0.00000030,0.
 00001997,0.00104249,0.02516302,0.00320107,0.00029614,0.00012008,-0.001
 14805,0.00006392,-0.01204918,-0.00067949,-0.00002081,-0.00067929,0.000
 21679,0.00002658,0.00073528,0.00004104,-0.00010327,-0.00004727,0.00015
 344,-0.00000727,0.00035836,-0.00008599,-0.00008575,0.00080386,0.000507
 10,0.00244171,-0.33426408,-0.00318231,-0.00007747,0.00075095,-0.000006
 71,-0.00001690,-0.00006893,-0.00001382,0.00010232,0.00007125,-0.000001
 90,0.00001039,-0.00000323,0.00000078,0.00001939,0.00000374,-0.00137792
 ,-0.00280831,0.35556578,-0.01565305,-0.00004645,-0.02822721,-0.0590420
 4,-0.00204042,0.02378300,0.00013578,-0.00033012,0.00015364,0.02829032,
 0.00154988,0.02879559,-0.00073829,0.00119097,-0.00003582,-0.00036369,-
 0.00049370,0.00006378,-0.00221996,-0.00040588,0.00331723,-0.27248034,-
 0.00767464,-0.12000333,-0.12519649,-0.00413523,0.03295758,-0.00445428,
 -0.00048277,0.00320863,0.00002155,-0.00046634,0.00007850,0.00010902,-0
 .00016739,0.00014257,0.00010131,0.00013059,-0.00015155,0.00440406,0.00
 024389,0.00259631,0.70508052,-0.00091834,-0.00369698,-0.00123784,-0.00
 215837,0.00349017,0.00047702,0.00005711,-0.00070929,-0.00035505,0.0022
 0512,0.00100115,0.00094772,-0.00008496,0.00006599,0.00008894,0.0000928
 0,-0.00001394,0.00026431,-0.00007245,0.00721558,0.00044274,-0.00869979
 ,-0.05178526,-0.00399473,-0.00443678,-0.04629273,0.00015307,-0.0006830
 4,0.00805203,-0.00022218,-0.00005285,-0.00006722,0.00002001,0.00001469
 ,-0.00003133,0.00004110,-0.00000557,-0.00000591,0.00001996,0.00045049,
 0.00074224,0.00021586,0.02514545,0.11274310,-0.03144201,-0.00229615,-0
 .05121647,-0.02324206,-0.00072584,0.06427822,0.00053626,0.00121926,-0.
 00343117,0.07822172,0.00226366,-0.02819125,0.00028997,-0.00005878,0.00
 034369,0.00009165,-0.00077736,0.00099648,0.00315277,0.00025214,-0.0011
 1980,-0.05571019,-0.00047323,-0.18129071,-0.03041331,-0.00407104,-0.32
 489655,0.00196243,0.00004856,0.00104690,0.00004200,0.00022698,0.000534
 82,0.00001814,-0.00047646,0.00017779,0.00018913,0.00049469,-0.00008006
 ,-0.02838345,-0.00097065,-0.01150098,-0.03221686,-0.00072173,0.6699856
 2,-0.00399173,-0.00055261,0.00437996,0.00011348,0.00008616,0.00096127,
 0.00099446,-0.00011904,-0.00117183,-0.02023594,-0.00119762,-0.01700296
 ,-0.00009642,0.00007941,0.00011177,-0.00097353,0.00017482,-0.00020334,
 -0.00005667,0.00007640,-0.00004588,0.00195281,-0.00038235,0.00004904,-
 0.25499907,-0.01274143,-0.11662980,0.00111729,0.00023751,0.00029022,0.
 00006061,-0.00015797,-0.00009157,0.00000698,-0.00004525,0.00001914,-0.
 00000061,-0.00000301,0.00000126,-0.00006963,-0.00001909,0.00018248,0.0
 0254549,0.00027528,0.00195159,0.27272305,-0.00020551,0.00808720,0.0003
 0454,0.00018875,-0.00126915,-0.00016424,0.00007803,0.00042319,-0.00018
 834,-0.00067891,-0.00036291,-0.00062424,-0.00004654,0.00006938,0.00001
 418,-0.00015076,-0.00024973,0.00013954,0.00001794,-0.00114059,-0.00001
 528,-0.00029441,0.00826774,-0.00003432,-0.01330919,-0.02937437,-0.0076
 6908,0.00014199,-0.00347707,0.00018894,-0.00000748,-0.00004082,-0.0000
 2194,0.00002623,0.00002532,0.00002064,0.00001081,-0.00000133,-0.000028
 93,-0.00004879,0.00030735,0.00000768,0.00000464,-0.00159300,0.00019105
 ,0.01407483,0.02334501,0.00306733,0.00000858,-0.00035578,0.00087150,-0
 .00000978,-0.00077045,0.00018382,-0.00002424,0.00043673,0.01393686,0.0
 0080639,0.01103302,-0.00002601,0.00003411,-0.00004681,0.00031371,-0.00
 004412,0.00003688,-0.00002372,0.00000774,0.00007498,0.00169951,-0.0000
 3561,-0.00579112,-0.11664550,-0.00713063,-0.12837361,-0.00066479,0.000
 07778,0.00093207,-0.00000500,-0.00001637,-0.00002024,-0.00000152,0.000
 03463,-0.00000777,-0.00000057,-0.00000316,0.00000050,-0.00143687,-0.00
 002561,-0.00062763,-0.02971473,-0.00167780,-0.01068121,0.12777824,0.00
 790410,0.13304755,-0.00029023,0.00019050,-0.00037358,0.00027714,-0.000
 26103,-0.00032431,-0.00204594,0.00652889,-0.00181478,-0.00006275,-0.00
 022100,0.00019900,-0.03619853,-0.01871832,-0.00531479,0.00171874,-0.00
 036824,0.00067589,0.00002404,0.00002484,-0.00001351,-0.00022366,-0.000
 02119,-0.00005637,0.00010570,-0.00000380,-0.00007963,0.00002520,0.0000
 8009,0.00003869,-0.40717927,-0.13233117,-0.16253555,-0.00294936,-0.000
 69922,0.00141724,0.00165296,0.00076283,-0.00200776,0.00000249,0.000023
 11,-0.00000242,0.00007582,0.00002168,0.00014163,-0.00001218,-0.0000014
 8,-0.00000417,0.75426427,0.00028568,-0.00000550,0.00025882,-0.00015830
 ,-0.00001194,0.00009098,-0.00015296,0.00105404,-0.00032752,-0.00001666
 ,-0.00004005,0.00005166,-0.00999211,0.00115949,-0.00218896,-0.00044626
 ,-0.00030880,-0.00021953,0.00000243,-0.00001939,-0.00003173,-0.0000149
 9,0.00004604,-0.00000909,0.00004883,-0.00002061,-0.00003349,0.00001632
 ,0.00002090,-0.00002448,-0.12968637,-0.10101629,-0.07067619,0.00051883
 ,0.00056002,0.00062980,0.00005596,-0.00016015,0.00051234,-0.00001398,0
 .00000130,0.00001728,-0.00003731,0.00001465,0.00005955,-0.00002220,-0.
 00000634,-0.00000871,0.19217810,0.18851652,-0.00102719,0.00157439,-0.0
 0010045,0.00039064,-0.00015067,-0.00019135,0.00453927,0.00233981,0.000
 27919,0.00024350,-0.00010965,-0.00012236,0.01227954,0.00251313,0.01378
 121,-0.00121071,-0.00074531,-0.00120638,0.00006364,0.00014391,0.000025
 20,-0.00006470,-0.00019955,0.00001423,-0.00018844,-0.00007394,0.000093
 46,-0.00002094,0.00001607,-0.00000238,-0.16006085,-0.07183530,-0.20232
 640,0.00435740,0.00145913,-0.00138591,0.00092265,0.00108495,0.00147098
 ,0.00004125,0.00001494,-0.00005179,0.00020438,0.00000578,-0.00016381,0
 .00006171,0.00000756,0.00001631,0.05023990,0.09775677,0.67290078,-0.00
 008235,-0.00019402,-0.00024548,-0.00000557,-0.00003225,-0.00000071,-0.
 00022109,0.00098722,0.00022108,0.00006849,0.00000175,0.00010828,-0.000
 72715,0.00442828,0.02703916,0.00034216,-0.00007041,0.00007631,-0.00001
 109,0.00003198,-0.00003286,0.00007287,-0.00000924,-0.00007331,-0.00002
 928,0.00002639,0.00002964,-0.00001266,-0.00003339,-0.00001222,-0.05358
 647,-0.00560739,0.00246678,0.00123395,0.00053280,-0.00078044,-0.003911
 89,-0.00201754,0.00270168,0.00000087,-0.00000194,0.00000566,-0.0000676
 5,0.00000921,-0.00002509,-0.00002232,0.00000029,-0.00000330,0.00188730
 ,-0.00619072,-0.03009696,0.05730517,0.00004028,0.00000499,-0.00029277,
 0.00006311,-0.00003926,0.00005557,-0.00012437,0.00073439,0.00023781,0.
 00002809,0.00002252,-0.00007548,-0.00027765,0.00301112,0.00689501,0.00
 032975,-0.00019849,0.00004711,-0.00001515,0.00001900,0.00000753,0.0000
 9604,-0.00000601,-0.00005342,-0.00000083,-0.00000204,0.00006172,-0.000
 01783,-0.00000012,0.00001864,-0.00593191,-0.04901682,-0.04893666,-0.00
 030373,-0.00004758,-0.00028767,-0.00104383,0.00100344,0.00003057,0.000
 01570,-0.00000035,-0.00001111,-0.00005686,-0.00000183,-0.00005540,0.00
 001593,0.00000716,-0.00000029,-0.00085233,0.00400242,-0.01164595,0.010
 26518,0.03751179,0.00006766,0.00051611,0.00026303,-0.00006700,-0.00000
 570,0.00001801,0.00049392,-0.00101915,-0.00058561,-0.00000522,-0.00000
 391,-0.00008034,-0.00075879,-0.00285473,-0.01171080,-0.00019784,0.0002
 2601,-0.00002764,-0.00000274,-0.00000374,0.00001189,-0.00002035,-0.000
 04312,0.00005257,0.00000750,-0.00003564,-0.00000074,0.00001453,0.00002
 090,0.00000250,-0.00057257,-0.04787108,-0.31788834,0.00052882,0.000118
 01,0.00082044,0.00191558,0.00071177,0.00018604,-0.00000515,0.00000255,
 -0.00000122,0.00003722,-0.00000005,0.00000130,0.00001727,-0.00000198,0
 .00000250,-0.00007113,-0.00322738,-0.01293551,0.00038281,0.05439481,0.
 33986412,0.00024804,0.00006160,-0.00107566,-0.00353199,-0.00047391,-0.
 00445415,0.00006693,0.00010583,-0.00016844,0.00188994,-0.00044012,0.00
 012003,-0.00000621,0.00002607,0.00001173,-0.00017904,-0.00000143,0.000
 26263,-0.00066676,-0.00004193,0.00096612,-0.01973831,-0.00101195,0.017
 19168,0.00212726,0.00023952,-0.00191423,-0.00006330,-0.00001539,-0.000
 15167,0.00002543,-0.00005508,-0.00004521,-0.00000176,-0.00000357,0.000
 00119,0.00000677,0.00001970,0.00000006,0.00105459,0.00018932,-0.000407
 08,-0.26054923,-0.01116008,0.11481062,0.00094217,0.00020279,0.00067491
 ,-0.00000871,-0.00001913,0.00003572,-0.00001303,0.00000664,0.00000812,
 0.27839311,0.00033487,-0.00161122,-0.00017588,-0.00062632,0.00819125,0
 .00014539,-0.00026256,-0.00069861,-0.00005188,-0.00042188,0.00838140,-
 0.00021488,-0.00016984,0.00001612,0.00010428,-0.00002222,-0.00007271,0
 .00009086,0.00007449,0.00014416,0.00000609,-0.00015888,-0.00039775,0.0
 0080323,0.00051611,-0.00174759,-0.00045176,0.00005390,0.00026701,-0.00
 009099,-0.00000415,-0.00010858,-0.00001237,0.00001364,-0.00002110,0.00
 001293,-0.00000157,0.00000465,0.00000864,0.00013274,-0.00335632,-0.000
 05176,-0.01199064,-0.02912086,0.00590035,0.00018419,-0.00302764,0.0000
 9856,0.00000386,-0.00000893,0.00002794,-0.00000287,0.00000265,0.000006
 13,0.01235084,0.02315188,-0.00096026,-0.00003702,-0.00089510,-0.003126
 19,0.00002761,-0.00064371,-0.00023794,-0.00001111,-0.00001704,-0.00130
 478,-0.00018566,-0.00576093,-0.00003067,0.00001832,-0.00002326,0.00015
 044,-0.00000621,0.00018687,-0.00057649,-0.00002591,0.00037458,-0.01428
 726,-0.00073037,0.01151698,0.02979442,0.00157377,-0.01040061,0.0014057
 2,0.00003734,-0.00063439,-0.00000477,0.00001362,0.00004080,0.00001316,
 -0.00003051,0.00002132,0.00001086,0.00001102,-0.00000352,0.00063052,-0
 .00000863,0.00087914,0.11503424,0.00553212,-0.12481316,-0.00065714,-0.
 00002782,0.00109556,0.00001150,0.00000764,-0.00002006,0.00000133,-0.00
 000401,-0.00000182,-0.12586658,-0.00614899,0.12909700,0.00006938,-0.00
 034635,0.00003514,-0.00004513,-0.00000779,-0.00000888,-0.00103908,0.00
 049708,-0.00006965,-0.00003849,-0.00000296,0.00005747,-0.00098139,-0.0
 0386127,-0.00198830,0.00026897,0.00003915,0.00017702,-0.00000267,-0.00
 002502,-0.00000370,-0.00001187,0.00003612,-0.00000471,0.00003070,0.000
 02736,-0.00002638,0.00000278,-0.00000412,-0.00001014,-0.01718155,-0.00
 456225,0.01501324,-0.00019235,-0.00016728,0.00020795,0.00020706,0.0000
 8002,-0.00017409,-0.00000716,0.00000006,0.00000851,-0.00002735,0.00000
 027,0.00004164,-0.00001395,-0.00000371,-0.00000278,-0.25359859,-0.0411
 0482,0.12636133,0.00049048,0.00218327,-0.00031980,-0.00000636,-0.00000
 534,0.00000348,0.26708561,-0.00028614,0.00071293,0.00009261,0.00016216
 ,-0.00003039,-0.00013778,0.00213985,0.00049591,-0.00044177,0.00014906,
 -0.00007585,-0.00009258,-0.00390709,0.01064664,-0.00393464,-0.00020941
 ,-0.00031186,0.00000331,-0.00000488,0.00005964,0.00000894,-0.00005743,
 -0.00008575,0.00001800,-0.00001531,-0.00007248,0.00004410,0.00000785,0
 .00006113,0.00004498,-0.00957116,0.00349797,0.00582055,-0.00200602,-0.
 00083723,0.00084423,-0.00007585,-0.00002455,0.00045748,0.00001182,0.00
 000403,-0.00001593,0.00009962,0.00000286,-0.00004980,0.00002818,0.0000
 0898,0.00000450,-0.03970795,-0.04700142,0.01987289,0.00236300,-0.00682
 324,0.00134742,0.00001095,0.00001734,-0.00000195,0.04749709,0.03527405
 ,0.00012267,-0.00033809,0.00003462,-0.00007152,0.00000669,0.00001271,-
 0.00095532,0.00040098,-0.00016050,-0.00004785,-0.00000006,0.00003862,-
 0.00166210,-0.00302126,-0.00029043,0.00035334,0.00021674,0.00027172,-0
 .00001366,-0.00003922,0.00000461,0.00000532,0.00004227,0.00000344,0.00
 003089,0.00002370,-0.00001943,0.00000295,-0.00000741,-0.00000522,-0.01
 473412,-0.00380186,0.01060116,-0.00021851,0.00020303,0.00019337,-0.000
 30190,0.00004031,0.00018718,-0.00000744,-0.00000304,0.00000760,-0.0000
 3216,0.00000107,0.00003209,-0.00000867,-0.00000217,-0.00000140,0.13080
 260,0.02219481,-0.13986629,-0.00023541,0.00132035,0.00104640,-0.000002
 22,-0.00000604,0.00000219,-0.13634344,-0.02128565,0.13812416,-0.000046
 28,0.00014825,0.00008632,0.00002163,0.00001570,-0.00002328,0.00023084,
 -0.00032755,-0.00015182,0.00003244,-0.00000984,-0.00005399,0.00155242,
 0.00221472,-0.00213877,-0.00010102,0.00018890,0.00001136,-0.00000851,-
 0.00001590,0.00002343,-0.00001656,-0.00001168,0.00002449,-0.00000908,-
 0.00001126,0.00001656,-0.00000121,0.00000524,0.00000659,0.00132128,-0.
 00581769,-0.02750007,0.00002278,0.00004567,0.00018249,-0.00024554,0.00
 021294,0.00077506,0.00000450,-0.00000269,-0.00000747,0.00002852,0.0000
 0015,-0.00001660,0.00001570,0.00000048,0.00000309,-0.05746441,-0.00525
 035,-0.00707113,-0.00271075,-0.00441950,-0.00145285,0.00001047,0.00000
 164,-0.00000358,0.00499097,0.00337168,0.02331655,0.05237182,0.00023426
 ,-0.00051746,-0.00007517,-0.00004335,0.00002423,0.00003793,-0.00214067
 ,0.00013997,-0.00057064,-0.00006133,0.00003728,-0.00001941,0.00182272,
 -0.00732673,0.00212950,0.00098692,0.00038055,0.00056732,-0.00005000,-0
 .00004466,0.00003151,0.00002896,0.00004573,-0.00000179,0.00003213,0.00
 004635,-0.00000877,-0.00001341,-0.00003025,-0.00000823,0.00023755,0.00
 512153,-0.01123505,0.00088664,0.00056271,0.00009700,-0.00017743,0.0000
 4437,-0.00045143,0.00000006,0.00000073,-0.00000269,-0.00003728,-0.0000
 0944,0.00002020,0.00000785,0.00000161,-0.00000010,-0.00662818,-0.04677
 597,-0.04205690,-0.00448632,0.00981624,-0.00227722,0.00000934,-0.00000
 515,-0.00000325,-0.00026951,0.00448128,0.00405487,0.00966109,0.0340070
 7,0.00000399,-0.00001986,0.00010196,0.00000613,-0.00000626,-0.00000411
 ,-0.00017701,0.00006027,-0.00025764,0.00003814,-0.00000576,-0.00003571
 ,0.00098165,0.00159362,0.00110239,0.00028203,0.00028699,0.00007791,-0.
 00000345,0.00000775,0.00001366,-0.00000363,0.00000313,0.00000889,-0.00
 000426,0.00000280,0.00001743,0.00000035,0.00000011,0.00000277,0.001188
 26,-0.00237215,-0.01153933,0.00000233,0.00009418,0.00014838,-0.0009001
 6,-0.00027812,0.00064149,0.00000267,-0.00000113,-0.00000245,0.00000900
 ,-0.00000032,-0.00001175,0.00000723,0.00000012,-0.00000009,-0.01092844
 ,-0.04483258,-0.33020869,-0.00152695,-0.00170639,0.00096322,0.00000242
 ,0.00000018,-0.00000082,-0.00295391,-0.00259889,-0.01021663,0.01397361
 ,0.04977231,0.34919911\\-0.00190302,-0.00393822,-0.00000506,0.00192155
 ,0.00134084,-0.00000198,-0.00000139,0.00257632,0.00001897,-0.00001356,
 -0.00000234,0.00000505,0.00000288,0.00001283,-0.00001989,-0.00000329,0
 .00000512,-0.00000774,-0.00000037,0.00000307,-0.00000087,-0.00000905,-
 0.00000060,-0.00000259,0.00000587,-0.00000029,-0.00000900,0.00000031,-
 0.00000026,-0.00000027,-0.00001483,0.00002794,0.00000088,-0.00000088,-
 0.00000200,0.00000399,-0.00000315,0.00000002,0.00000053,0.00000081,0.0
 0000102,-0.00000007,0.00000284,0.00000271,0.00000913,0.00000044,0.0000
 0052,0.00000087,0.00001649,-0.00005157,0.00000789,0.00000770,-0.000004
 54,0.00000120,0.00000046,-0.00000097,-0.00000096,-0.00000083,0.0000128
 4,0.00000252,-0.00000897,0.00001758,-0.00000261\\\@


 ...THE PHYSICISTS HAVE MADE THEIR UNIVERSE, AND IF YOU DO NOT LIKE
 IT, YOU MUST MAKE YOUR OWN.
                               -- E. R. HARRISON IN "COSMOLOGY" (1980)
 Job cpu time:       0 days  3 hours 15 minutes 24.4 seconds.
 Elapsed time:       0 days  0 hours 16 minutes 17.5 seconds.
 File lengths (MBytes):  RWF=    290 Int=      0 D2E=      0 Chk=     32 Scr=      1
 Normal termination of Gaussian 16 at Fri Jun 10 14:10:00 2022.
