 Entering Gaussian System, Link 0=g16
 Input=ts_initalOptXYZ_aligned_sp.gjf
 Output=ts_initalOptXYZ_aligned_sp.out
 Initial command:
 /software/gaussian/g16-a03/l1.exe "/local_scratch/11171684/Gau-14236.inp" -scrdir="/local_scratch/11171684/"
 Entering Link 1 = /software/gaussian/g16-a03/l1.exe PID=     14237.
  
 Copyright (c) 1988,1990,1992,1993,1995,1998,2003,2009,2016,
            Gaussian, Inc.  All Rights Reserved.
  
 This is part of the Gaussian(R) 16 program.  It is based on
 the Gaussian(R) 09 system (copyright 2009, Gaussian, Inc.),
 the Gaussian(R) 03 system (copyright 2003, Gaussian, Inc.),
 the Gaussian(R) 98 system (copyright 1998, Gaussian, Inc.),
 the Gaussian(R) 94 system (copyright 1995, Gaussian, Inc.),
 the Gaussian 92(TM) system (copyright 1992, Gaussian, Inc.),
 the Gaussian 90(TM) system (copyright 1990, Gaussian, Inc.),
 the Gaussian 88(TM) system (copyright 1988, Gaussian, Inc.),
 the Gaussian 86(TM) system (copyright 1986, Carnegie Mellon
 University), and the Gaussian 82(TM) system (copyright 1983,
 Carnegie Mellon University). Gaussian is a federally registered
 trademark of Gaussian, Inc.
  
 This software contains proprietary and confidential information,
 including trade secrets, belonging to Gaussian, Inc.
  
 This software is provided under written license and may be
 used, copied, transmitted, or stored only in accord with that
 written license.
  
 The following legend is applicable only to US Government
 contracts under FAR:
  
                    RESTRICTED RIGHTS LEGEND
  
 Use, reproduction and disclosure by the US Government is
 subject to restrictions as set forth in subparagraphs (a)
 and (c) of the Commercial Computer Software - Restricted
 Rights clause in FAR 52.227-19.
  
 Gaussian, Inc.
 340 Quinnipiac St., Bldg. 40, Wallingford CT 06492
  
  
 ---------------------------------------------------------------
 Warning -- This program may not be used in any manner that
 competes with the business of Gaussian, Inc. or will provide
 assistance to any competitor of Gaussian, Inc.  The licensee
 of this program is prohibited from giving any competitor of
 Gaussian, Inc. access to this program.  By using this program,
 the user acknowledges that Gaussian, Inc. is engaged in the
 business of creating and licensing software in the field of
 computational chemistry and represents and warrants to the
 licensee that it is not a competitor of Gaussian, Inc. and that
 it will not use this program in any manner prohibited above.
 ---------------------------------------------------------------
  

 Cite this work as:
 Gaussian 16, Revision A.03,
 M. J. Frisch, G. W. Trucks, H. B. Schlegel, G. E. Scuseria, 
 M. A. Robb, J. R. Cheeseman, G. Scalmani, V. Barone, 
 G. A. Petersson, H. Nakatsuji, X. Li, M. Caricato, A. V. Marenich, 
 J. Bloino, B. G. Janesko, R. Gomperts, B. Mennucci, H. P. Hratchian, 
 J. V. Ortiz, A. F. Izmaylov, J. L. Sonnenberg, D. Williams-Young, 
 F. Ding, F. Lipparini, F. Egidi, J. Goings, B. Peng, A. Petrone, 
 T. Henderson, D. Ranasinghe, V. G. Zakrzewski, J. Gao, N. Rega, 
 G. Zheng, W. Liang, M. Hada, M. Ehara, K. Toyota, R. Fukuda, 
 J. Hasegawa, M. Ishida, T. Nakajima, Y. Honda, O. Kitao, H. Nakai, 
 T. Vreven, K. Throssell, J. A. Montgomery, Jr., J. E. Peralta, 
 F. Ogliaro, M. J. Bearpark, J. J. Heyd, E. N. Brothers, K. N. Kudin, 
 V. N. Staroverov, T. A. Keith, R. Kobayashi, J. Normand, 
 K. Raghavachari, A. P. Rendell, J. C. Burant, S. S. Iyengar, 
 J. Tomasi, M. Cossi, J. M. Millam, M. Klene, C. Adamo, R. Cammi, 
 J. W. Ochterski, R. L. Martin, K. Morokuma, O. Farkas, 
 J. B. Foresman, and D. J. Fox, Gaussian, Inc., Wallingford CT, 2016.
 
 ******************************************
 Gaussian 16:  ES64L-G16RevA.03 25-Dec-2016
                10-Jun-2022 
 ******************************************
 %nprocshared=12
 Will use up to   12 processors via shared memory.
 %chk=checkpoint.chk
 %mem=12GB
 --------------------------
 # sp B3LYP/Def2TZVP NoSymm
 --------------------------
 1/38=1,172=1/1;
 2/12=2,15=1,17=6,18=5,40=1/2;
 3/5=44,7=101,11=2,25=1,30=1,74=-5/1,2,3;
 4//1;
 5/5=2,38=5/2;
 6/7=2,8=2,9=2,10=2,28=1/1;
 99/5=1,9=1/99;
 ---------------------------------
 ts_initalOptXYZ_aligned_AlignedSp
 ---------------------------------
 Symbolic Z-matrix:
 Charge =  0 Multiplicity = 1
 6                     0.72823   1.20843  -0.02355 
 6                     1.44381   0.03366  -0.2162 
 6                    -0.63894   1.17646   0.27092 
 1                     2.28565   0.00337  -0.89685 
 1                     1.17579   2.16487  -0.27735 
 1                    -1.18785   2.10349   0.36627 
 6                    -1.39061   0.03569  -0.09063 
 1                    -2.41208   0.23135  -0.43917 
 8                    -0.99259  -1.15112  -0.20259 
 6                     0.90967  -1.13457   0.31892 
 1                     1.25529  -2.10548  -0.01238 
 1                     0.51091  -1.10665   1.32343 
 
                          Input orientation:                          
 ---------------------------------------------------------------------
 Center     Atomic      Atomic             Coordinates (Angstroms)
 Number     Number       Type             X           Y           Z
 ---------------------------------------------------------------------
      1          6           0        0.728228    1.208428   -0.023554
      2          6           0        1.443808    0.033659   -0.216198
      3          6           0       -0.638935    1.176457    0.270922
      4          1           0        2.285651    0.003366   -0.896848
      5          1           0        1.175785    2.164867   -0.277347
      6          1           0       -1.187854    2.103485    0.366265
      7          6           0       -1.390606    0.035693   -0.090631
      8          1           0       -2.412078    0.231350   -0.439165
      9          8           0       -0.992589   -1.151118   -0.202587
     10          6           0        0.909672   -1.134568    0.318919
     11          1           0        1.255288   -2.105485   -0.012382
     12          1           0        0.510911   -1.106655    1.323430
 ---------------------------------------------------------------------
                    Distance matrix (angstroms):
                    1          2          3          4          5
     1  C    0.000000
     2  C    1.388974   0.000000
     3  C    1.398883   2.425096   0.000000
     4  H    2.154155   1.083006   3.360511   0.000000
     5  H    1.086045   2.148866   2.137934   2.507523   0.000000
     6  H    2.150455   3.398395   1.081565   4.251022   2.450468
     7  C    2.422656   2.837195   1.413178   3.763761   3.339851
     8  H    3.314956   3.867383   2.131076   4.725474   4.078901
     9  O    2.925871   2.709227   2.401434   3.544247   3.962725
    10  C    2.374835   1.391548   2.782323   2.160162   3.363424
    11  H    3.355583   2.157085   3.799932   2.508223   4.279303
    12  H    2.687229   2.130978   2.764511   3.051472   3.702351
                    6          7          8          9         10
     6  H    0.000000
     7  C    2.127352   0.000000
     8  H    2.377463   1.096888   0.000000
     9  O    3.309707   1.256770   1.995529   0.000000
    10  C    3.858347   2.613144   3.670756   1.972521   0.000000
    11  H    4.881367   3.404632   4.369498   2.449479   1.082539
    12  H    3.755924   2.630645   3.666178   2.142713   1.081125
                   11         12
    11  H    0.000000
    12  H    1.826514   0.000000
 Symmetry turned off by external request.
 Stoichiometry    C5H6O
 Framework group  C1[X(C5H6O)]
 Deg. of freedom    30
 Full point group                 C1      NOp   1
 Rotational constants (GHZ):           5.5367278           4.6725769           2.7070362
 Standard basis: def2TZVP (5D, 7F)
   222 basis functions,   354 primitive gaussians,   252 cartesian basis functions
    22 alpha electrons       22 beta electrons
       nuclear repulsion energy       217.8751588146 Hartrees.
 NAtoms=   12 NActive=   12 NUniq=   12 SFac= 1.00D+00 NAtFMM=   60 NAOKFM=F Big=F
 Integral buffers will be    131072 words long.
 Raffenetti 2 integral format.
 Two-electron integral symmetry is turned off.
 One-electron integrals computed using PRISM.
   1 Symmetry operations used in ECPInt.
 ECPInt:  NShTT=    4095 NPrTT=   12396 LenC2=    4075 LenP2D=   10363.
 LDataN:  DoStor=T MaxTD1= 6 Len=  172
 NBasis=   222 RedAO= T EigKep=  1.17D-04  NBF=   222
 NBsUse=   222 1.00D-06 EigRej= -1.00D+00 NBFU=   222
 ExpMin= 9.52D-02 ExpMax= 2.70D+04 ExpMxC= 9.22D+02 IAcc=3 IRadAn=         5 AccDes= 0.00D+00
 Harris functional with IExCor=  402 and IRadAn=       5 diagonalized for initial guess.
 HarFok:  IExCor=  402 AccDes= 0.00D+00 IRadAn=         5 IDoV= 1 UseB2=F ITyADJ=14
 ICtDFT=  3500011 ScaDFX=  1.000000  1.000000  1.000000  1.000000
 FoFCou: FMM=F IPFlag=           0 FMFlag=      100000 FMFlg1=           0
         NFxFlg=           0 DoJE=T BraDBF=F KetDBF=T FulRan=T
         wScrn=  0.000000 ICntrl=       500 IOpCl=  0 I1Cent=   200000004 NGrid=           0
         NMat0=    1 NMatS0=      1 NMatT0=    0 NMatD0=    1 NMtDS0=    0 NMtDT0=    0
 Symmetry not used in FoFCou.
 Keep R1 ints in memory in canonical form, NReq=319363861.
 Requested convergence on RMS density matrix=1.00D-08 within 128 cycles.
 Requested convergence on MAX density matrix=1.00D-06.
 Requested convergence on             energy=1.00D-06.
 No special actions if energy rises.
 Integral accuracy reduced to 1.0D-05 until final iterations.
 Initial convergence to 1.0D-05 achieved.  Increase integral accuracy.
 SCF Done:  E(RB3LYP) =  -269.391777563     A.U. after   15 cycles
            NFock= 15  Conv=0.38D-08     -V/T= 2.0050

 **********************************************************************

            Population analysis using the SCF density.

 **********************************************************************

 Alpha  occ. eigenvalues --  -19.14210 -10.25216 -10.22025 -10.19713 -10.17183
 Alpha  occ. eigenvalues --  -10.16810  -1.04687  -0.82889  -0.75669  -0.66725
 Alpha  occ. eigenvalues --   -0.60755  -0.52726  -0.50981  -0.47029  -0.45940
 Alpha  occ. eigenvalues --   -0.44222  -0.39713  -0.38200  -0.37609  -0.32592
 Alpha  occ. eigenvalues --   -0.28924  -0.21522
 Alpha virt. eigenvalues --   -0.06867   0.00076   0.04601   0.05564   0.07414
 Alpha virt. eigenvalues --    0.07938   0.09478   0.11463   0.12253   0.15881
 Alpha virt. eigenvalues --    0.18106   0.19678   0.20442   0.21643   0.22018
 Alpha virt. eigenvalues --    0.22416   0.24903   0.27444   0.28037   0.29240
 Alpha virt. eigenvalues --    0.30312   0.33328   0.33801   0.36212   0.37826
 Alpha virt. eigenvalues --    0.39998   0.40608   0.42233   0.42877   0.43685
 Alpha virt. eigenvalues --    0.44350   0.44993   0.45669   0.48077   0.49905
 Alpha virt. eigenvalues --    0.52386   0.53838   0.55010   0.57000   0.58468
 Alpha virt. eigenvalues --    0.62261   0.65943   0.68763   0.69582   0.75814
 Alpha virt. eigenvalues --    0.80091   0.82253   0.86860   0.87176   0.89626
 Alpha virt. eigenvalues --    0.92851   0.94054   0.96193   0.97045   0.98037
 Alpha virt. eigenvalues --    1.01131   1.03830   1.07150   1.10757   1.12118
 Alpha virt. eigenvalues --    1.14832   1.17277   1.19506   1.23336   1.23654
 Alpha virt. eigenvalues --    1.28921   1.31306   1.34331   1.39141   1.39901
 Alpha virt. eigenvalues --    1.42831   1.43852   1.46411   1.47808   1.51386
 Alpha virt. eigenvalues --    1.53616   1.57680   1.60098   1.63227   1.65014
 Alpha virt. eigenvalues --    1.66868   1.68601   1.73920   1.77898   1.78544
 Alpha virt. eigenvalues --    1.81026   1.82849   1.85756   1.88175   1.91921
 Alpha virt. eigenvalues --    1.94709   1.97158   2.05335   2.06966   2.10342
 Alpha virt. eigenvalues --    2.15032   2.15854   2.19712   2.20677   2.26225
 Alpha virt. eigenvalues --    2.28134   2.32379   2.37960   2.40881   2.44423
 Alpha virt. eigenvalues --    2.49711   2.52139   2.53088   2.54275   2.56104
 Alpha virt. eigenvalues --    2.59211   2.61515   2.63099   2.65608   2.67862
 Alpha virt. eigenvalues --    2.70423   2.71009   2.76914   2.78183   2.79890
 Alpha virt. eigenvalues --    2.81840   2.83784   2.84265   2.86531   2.89612
 Alpha virt. eigenvalues --    2.91609   2.94743   2.96790   2.98119   3.01829
 Alpha virt. eigenvalues --    3.02894   3.04543   3.06747   3.12109   3.13514
 Alpha virt. eigenvalues --    3.15128   3.17528   3.19728   3.22909   3.23772
 Alpha virt. eigenvalues --    3.24843   3.27756   3.28920   3.35357   3.36073
 Alpha virt. eigenvalues --    3.39310   3.41606   3.43697   3.45839   3.48481
 Alpha virt. eigenvalues --    3.49619   3.52429   3.58121   3.63133   3.63492
 Alpha virt. eigenvalues --    3.68305   3.85234   3.89937   3.91834   3.94204
 Alpha virt. eigenvalues --    3.97311   4.02391   4.03637   4.08592   4.11535
 Alpha virt. eigenvalues --    4.16162   4.17873   4.25899   4.30834   4.32447
 Alpha virt. eigenvalues --    4.38753   4.44055   4.47679   4.54372   4.64696
 Alpha virt. eigenvalues --    4.67004   4.72652   4.81307   4.85645   4.86767
 Alpha virt. eigenvalues --    5.05079   5.14633   5.25059   5.28940   5.52079
 Alpha virt. eigenvalues --    5.61913   5.99667   6.22003   6.34417   6.50425
 Alpha virt. eigenvalues --    6.72620   6.78517   6.97447   7.08360  22.05936
 Alpha virt. eigenvalues --   22.33790  22.51072  22.70011  22.87317  43.80884
          Condensed to atoms (all electrons):
               1          2          3          4          5          6
     1  C    4.898953   0.483866   0.472561  -0.052919   0.413462  -0.054509
     2  C    0.483866   5.006718  -0.036982   0.410935  -0.042094   0.009804
     3  C    0.472561  -0.036982   5.245426   0.006302  -0.049020   0.408838
     4  H   -0.052919   0.410935   0.006302   0.565536  -0.004285  -0.000203
     5  H    0.413462  -0.042094  -0.049020  -0.004285   0.564569  -0.007948
     6  H   -0.054509   0.009804   0.408838  -0.000203  -0.007948   0.573020
     7  C   -0.022159  -0.046731   0.413110  -0.002405   0.001844  -0.034901
     8  H    0.003967  -0.005603  -0.107543  -0.000002  -0.000864  -0.000311
     9  O   -0.008916  -0.024658  -0.123774   0.000621  -0.000968   0.005749
    10  C   -0.090812   0.511721  -0.001924  -0.033491   0.010536  -0.000175
    11  H    0.010136  -0.039265  -0.000421  -0.006862  -0.000262   0.000018
    12  H   -0.034034  -0.032120   0.031907   0.006847   0.000174   0.000014
               7          8          9         10         11         12
     1  C   -0.022159   0.003967  -0.008916  -0.090812   0.010136  -0.034034
     2  C   -0.046731  -0.005603  -0.024658   0.511721  -0.039265  -0.032120
     3  C    0.413110  -0.107543  -0.123774  -0.001924  -0.000421   0.031907
     4  H   -0.002405  -0.000002   0.000621  -0.033491  -0.006862   0.006847
     5  H    0.001844  -0.000864  -0.000968   0.010536  -0.000262   0.000174
     6  H   -0.034901  -0.000311   0.005749  -0.000175   0.000018   0.000014
     7  C    4.658804   0.421371   0.508328  -0.047491   0.001444  -0.012431
     8  H    0.421371   0.611071  -0.034970   0.003926  -0.000014  -0.001731
     9  O    0.508328  -0.034970   7.954901   0.074523  -0.001816  -0.051545
    10  C   -0.047491   0.003926   0.074523   4.834257   0.398948   0.431794
    11  H    0.001444  -0.000014  -0.001816   0.398948   0.534285  -0.030538
    12  H   -0.012431  -0.001731  -0.051545   0.431794  -0.030538   0.560362
 Mulliken charges:
               1
     1  C   -0.019598
     2  C   -0.195590
     3  C   -0.258480
     4  H    0.109925
     5  H    0.114857
     6  H    0.100605
     7  C    0.161216
     8  H    0.110703
     9  O   -0.297474
    10  C   -0.091813
    11  H    0.134346
    12  H    0.131302
 Sum of Mulliken charges =  -0.00000
 Mulliken charges with hydrogens summed into heavy atoms:
               1
     1  C    0.095259
     2  C   -0.085665
     3  C   -0.157875
     7  C    0.271920
     9  O   -0.297474
    10  C    0.173836
 Electronic spatial extent (au):  <R**2>=            482.7846
 Charge=             -0.0000 electrons
 Dipole moment (field-independent basis, Debye):
    X=              0.5210    Y=              0.9317    Z=             -0.0619  Tot=              1.0692
 Quadrupole moment (field-independent basis, Debye-Ang):
   XX=            -33.7919   YY=            -34.6360   ZZ=            -37.4030
   XY=             -3.0897   XZ=             -1.0635   YZ=             -1.4377
 Traceless Quadrupole moment (field-independent basis, Debye-Ang):
   XX=              1.4851   YY=              0.6409   ZZ=             -2.1260
   XY=             -3.0897   XZ=             -1.0635   YZ=             -1.4377
 Octapole moment (field-independent basis, Debye-Ang**2):
  XXX=            -10.5264  YYY=             -1.2868  ZZZ=             -0.8369  XYY=              5.4505
  XXY=              0.9792  XXZ=             -5.0703  XZZ=             -0.7400  YZZ=             -4.1187
  YYZ=              0.4644  XYZ=             -0.0242
 Hexadecapole moment (field-independent basis, Debye-Ang**3):
 XXXX=           -307.4540 YYYY=           -256.2398 ZZZZ=            -63.6167 XXXY=             -1.0005
 XXXZ=             -5.6315 YYYX=             -5.0470 YYYZ=             -0.4742 ZZZX=              1.0447
 ZZZY=             -2.6775 XXYY=            -96.9810 XXZZ=            -64.5659 YYZZ=            -59.2806
 XXYZ=             -0.9302 YYXZ=             -3.5132 ZZXY=              1.4678
 N-N= 2.178751588146D+02 E-N=-1.063614419042D+03  KE= 2.680599426043D+02
 1\1\GINC-BHC0021\SP\RB3LYP\def2TZVP\C5H6O1\DHANAWAY\10-Jun-2022\0\\# s
 p B3LYP/Def2TZVP NoSymm\\ts_initalOptXYZ_aligned_AlignedSp\\0,1\C,0,0.
 728228,1.208428,-0.023554\C,0,1.443808,0.033659,-0.216198\C,0,-0.63893
 5,1.176457,0.270922\H,0,2.285651,0.003366,-0.896848\H,0,1.175785,2.164
 867,-0.277347\H,0,-1.187854,2.103485,0.366265\C,0,-1.390606,0.035693,-
 0.090631\H,0,-2.412078,0.23135,-0.439165\O,0,-0.992589,-1.151118,-0.20
 2587\C,0,0.909672,-1.134568,0.318919\H,0,1.255288,-2.105485,-0.012382\
 H,0,0.510911,-1.106655,1.32343\\Version=ES64L-G16RevA.03\HF=-269.39177
 76\RMSD=3.802e-09\Dipole=0.2049594,0.366541,-0.0243421\Quadrupole=1.10
 41076,0.4765293,-1.5806369,-2.2971439,-0.7906956,-1.0688935\PG=C01 [X(
 C5H6O1)]\\@


 IF AT FIRST YOU DON'T SUCCEED, TRY, TRY AGAIN.
 THEN GIVE UP;
 THERE'S NO USE BEING A DAMN FOOL ABOUT IT.

                                 -- W. C. FIELDS
 Job cpu time:       0 days  0 hours  2 minutes 48.6 seconds.
 Elapsed time:       0 days  0 hours  0 minutes 22.0 seconds.
 File lengths (MBytes):  RWF=     25 Int=      0 D2E=      0 Chk=     32 Scr=      1
 Normal termination of Gaussian 16 at Fri Jun 10 10:57:26 2022.
