 Entering Gaussian System, Link 0=g16
 Input=int_zmat_field_N50.gjf
 Output=int_zmat_field_N50.out
 Initial command:
 /software/gaussian/g16-a03/l1.exe "/local_scratch/11174456/Gau-16295.inp" -scrdir="/local_scratch/11174456/"
 Entering Link 1 = /software/gaussian/g16-a03/l1.exe PID=     16296.
  
 Copyright (c) 1988,1990,1992,1993,1995,1998,2003,2009,2016,
            Gaussian, Inc.  All Rights Reserved.
  
 This is part of the Gaussian(R) 16 program.  It is based on
 the Gaussian(R) 09 system (copyright 2009, Gaussian, Inc.),
 the Gaussian(R) 03 system (copyright 2003, Gaussian, Inc.),
 the Gaussian(R) 98 system (copyright 1998, Gaussian, Inc.),
 the Gaussian(R) 94 system (copyright 1995, Gaussian, Inc.),
 the Gaussian 92(TM) system (copyright 1992, Gaussian, Inc.),
 the Gaussian 90(TM) system (copyright 1990, Gaussian, Inc.),
 the Gaussian 88(TM) system (copyright 1988, Gaussian, Inc.),
 the Gaussian 86(TM) system (copyright 1986, Carnegie Mellon
 University), and the Gaussian 82(TM) system (copyright 1983,
 Carnegie Mellon University). Gaussian is a federally registered
 trademark of Gaussian, Inc.
  
 This software contains proprietary and confidential information,
 including trade secrets, belonging to Gaussian, Inc.
  
 This software is provided under written license and may be
 used, copied, transmitted, or stored only in accord with that
 written license.
  
 The following legend is applicable only to US Government
 contracts under FAR:
  
                    RESTRICTED RIGHTS LEGEND
  
 Use, reproduction and disclosure by the US Government is
 subject to restrictions as set forth in subparagraphs (a)
 and (c) of the Commercial Computer Software - Restricted
 Rights clause in FAR 52.227-19.
  
 Gaussian, Inc.
 340 Quinnipiac St., Bldg. 40, Wallingford CT 06492
  
  
 ---------------------------------------------------------------
 Warning -- This program may not be used in any manner that
 competes with the business of Gaussian, Inc. or will provide
 assistance to any competitor of Gaussian, Inc.  The licensee
 of this program is prohibited from giving any competitor of
 Gaussian, Inc. access to this program.  By using this program,
 the user acknowledges that Gaussian, Inc. is engaged in the
 business of creating and licensing software in the field of
 computational chemistry and represents and warrants to the
 licensee that it is not a competitor of Gaussian, Inc. and that
 it will not use this program in any manner prohibited above.
 ---------------------------------------------------------------
  

 Cite this work as:
 Gaussian 16, Revision A.03,
 M. J. Frisch, G. W. Trucks, H. B. Schlegel, G. E. Scuseria, 
 M. A. Robb, J. R. Cheeseman, G. Scalmani, V. Barone, 
 G. A. Petersson, H. Nakatsuji, X. Li, M. Caricato, A. V. Marenich, 
 J. Bloino, B. G. Janesko, R. Gomperts, B. Mennucci, H. P. Hratchian, 
 J. V. Ortiz, A. F. Izmaylov, J. L. Sonnenberg, D. Williams-Young, 
 F. Ding, F. Lipparini, F. Egidi, J. Goings, B. Peng, A. Petrone, 
 T. Henderson, D. Ranasinghe, V. G. Zakrzewski, J. Gao, N. Rega, 
 G. Zheng, W. Liang, M. Hada, M. Ehara, K. Toyota, R. Fukuda, 
 J. Hasegawa, M. Ishida, T. Nakajima, Y. Honda, O. Kitao, H. Nakai, 
 T. Vreven, K. Throssell, J. A. Montgomery, Jr., J. E. Peralta, 
 F. Ogliaro, M. J. Bearpark, J. J. Heyd, E. N. Brothers, K. N. Kudin, 
 V. N. Staroverov, T. A. Keith, R. Kobayashi, J. Normand, 
 K. Raghavachari, A. P. Rendell, J. C. Burant, S. S. Iyengar, 
 J. Tomasi, M. Cossi, J. M. Millam, M. Klene, C. Adamo, R. Cammi, 
 J. W. Ochterski, R. L. Martin, K. Morokuma, O. Farkas, 
 J. B. Foresman, and D. J. Fox, Gaussian, Inc., Wallingford CT, 2016.
 
 ******************************************
 Gaussian 16:  ES64L-G16RevA.03 25-Dec-2016
                10-Jun-2022 
 ******************************************
 %nprocshared=12
 Will use up to   12 processors via shared memory.
 %chk=checkpoint.chk
 %mem=12GB
 ----------------------------------------------------------------------
 # Opt=(Z-matrix, MaxStep=10) B3LYP/Def2TZVP geom=allcheckpoint guess=r
 ead Field=read NoSymm freq=noraman pop=none
 ----------------------------------------------------------------------
 1/8=10,10=7,18=40,26=3,29=7,38=1/1,3;
 2/12=2,15=1,29=3,40=1/2;
 3/5=44,7=101,11=2,14=-6,25=1,30=1,71=1,74=-5,116=-2/1,2,3;
 4/5=1/1;
 5/5=2,38=6/2;
 7/29=1,30=1/1,2,3,16;
 1/8=10,10=7,18=40,26=3/3(2);
 2/15=1,29=3/2;
 99//99;
 2/15=1,29=3/2;
 3/5=44,7=101,11=2,14=-2,25=1,30=1,71=1,74=-5/1,2,3;
 4/5=5,16=3,69=1/1;
 5/5=2,38=5/2;
 7/30=1/1,2,3,16;
 1/8=10,18=40,26=3/3(-5);
 2/15=1,29=3/2;
 99/9=1/99;
 Structure from the checkpoint file:  "checkpoint.chk"
 ------------------
 int_zmat_initalOpt
 ------------------
 Charge =  0 Multiplicity = 1
 Z-Matrix found in chk file.
 H
 C,1,R2
 C,2,R3,1,A3
 C,2,R4,1,A4,3,D4,0
 H,3,R5,2,A5,1,D5,0
 O,3,R6,2,A6,5,D6,0
 C,4,R7,2,A7,1,D7,0
 H,4,R8,2,A8,7,D8,0
 C,6,R9,3,A9,2,D9,0
 H,7,R10,4,A10,2,D10,0
 H,9,R11,6,A11,3,D11,0
 H,9,R12,6,A12,11,D12,0
      Variables:
 R2=1.07986025
 R3=1.34118826
 R4=1.45404532
 R5=1.08237195
 R6=1.35397056
 R7=1.3362557
 R8=1.08276817
 R9=1.4443003
 R10=1.0819808
 R11=1.08877586
 R12=1.1024645
 A3=119.79937947
 A4=121.55480511
 A5=124.38507737
 A6=123.29045914
 A7=119.21137364
 A8=119.2998091
 A9=115.26256188
 A10=122.69449921
 A11=105.36750145
 A12=107.52209588
 D4=171.15114183
 D5=3.1786543
 D6=174.48715315
 D7=173.51776608
 D8=175.38612633
 D9=23.51980545
 D10=174.92092205
 D11=-164.57969959
 D12=-115.19329158
 Recover connectivity data from disk.

 GradGradGradGradGradGradGradGradGradGradGradGradGradGradGradGradGradGrad
 Berny optimization.
 Initialization pass.
                       ----------------------------
                       !    Initial Parameters    !
                       ! (Angstroms and Degrees)  !
 ----------------------                            ----------------------
 !      Name          Value   Derivative information (Atomic Units)     !
 ------------------------------------------------------------------------
 !       R2          1.0799   estimate D2E/DX2                          !
 !       R3          1.3412   estimate D2E/DX2                          !
 !       R4          1.454    estimate D2E/DX2                          !
 !       R5          1.0824   estimate D2E/DX2                          !
 !       R6          1.354    estimate D2E/DX2                          !
 !       R7          1.3363   estimate D2E/DX2                          !
 !       R8          1.0828   estimate D2E/DX2                          !
 !       R9          1.4443   estimate D2E/DX2                          !
 !       R10         1.082    estimate D2E/DX2                          !
 !       R11         1.0888   estimate D2E/DX2                          !
 !       R12         1.1025   estimate D2E/DX2                          !
 !       A3        119.7994   estimate D2E/DX2                          !
 !       A4        121.5548   estimate D2E/DX2                          !
 !       A5        124.3851   estimate D2E/DX2                          !
 !       A6        123.2905   estimate D2E/DX2                          !
 !       A7        119.2114   estimate D2E/DX2                          !
 !       A8        119.2998   estimate D2E/DX2                          !
 !       A9        115.2626   estimate D2E/DX2                          !
 !       A10       122.6945   estimate D2E/DX2                          !
 !       A11       105.3675   estimate D2E/DX2                          !
 !       A12       107.5221   estimate D2E/DX2                          !
 !       D4        171.1511   estimate D2E/DX2                          !
 !       D5          3.1787   estimate D2E/DX2                          !
 !       D6        174.4872   estimate D2E/DX2                          !
 !       D7        173.5178   estimate D2E/DX2                          !
 !       D8        175.3861   estimate D2E/DX2                          !
 !       D9         23.5198   estimate D2E/DX2                          !
 !       D10       174.9209   estimate D2E/DX2                          !
 !       D11      -164.5797   estimate D2E/DX2                          !
 !       D12      -115.1933   estimate D2E/DX2                          !
 ------------------------------------------------------------------------
 Trust Radius=1.00D-01 FncErr=1.00D-07 GrdErr=1.00D-06 EigMax=2.50D+02 EigMin=1.00D-04
 Number of steps in this run=     40 maximum allowed number of steps=    100.
 GradGradGradGradGradGradGradGradGradGradGradGradGradGradGradGradGradGrad

 ---------------------------------------------------------------------------------------------------
                            Z-MATRIX (ANGSTROMS AND DEGREES)
   CD    Cent   Atom    N1       Length/X        N2       Alpha/Y        N3        Beta/Z          J
 ---------------------------------------------------------------------------------------------------
      1      1  H 
      2      2  C        1   1.079860(     1)
      3      3  C        2   1.341188(     2)      1  119.799(    12)
      4      4  C        2   1.454045(     3)      1  121.555(    13)      3  171.151(    22)      0
      5      5  H        3   1.082372(     4)      2  124.385(    14)      1    3.179(    23)      0
      6      6  O        3   1.353971(     5)      2  123.290(    15)      5  174.487(    24)      0
      7      7  C        4   1.336256(     6)      2  119.211(    16)      1  173.518(    25)      0
      8      8  H        4   1.082768(     7)      2  119.300(    17)      7  175.386(    26)      0
      9      9  C        6   1.444300(     8)      3  115.263(    18)      2   23.520(    27)      0
     10     10  H        7   1.081981(     9)      4  122.694(    19)      2  174.921(    28)      0
     11     11  H        9   1.088776(    10)      6  105.368(    20)      3 -164.580(    29)      0
     12     12  H        9   1.102464(    11)      6  107.522(    21)     11 -115.193(    30)      0
 ---------------------------------------------------------------------------------------------------
                         Z-Matrix orientation:                         
 ---------------------------------------------------------------------
 Center     Atomic      Atomic             Coordinates (Angstroms)
 Number     Number       Type             X           Y           Z
 ---------------------------------------------------------------------
      1          1           0        0.000000    0.000000    0.000000
      2          6           0        0.000000    0.000000    1.079860
      3          6           0        1.163844    0.000000    1.746383
      4          6           0       -1.224302    0.190601    1.840782
      5          1           0        2.137513    0.049530    1.276230
      6          8           0        1.246758    0.046095    3.097026
      7          6           0       -1.194425    0.052692    3.169567
      8          1           0       -2.121640    0.514215    1.328487
      9          6           0        0.078791   -0.426962    3.802769
     10          1           0       -2.050614    0.259336    3.797993
     11          1           0        0.194215   -0.068704    4.824416
     12          1           0        0.123555   -1.528415    3.817830
 ---------------------------------------------------------------------
                    Distance matrix (angstroms):
                    1          2          3          4          5
     1  H    0.000000
     2  C    1.079860   0.000000
     3  C    2.098663   1.341188   0.000000
     4  C    2.218947   1.454045   2.397600   0.000000
     5  H    2.490015   2.147085   1.082372   3.411807   0.000000
     6  O    3.338878   2.371812   1.353971   2.775819   2.027007
     7  C    3.387563   2.407551   2.754934   1.336256   3.832303
     8  H    2.555513   2.197177   3.351635   1.082768   4.284746
     9  C    3.827474   2.757306   2.363971   2.434919   3.293749
    10  H    4.324006   3.414751   3.822185   2.125604   4.893232
    11  H    4.828812   3.750218   3.227876   3.313834   4.047223
    12  H    4.114261   3.138119   2.776534   2.946261   3.606337
                    6          7          8          9         10
     6  O    0.000000
     7  C    2.442269   0.000000
     8  H    3.833141   2.112417   0.000000
     9  C    1.444300   1.500698   3.442352   0.000000
    10  H    3.377794   1.081981   2.483641   2.237275   0.000000
    11  H    2.026055   2.163696   4.233733   1.088776   2.490063
    12  H    2.064031   2.158058   3.925565   1.102464   2.814864
                   11         12
    11  H    0.000000
    12  H    1.774532   0.000000
 Symmetry turned off by external request.
 Stoichiometry    C5H6O
 Framework group  C1[X(C5H6O)]
 Deg. of freedom    30
 Full point group                 C1      NOp   1
 Rotational constants (GHZ):           5.5865185           5.3743142           2.8598125
 Standard basis: def2TZVP (5D, 7F)
 The following finite field(s) will be applied:
 An electric field of              0.0026 -0.0042 -0.0002
   222 basis functions,   354 primitive gaussians,   252 cartesian basis functions
    22 alpha electrons       22 beta electrons
       nuclear repulsion energy       223.6445210914 Hartrees.
 NAtoms=   12 NActive=   12 NUniq=   12 SFac= 1.00D+00 NAtFMM=   60 NAOKFM=F Big=F
 Integral buffers will be    131072 words long.
 Raffenetti 2 integral format.
 Two-electron integral symmetry is turned off.
 One-electron integrals computed using PRISM.
   1 Symmetry operations used in ECPInt.
 ECPInt:  NShTT=    4095 NPrTT=   12396 LenC2=    4075 LenP2D=   10420.
 LDataN:  DoStor=T MaxTD1= 6 Len=  172
 NBasis=   222 RedAO= T EigKep=  9.64D-05  NBF=   222
 NBsUse=   222 1.00D-06 EigRej= -1.00D+00 NBFU=   222
 The nuclear repulsion energy is now       223.6284561547 hartrees.
 Initial guess from the checkpoint file:  "checkpoint.chk"
 B after Tr=     0.000000   -0.000000   -0.000000
         Rot=    1.000000    0.000000    0.000000   -0.000000 Ang=   0.00 deg.
 Keep R1 ints in memory in canonical form, NReq=319363885.
 Requested convergence on RMS density matrix=1.00D-08 within 128 cycles.
 Requested convergence on MAX density matrix=1.00D-06.
 Requested convergence on             energy=1.00D-06.
 No special actions if energy rises.
 SCF Done:  E(RB3LYP) =  -269.423413067     A.U. after   10 cycles
            NFock= 10  Conv=0.86D-08     -V/T= 2.0050
   1 Symmetry operations used in ECPInt.
 ECPInt:  NShTT=    4095 NPrTT=   12396 LenC2=    4075 LenP2D=   10420.
 LDataN:  DoStor=T MaxTD1= 7 Len=  274
 Calling FoFJK, ICntrl=      2127 FMM=F ISym2X=0 I1Cent= 0 IOpClX= 0 NMat=1 NMatS=1 NMatT=0.
 -------------------------------------------------------------------
 Center     Atomic                   Forces (Hartrees/Bohr)
 Number     Number              X              Y              Z
 -------------------------------------------------------------------
      1        1          -0.000056853    0.000112038   -0.000039126
      2        6           0.000352063    0.000049790    0.000174830
      3        6          -0.000379638   -0.000558137   -0.000335329
      4        6          -0.000411658    0.000062246    0.000118788
      5        1           0.000075926    0.000277546   -0.000048730
      6        8           0.000444554   -0.000523385    0.000445547
      7        6          -0.000128909   -0.000477040   -0.000144332
      8        1           0.000134057    0.000146153    0.000101683
      9        6          -0.000162382    0.001095535   -0.000112363
     10        1           0.000097890    0.000204343   -0.000072181
     11        1          -0.000048344    0.000114297   -0.000020493
     12        1           0.000083293   -0.000503386   -0.000068294
 -------------------------------------------------------------------
 Cartesian Forces:  Max     0.001095535 RMS     0.000315187
 -----------------------------------------------------------------------------------------------
                       Internal Coordinate Forces (Hartree/Bohr or radian)
  Cent   Atom   N1       Length/X         N2         Alpha/Y        N3         Beta/Z          J
 -----------------------------------------------------------------------------------------------
      1  H 
      2  C        1   0.000039(     1)
      3  C        2  -0.000058(     2)      1  -0.000423(    12)
      4  C        2   0.000254(     3)      1  -0.000335(    13)      3  -0.000462(    22)     0
      5  H        3   0.000102(     4)      2  -0.000040(    14)      1  -0.001393(    23)     0
      6  O        3   0.000269(     5)      2   0.000103(    15)      5  -0.001854(    24)     0
      7  C        4  -0.000188(     6)      2   0.000003(    16)      1  -0.000949(    25)     0
      8  H        4  -0.000116(     7)      2   0.000038(    17)      7  -0.000339(    26)     0
      9  C        6  -0.000227(     8)      3  -0.000311(    18)      2  -0.001556(    27)     0
     10  H        7  -0.000080(     9)      4  -0.000115(    19)      2  -0.000373(    28)     0
     11  H        9   0.000013(    10)      6  -0.000025(    20)      3   0.000182(    29)     0
     12  H        9   0.000505(    11)      6  -0.000192(    21)     11  -0.000065(    30)     0
 -----------------------------------------------------------------------------------------------
 Internal  Forces:  Max     0.001853571 RMS     0.000582203

 GradGradGradGradGradGradGradGradGradGradGradGradGradGradGradGradGradGrad
 Berny optimization.
 Search for a local minimum.
 Step number   1 out of a maximum of   40
 All quantities printed in internal units (Hartrees-Bohrs-Radians)
 Second derivative matrix not updated -- first step.
 ITU=  0
     Eigenvalues ---    0.03260   0.04782   0.05015   0.07285   0.11491
     Eigenvalues ---    0.14991   0.16654   0.17346   0.18010   0.22037
     Eigenvalues ---    0.24445   0.27961   0.31037   0.33411   0.34954
     Eigenvalues ---    0.35662   0.35709   0.35756   0.36011   0.36730
     Eigenvalues ---    0.38389   0.40906   0.46323   0.54125   0.57330
     Eigenvalues ---    0.57649   0.59874   2.30327   3.90707  24.81198
 RFO step:  Lambda=-2.53344554D-05 EMin= 3.25979661D-02
 Linear search not attempted -- first point.
 Variable       Old X    -DE/DX   Delta X   Delta X   Delta X     New X
                                 (Linear)    (Quad)   (Total)
    R2        2.04064   0.00004   0.00000   0.00011   0.00011   2.04075
    R3        2.53448  -0.00006   0.00000  -0.00020  -0.00020   2.53428
    R4        2.74775   0.00025   0.00000   0.00035   0.00035   2.74810
    R5        2.04539   0.00010   0.00000   0.00029   0.00029   2.04567
    R6        2.55863   0.00027   0.00000   0.00066   0.00066   2.55929
    R7        2.52516  -0.00019   0.00000  -0.00055  -0.00055   2.52460
    R8        2.04614  -0.00012   0.00000  -0.00032  -0.00032   2.04581
    R9        2.72933  -0.00023   0.00000   0.00010   0.00010   2.72943
   R10        2.04465  -0.00008   0.00000  -0.00021  -0.00021   2.04443
   R11        2.05749   0.00001   0.00000   0.00006   0.00006   2.05754
   R12        2.08336   0.00051   0.00000   0.00152   0.00152   2.08487
    A3        2.09089  -0.00042   0.00000  -0.00062  -0.00062   2.09027
    A4        2.12153  -0.00033   0.00000  -0.00125  -0.00125   2.12028
    A5        2.17093  -0.00004   0.00000  -0.00069  -0.00069   2.17024
    A6        2.15182   0.00010   0.00000   0.00107   0.00107   2.15289
    A7        2.08063   0.00000   0.00000  -0.00031  -0.00031   2.08032
    A8        2.08217   0.00004   0.00000   0.00026   0.00026   2.08244
    A9        2.01171  -0.00031   0.00000   0.00041   0.00041   2.01212
   A10        2.14142  -0.00011   0.00000  -0.00058  -0.00058   2.14084
   A11        1.83901  -0.00003   0.00000  -0.00025  -0.00025   1.83876
   A12        1.87661  -0.00019   0.00000  -0.00118  -0.00118   1.87544
    D4        2.98715  -0.00046   0.00000  -0.01076  -0.01076   2.97639
    D5        0.05548  -0.00139   0.00000  -0.00325  -0.00325   0.05223
    D6        3.04538  -0.00185   0.00000  -0.00307  -0.00307   3.04230
    D7        3.02846  -0.00095   0.00000   0.01050   0.01050   3.03895
    D8        3.06107  -0.00034   0.00000  -0.00454  -0.00454   3.05652
    D9        0.41050  -0.00156   0.00000  -0.00858  -0.00858   0.40192
   D10        3.05295  -0.00037   0.00000  -0.00424  -0.00424   3.04871
   D11       -2.87246   0.00018   0.00000   0.00787   0.00787  -2.86458
   D12       -2.01050  -0.00007   0.00000   0.00024   0.00024  -2.01026
         Item               Value     Threshold  Converged?
 Maximum Force            0.001854     0.000450     NO 
 RMS     Force            0.000582     0.000300     NO 
 Maximum Displacement     0.010758     0.001800     NO 
 RMS     Displacement     0.003783     0.001200     NO 
 Predicted change in Energy=-1.267267D-05
 GradGradGradGradGradGradGradGradGradGradGradGradGradGradGradGradGradGrad

 ---------------------------------------------------------------------------------------------------
                            Z-MATRIX (ANGSTROMS AND DEGREES)
   CD    Cent   Atom    N1       Length/X        N2       Alpha/Y        N3        Beta/Z          J
 ---------------------------------------------------------------------------------------------------
      1      1  H 
      2      2  C        1   1.079918(     1)
      3      3  C        2   1.341082(     2)      1  119.764(    12)
      4      4  C        2   1.454231(     3)      1  121.483(    13)      3  170.535(    22)      0
      5      5  H        3   1.082523(     4)      2  124.345(    14)      1    2.993(    23)      0
      6      6  O        3   1.354319(     5)      2  123.352(    15)      5  174.311(    24)      0
      7      7  C        4   1.335963(     6)      2  119.194(    16)      1  174.119(    25)      0
      8      8  H        4   1.082597(     7)      2  119.315(    17)      7  175.126(    26)      0
      9      9  C        6   1.444351(     8)      3  115.286(    18)      2   23.028(    27)      0
     10     10  H        7   1.081868(     9)      4  122.661(    19)      2  174.678(    28)      0
     11     11  H        9   1.088806(    10)      6  105.353(    20)      3 -164.129(    29)      0
     12     12  H        9   1.103267(    11)      6  107.455(    21)     11 -115.179(    30)      0
 ---------------------------------------------------------------------------------------------------
                         Z-Matrix orientation:                         
 ---------------------------------------------------------------------
 Center     Atomic      Atomic             Coordinates (Angstroms)
 Number     Number       Type             X           Y           Z
 ---------------------------------------------------------------------
      1          1           0        0.000000    0.000000    0.000000
      2          6           0        0.000000    0.000000    1.079918
      3          6           0        1.164164    0.000000    1.745667
      4          6           0       -1.223272    0.203943    1.839391
      5          1           0        2.137427    0.046662    1.274033
      6          8           0        1.249534    0.053219    3.096245
      7          6           0       -1.193437    0.077825    3.169052
      8          1           0       -2.117904    0.531677    1.325348
      9          6           0        0.077317   -0.401759    3.806915
     10          1           0       -2.047281    0.298374    3.795747
     11          1           0        0.195058   -0.031524    4.824049
     12          1           0        0.114654   -1.504026    3.835390
 ---------------------------------------------------------------------
                    Distance matrix (angstroms):
                    1          2          3          4          5
     1  H    0.000000
     2  C    1.079918   0.000000
     3  C    2.098245   1.341082   0.000000
     4  C    2.218411   1.454231   2.397964   0.000000
     5  H    2.488762   2.146731   1.082523   3.411549   0.000000
     6  O    3.339296   2.372708   1.354319   2.777980   2.027030
     7  C    3.387217   2.407246   2.755062   1.335963   3.832326
     8  H    2.554358   2.197370   3.351316   1.082597   4.283190
     9  C    3.828837   2.757518   2.364612   2.435069   3.295546
    10  H    4.322971   3.414105   3.821680   2.124909   4.892257
    11  H    4.828094   3.749341   3.227475   3.312898   4.047410
    12  H    4.121341   3.141316   2.780379   2.948087   3.613418
                    6          7          8          9         10
     6  O    0.000000
     7  C    2.444180   0.000000
     8  H    3.834663   2.111840   0.000000
     9  C    1.444351   1.500562   3.442162   0.000000
    10  H    3.379112   1.081868   2.482396   2.237013   0.000000
    11  H    2.025935   2.163074   4.231772   1.088806   2.488839
    12  H    2.063807   2.158092   3.927940   1.103267   2.814992
                   11         12
    11  H    0.000000
    12  H    1.775436   0.000000
 Symmetry turned off by external request.
 Stoichiometry    C5H6O
 Framework group  C1[X(C5H6O)]
 Deg. of freedom    30
 Full point group                 C1      NOp   1
 Rotational constants (GHZ):           5.5871536           5.3710646           2.8579544
 Standard basis: def2TZVP (5D, 7F)
 The following finite field(s) will be applied:
 An electric field of              0.0026 -0.0042 -0.0002
   222 basis functions,   354 primitive gaussians,   252 cartesian basis functions
    22 alpha electrons       22 beta electrons
       nuclear repulsion energy       223.6161920159 Hartrees.
 NAtoms=   12 NActive=   12 NUniq=   12 SFac= 1.00D+00 NAtFMM=   60 NAOKFM=F Big=F
 Integral buffers will be    131072 words long.
 Raffenetti 2 integral format.
 Two-electron integral symmetry is turned off.
 One-electron integrals computed using PRISM.
   1 Symmetry operations used in ECPInt.
 ECPInt:  NShTT=    4095 NPrTT=   12396 LenC2=    4075 LenP2D=   10420.
 LDataN:  DoStor=T MaxTD1= 6 Len=  172
 NBasis=   222 RedAO= T EigKep=  9.67D-05  NBF=   222
 NBsUse=   222 1.00D-06 EigRej= -1.00D+00 NBFU=   222
 The nuclear repulsion energy is now       223.5958060958 hartrees.
 Initial guess from the checkpoint file:  "checkpoint.chk"
 B after Tr=    -0.000628   -0.015863    0.000193
         Rot=    0.999986    0.004246   -0.000216    0.003092 Ang=   0.60 deg.
 Keep R1 ints in memory in canonical form, NReq=319363885.
 Requested convergence on RMS density matrix=1.00D-08 within 128 cycles.
 Requested convergence on MAX density matrix=1.00D-06.
 Requested convergence on             energy=1.00D-06.
 No special actions if energy rises.
 SCF Done:  E(RB3LYP) =  -269.423431407     A.U. after    8 cycles
            NFock=  8  Conv=0.99D-08     -V/T= 2.0050
   1 Symmetry operations used in ECPInt.
 ECPInt:  NShTT=    4095 NPrTT=   12396 LenC2=    4075 LenP2D=   10420.
 LDataN:  DoStor=T MaxTD1= 7 Len=  274
 Calling FoFJK, ICntrl=      2127 FMM=F ISym2X=0 I1Cent= 0 IOpClX= 0 NMat=1 NMatS=1 NMatT=0.
 -------------------------------------------------------------------
 Center     Atomic                   Forces (Hartrees/Bohr)
 Number     Number              X              Y              Z
 -------------------------------------------------------------------
      1        1          -0.000015960   -0.000137684   -0.000018380
      2        6           0.000173268    0.000535117    0.000013241
      3        6          -0.000102437   -0.000442457   -0.000006811
      4        6          -0.000153032    0.000091677    0.000066744
      5        1          -0.000003736    0.000090709    0.000035799
      6        8           0.000176229   -0.000292559   -0.000197836
      7        6           0.000006788   -0.000181564   -0.000048086
      8        1           0.000026898    0.000014512   -0.000022929
      9        6          -0.000161761    0.000193729    0.000132356
     10        1           0.000056485    0.000134455    0.000022045
     11        1          -0.000060556    0.000015678   -0.000000777
     12        1           0.000057815   -0.000021613    0.000024634
 -------------------------------------------------------------------
 Cartesian Forces:  Max     0.000535117 RMS     0.000157416
 -----------------------------------------------------------------------------------------------
                       Internal Coordinate Forces (Hartree/Bohr or radian)
  Cent   Atom   N1       Length/X         N2         Alpha/Y        N3         Beta/Z          J
 -----------------------------------------------------------------------------------------------
      1  H 
      2  C        1   0.000018(     1)
      3  C        2  -0.000088(     2)      1   0.000107(    12)
      4  C        2   0.000070(     3)      1   0.000130(    13)      3  -0.000382(    22)     0
      5  H        3  -0.000015(     4)      2   0.000057(    14)      1  -0.000225(    23)     0
      6  O        3  -0.000045(     5)      2   0.000059(    15)      5  -0.000381(    24)     0
      7  C        4  -0.000020(     6)      2  -0.000230(    16)      1  -0.000091(    25)     0
      8  H        4  -0.000007(     7)      2  -0.000068(    17)      7  -0.000031(    26)     0
      9  C        6   0.000151(     8)      3   0.000187(    18)      2  -0.000421(    27)     0
     10  H        7  -0.000004(     9)      4   0.000031(    19)      2  -0.000252(    28)     0
     11  H        9  -0.000002(    10)      6   0.000095(    20)      3   0.000183(    29)     0
     12  H        9   0.000024(    11)      6  -0.000077(    21)     11   0.000099(    30)     0
 -----------------------------------------------------------------------------------------------
 Internal  Forces:  Max     0.000420645 RMS     0.000165072

 GradGradGradGradGradGradGradGradGradGradGradGradGradGradGradGradGradGrad
 Berny optimization.
 Search for a local minimum.
 Step number   2 out of a maximum of   40
 All quantities printed in internal units (Hartrees-Bohrs-Radians)
 Update second derivatives using D2CorN and points    1    2
 DE= -1.83D-05 DEPred=-1.27D-05 R= 1.45D+00
 TightC=F SS=  1.41D+00  RLast= 2.07D-02 DXNew= 1.6818D-01 6.2158D-02
 Trust test= 1.45D+00 RLast= 2.07D-02 DXMaxT set to 1.00D-01
 ITU=  1  0
     Eigenvalues ---    0.01635   0.04500   0.04985   0.06952   0.11354
     Eigenvalues ---    0.14976   0.16649   0.17338   0.18009   0.22043
     Eigenvalues ---    0.24444   0.27963   0.31021   0.33403   0.34954
     Eigenvalues ---    0.35661   0.35710   0.35756   0.36011   0.36713
     Eigenvalues ---    0.38353   0.40809   0.46308   0.54141   0.57329
     Eigenvalues ---    0.57650   0.59876   2.30345   3.90646  24.81197
 RFO step:  Lambda=-5.28470002D-06 EMin= 1.63474380D-02
 Quartic linear search produced a step of  0.82663.
 Variable       Old X    -DE/DX   Delta X   Delta X   Delta X     New X
                                 (Linear)    (Quad)   (Total)
    R2        2.04075   0.00002   0.00009   0.00002   0.00011   2.04086
    R3        2.53428  -0.00009  -0.00017  -0.00014  -0.00030   2.53398
    R4        2.74810   0.00007   0.00029   0.00020   0.00049   2.74859
    R5        2.04567  -0.00002   0.00024  -0.00032  -0.00008   2.04559
    R6        2.55929  -0.00004   0.00054  -0.00074  -0.00019   2.55910
    R7        2.52460  -0.00002  -0.00046   0.00039  -0.00007   2.52453
    R8        2.04581  -0.00001  -0.00027   0.00022  -0.00005   2.04576
    R9        2.72943   0.00015   0.00008   0.00077   0.00085   2.73028
   R10        2.04443  -0.00000  -0.00018   0.00016  -0.00002   2.04442
   R11        2.05754  -0.00000   0.00005  -0.00004   0.00001   2.05755
   R12        2.08487   0.00002   0.00125  -0.00107   0.00018   2.08505
    A3        2.09027   0.00011  -0.00051  -0.00027  -0.00078   2.08949
    A4        2.12028   0.00013  -0.00103   0.00023  -0.00080   2.11948
    A5        2.17024   0.00006  -0.00057   0.00038  -0.00020   2.17004
    A6        2.15289   0.00006   0.00088   0.00035   0.00123   2.15412
    A7        2.08032  -0.00023  -0.00026   0.00026   0.00001   2.08033
    A8        2.08244  -0.00007   0.00022  -0.00069  -0.00047   2.08197
    A9        2.01212   0.00019   0.00034   0.00188   0.00222   2.01434
   A10        2.14084   0.00003  -0.00048   0.00025  -0.00023   2.14061
   A11        1.83876   0.00009  -0.00021   0.00076   0.00055   1.83931
   A12        1.87544  -0.00008  -0.00097   0.00044  -0.00053   1.87491
    D4        2.97639  -0.00038  -0.00889  -0.00417  -0.01306   2.96333
    D5        0.05223  -0.00023  -0.00268  -0.00310  -0.00579   0.04644
    D6        3.04230  -0.00038  -0.00254   0.00238  -0.00016   3.04214
    D7        3.03895  -0.00009   0.00868   0.00521   0.01389   3.05284
    D8        3.05652  -0.00003  -0.00375  -0.00078  -0.00454   3.05199
    D9        0.40192  -0.00042  -0.00709  -0.00492  -0.01202   0.38990
   D10        3.04871  -0.00025  -0.00350  -0.00341  -0.00691   3.04179
   D11       -2.86458   0.00018   0.00651   0.00389   0.01040  -2.85419
   D12       -2.01026   0.00010   0.00020   0.00020   0.00040  -2.00986
         Item               Value     Threshold  Converged?
 Maximum Force            0.000421     0.000450     YES
 RMS     Force            0.000165     0.000300     YES
 Maximum Displacement     0.013888     0.001800     NO 
 RMS     Displacement     0.004925     0.001200     NO 
 Predicted change in Energy=-7.166027D-06
 GradGradGradGradGradGradGradGradGradGradGradGradGradGradGradGradGradGrad

 ---------------------------------------------------------------------------------------------------
                            Z-MATRIX (ANGSTROMS AND DEGREES)
   CD    Cent   Atom    N1       Length/X        N2       Alpha/Y        N3        Beta/Z          J
 ---------------------------------------------------------------------------------------------------
      1      1  H 
      2      2  C        1   1.079974(     1)
      3      3  C        2   1.340922(     2)      1  119.719(    12)
      4      4  C        2   1.454489(     3)      1  121.438(    13)      3  169.786(    22)      0
      5      5  H        3   1.082479(     4)      2  124.334(    14)      1    2.661(    23)      0
      6      6  O        3   1.354218(     5)      2  123.422(    15)      5  174.302(    24)      0
      7      7  C        4   1.335926(     6)      2  119.194(    16)      1  174.915(    25)      0
      8      8  H        4   1.082572(     7)      2  119.288(    17)      7  174.866(    26)      0
      9      9  C        6   1.444803(     8)      3  115.413(    18)      2   22.340(    27)      0
     10     10  H        7   1.081859(     9)      4  122.648(    19)      2  174.282(    28)      0
     11     11  H        9   1.088811(    10)      6  105.385(    20)      3 -163.533(    29)      0
     12     12  H        9   1.103363(    11)      6  107.424(    21)     11 -115.156(    30)      0
 ---------------------------------------------------------------------------------------------------
                         Z-Matrix orientation:                         
 ---------------------------------------------------------------------
 Center     Atomic      Atomic             Coordinates (Angstroms)
 Number     Number       Type             X           Y           Z
 ---------------------------------------------------------------------
      1          1           0        0.000000    0.000000    0.000000
      2          6           0        0.000000    0.000000    1.079974
      3          6           0        1.164547    0.000000    1.744731
      4          6           0       -1.221319    0.220050    1.838590
      5          1           0        2.137433    0.041501    1.271940
      6          8           0        1.252799    0.059889    3.094742
      7          6           0       -1.190535    0.109471    3.169576
      8          1           0       -2.113276    0.550964    1.321995
      9          6           0        0.076105   -0.372791    3.812818
     10          1           0       -2.040435    0.348388    3.794882
     11          1           0        0.197437    0.011396    4.824345
     12          1           0        0.103288   -1.474891    3.858061
 ---------------------------------------------------------------------
                    Distance matrix (angstroms):
                    1          2          3          4          5
     1  H    0.000000
     2  C    1.079974   0.000000
     3  C    2.097679   1.340922   0.000000
     4  C    2.218210   1.454489   2.397830   0.000000
     5  H    2.487604   2.146438   1.082479   3.410892   0.000000
     6  O    3.339240   2.373265   1.354218   2.779358   2.026209
     7  C    3.387561   2.407445   2.754737   1.335926   3.831581
     8  H    2.552874   2.197287   3.350580   1.082572   4.281423
     9  C    3.831755   2.759203   2.366572   2.435641   3.297995
    10  H    4.322717   3.414012   3.820524   2.124736   4.890195
    11  H    4.828397   3.749590   3.227918   3.312271   4.047725
    12  H    4.131659   3.147020   2.787066   2.950537   3.622873
                    6          7          8          9         10
     6  O    0.000000
     7  C    2.444983   0.000000
     8  H    3.835916   2.111852   0.000000
     9  C    1.444803   1.500238   3.442515   0.000000
    10  H    3.379175   1.081859   2.482240   2.236104   0.000000
    11  H    2.026738   2.162024   4.230483   1.088811   2.486248
    12  H    2.063875   2.158284   3.930505   1.103363   2.814940
                   11         12
    11  H    0.000000
    12  H    1.775280   0.000000
 Symmetry turned off by external request.
 Stoichiometry    C5H6O
 Framework group  C1[X(C5H6O)]
 Deg. of freedom    30
 Full point group                 C1      NOp   1
 Rotational constants (GHZ):           5.5841247           5.3712035           2.8559200
 Standard basis: def2TZVP (5D, 7F)
 The following finite field(s) will be applied:
 An electric field of              0.0026 -0.0042 -0.0002
   222 basis functions,   354 primitive gaussians,   252 cartesian basis functions
    22 alpha electrons       22 beta electrons
       nuclear repulsion energy       223.5870873565 Hartrees.
 NAtoms=   12 NActive=   12 NUniq=   12 SFac= 1.00D+00 NAtFMM=   60 NAOKFM=F Big=F
 Integral buffers will be    131072 words long.
 Raffenetti 2 integral format.
 Two-electron integral symmetry is turned off.
 One-electron integrals computed using PRISM.
   1 Symmetry operations used in ECPInt.
 ECPInt:  NShTT=    4095 NPrTT=   12396 LenC2=    4075 LenP2D=   10419.
 LDataN:  DoStor=T MaxTD1= 6 Len=  172
 NBasis=   222 RedAO= T EigKep=  9.71D-05  NBF=   222
 NBsUse=   222 1.00D-06 EigRej= -1.00D+00 NBFU=   222
 The nuclear repulsion energy is now       223.5617384664 hartrees.
 Initial guess from the checkpoint file:  "checkpoint.chk"
 B after Tr=    -0.001945   -0.019041    0.001297
         Rot=    0.999979    0.005032   -0.000462    0.004098 Ang=   0.75 deg.
 Keep R1 ints in memory in canonical form, NReq=319363885.
 Requested convergence on RMS density matrix=1.00D-08 within 128 cycles.
 Requested convergence on MAX density matrix=1.00D-06.
 Requested convergence on             energy=1.00D-06.
 No special actions if energy rises.
 SCF Done:  E(RB3LYP) =  -269.423438951     A.U. after    8 cycles
            NFock=  8  Conv=0.78D-08     -V/T= 2.0050
   1 Symmetry operations used in ECPInt.
 ECPInt:  NShTT=    4095 NPrTT=   12396 LenC2=    4075 LenP2D=   10419.
 LDataN:  DoStor=T MaxTD1= 7 Len=  274
 Calling FoFJK, ICntrl=      2127 FMM=F ISym2X=0 I1Cent= 0 IOpClX= 0 NMat=1 NMatS=1 NMatT=0.
 -------------------------------------------------------------------
 Center     Atomic                   Forces (Hartrees/Bohr)
 Number     Number              X              Y              Z
 -------------------------------------------------------------------
      1        1          -0.000030275   -0.000415635    0.000009993
      2        6          -0.000060206    0.001070558   -0.000097997
      3        6           0.000047181   -0.000630573    0.000314525
      4        6           0.000061018    0.000117841    0.000084521
      5        1           0.000020003   -0.000012866    0.000018590
      6        8           0.000090725   -0.000078510   -0.000318675
      7        6          -0.000121116   -0.000027265   -0.000085881
      8        1          -0.000009235   -0.000035883   -0.000013615
      9        6          -0.000077017   -0.000079202    0.000094572
     10        1          -0.000010122    0.000000168   -0.000005511
     11        1           0.000038065    0.000001490    0.000009784
     12        1           0.000050978    0.000089877   -0.000010307
 -------------------------------------------------------------------
 Cartesian Forces:  Max     0.001070558 RMS     0.000237547
 -----------------------------------------------------------------------------------------------
                       Internal Coordinate Forces (Hartree/Bohr or radian)
  Cent   Atom   N1       Length/X         N2         Alpha/Y        N3         Beta/Z          J
 -----------------------------------------------------------------------------------------------
      1  H 
      2  C        1  -0.000010(     1)
      3  C        2   0.000201(     2)      1  -0.000523(    12)
      4  C        2   0.000064(     3)      1  -0.000521(    13)      3  -0.000052(    22)     0
      5  H        3   0.000009(     4)      2   0.000053(    14)      1   0.000060(    23)     0
      6  O        3  -0.000220(     5)      2   0.000599(    15)      5   0.000081(    24)     0
      7  C        4  -0.000092(     6)      2   0.000319(    16)      1  -0.000067(    25)     0
      8  H        4   0.000003(     7)      2  -0.000015(    17)      7   0.000069(    26)     0
      9  C        6   0.000033(     8)      3   0.000307(    18)      2   0.000074(    27)     0
     10  H        7   0.000005(     9)      4  -0.000020(    19)      2   0.000006(    28)     0
     11  H        9   0.000014(    10)      6  -0.000065(    20)      3   0.000004(    29)     0
     12  H        9  -0.000089(    11)      6  -0.000103(    21)     11   0.000042(    30)     0
 -----------------------------------------------------------------------------------------------
 Internal  Forces:  Max     0.000599400 RMS     0.000204819

 GradGradGradGradGradGradGradGradGradGradGradGradGradGradGradGradGradGrad
 Berny optimization.
 Search for a local minimum.
 Step number   3 out of a maximum of   40
 All quantities printed in internal units (Hartrees-Bohrs-Radians)
 Update second derivatives using D2CorN and points    1    2    3
 DE= -7.54D-06 DEPred=-7.17D-06 R= 1.05D+00
 TightC=F SS=  1.41D+00  RLast= 2.70D-02 DXNew= 1.6818D-01 8.0933D-02
 Trust test= 1.05D+00 RLast= 2.70D-02 DXMaxT set to 1.00D-01
 ITU=  1  1  0
     Eigenvalues ---    0.01688   0.04519   0.04999   0.06885   0.11313
     Eigenvalues ---    0.14961   0.16651   0.17338   0.18008   0.22046
     Eigenvalues ---    0.24444   0.27962   0.31014   0.33412   0.34954
     Eigenvalues ---    0.35662   0.35710   0.35756   0.36011   0.36708
     Eigenvalues ---    0.38331   0.40782   0.46310   0.54151   0.57332
     Eigenvalues ---    0.57650   0.59877   2.30347   3.90625  24.81201
 RFO step:  Lambda=-5.48681730D-07 EMin= 1.68836800D-02
 Quartic linear search produced a step of  0.03506.
 Variable       Old X    -DE/DX   Delta X   Delta X   Delta X     New X
                                 (Linear)    (Quad)   (Total)
    R2        2.04086  -0.00001   0.00000  -0.00003  -0.00003   2.04083
    R3        2.53398   0.00020  -0.00001   0.00017   0.00016   2.53413
    R4        2.74859   0.00006   0.00002  -0.00001   0.00001   2.74860
    R5        2.04559   0.00001  -0.00000   0.00003   0.00003   2.04562
    R6        2.55910  -0.00022  -0.00001  -0.00052  -0.00053   2.55857
    R7        2.52453  -0.00009  -0.00000  -0.00007  -0.00008   2.52446
    R8        2.04576   0.00000  -0.00000   0.00001   0.00001   2.04577
    R9        2.73028   0.00003   0.00003   0.00023   0.00026   2.73054
   R10        2.04442   0.00000  -0.00000   0.00001   0.00001   2.04443
   R11        2.05755   0.00001   0.00000   0.00004   0.00004   2.05760
   R12        2.08505  -0.00009   0.00001  -0.00028  -0.00027   2.08478
    A3        2.08949  -0.00052  -0.00003   0.00002  -0.00001   2.08948
    A4        2.11948  -0.00052  -0.00003   0.00004   0.00002   2.11950
    A5        2.17004   0.00005  -0.00001   0.00010   0.00009   2.17013
    A6        2.15412   0.00060   0.00004   0.00019   0.00023   2.15435
    A7        2.08033   0.00032   0.00000   0.00015   0.00015   2.08047
    A8        2.08197  -0.00001  -0.00002  -0.00009  -0.00011   2.08186
    A9        2.01434   0.00031   0.00008   0.00020   0.00028   2.01462
   A10        2.14061  -0.00002  -0.00001  -0.00004  -0.00005   2.14056
   A11        1.83931  -0.00006   0.00002  -0.00019  -0.00017   1.83915
   A12        1.87491  -0.00010  -0.00002  -0.00059  -0.00061   1.87430
    D4        2.96333  -0.00005  -0.00046  -0.00017  -0.00063   2.96270
    D5        0.04644   0.00006  -0.00020  -0.00036  -0.00056   0.04588
    D6        3.04214   0.00008  -0.00001   0.00065   0.00065   3.04278
    D7        3.05284  -0.00007   0.00049  -0.00027   0.00021   3.05306
    D8        3.05199   0.00007  -0.00016   0.00092   0.00076   3.05275
    D9        0.38990   0.00007  -0.00042  -0.00076  -0.00118   0.38872
   D10        3.04179   0.00001  -0.00024   0.00049   0.00025   3.04205
   D11       -2.85419   0.00000   0.00036   0.00058   0.00094  -2.85324
   D12       -2.00986   0.00004   0.00001   0.00038   0.00040  -2.00946
         Item               Value     Threshold  Converged?
 Maximum Force            0.000599     0.000450     NO 
 RMS     Force            0.000205     0.000300     YES
 Maximum Displacement     0.001178     0.001800     YES
 RMS     Displacement     0.000420     0.001200     YES
 Predicted change in Energy=-2.756945D-07
 GradGradGradGradGradGradGradGradGradGradGradGradGradGradGradGradGradGrad

 ---------------------------------------------------------------------------------------------------
                            Z-MATRIX (ANGSTROMS AND DEGREES)
   CD    Cent   Atom    N1       Length/X        N2       Alpha/Y        N3        Beta/Z          J
 ---------------------------------------------------------------------------------------------------
      1      1  H 
      2      2  C        1   1.079960(     1)
      3      3  C        2   1.341004(     2)      1  119.719(    12)
      4      4  C        2   1.454495(     3)      1  121.438(    13)      3  169.750(    22)      0
      5      5  H        3   1.082493(     4)      2  124.339(    14)      1    2.629(    23)      0
      6      6  O        3   1.353939(     5)      2  123.435(    15)      5  174.339(    24)      0
      7      7  C        4   1.335885(     6)      2  119.202(    16)      1  174.927(    25)      0
      8      8  H        4   1.082576(     7)      2  119.282(    17)      7  174.910(    26)      0
      9      9  C        6   1.444939(     8)      3  115.429(    18)      2   22.272(    27)      0
     10     10  H        7   1.081866(     9)      4  122.645(    19)      2  174.296(    28)      0
     11     11  H        9   1.088833(    10)      6  105.375(    20)      3 -163.479(    29)      0
     12     12  H        9   1.103219(    11)      6  107.389(    21)     11 -115.134(    30)      0
 ---------------------------------------------------------------------------------------------------
                         Z-Matrix orientation:                         
 ---------------------------------------------------------------------
 Center     Atomic      Atomic             Coordinates (Angstroms)
 Number     Number       Type             X           Y           Z
 ---------------------------------------------------------------------
      1          1           0        0.000000    0.000000    0.000000
      2          6           0        0.000000    0.000000    1.079960
      3          6           0        1.164623    0.000000    1.744751
      4          6           0       -1.221172    0.220819    1.838599
      5          1           0        2.137572    0.040995    1.272014
      6          8           0        1.253172    0.059774    3.094468
      7          6           0       -1.190572    0.110506    3.169570
      8          1           0       -2.113119    0.551422    1.321779
      9          6           0        0.076191   -0.371523    3.813179
     10          1           0       -2.040511    0.349802    3.794691
     11          1           0        0.198114    0.013540    4.824327
     12          1           0        0.103418   -1.473438    3.859384
 ---------------------------------------------------------------------
                    Distance matrix (angstroms):
                    1          2          3          4          5
     1  H    0.000000
     2  C    1.079960   0.000000
     3  C    2.097737   1.341004   0.000000
     4  C    2.218213   1.454495   2.397829   0.000000
     5  H    2.487753   2.146574   1.082493   3.410941   0.000000
     6  O    3.339123   2.373237   1.353939   2.779483   2.025797
     7  C    3.387602   2.407518   2.754862   1.335885   3.831722
     8  H    2.552731   2.197229   3.350606   1.082576   4.281517
     9  C    3.831993   2.759406   2.366667   2.435773   3.298027
    10  H    4.322699   3.414061   3.820667   2.124676   4.890362
    11  H    4.828412   3.749629   3.227710   3.312388   4.047366
    12  H    4.132380   3.147525   2.787266   2.951037   3.622951
                    6          7          8          9         10
     6  O    0.000000
     7  C    2.445425   0.000000
     8  H    3.836152   2.111831   0.000000
     9  C    1.444939   1.500424   3.442671   0.000000
    10  H    3.379760   1.081866   2.482180   2.236309   0.000000
    11  H    2.026745   2.162423   4.230716   1.088833   2.486899
    12  H    2.063437   2.158503   3.930971   1.103219   2.815106
                   11         12
    11  H    0.000000
    12  H    1.775158   0.000000
 Symmetry turned off by external request.
 Stoichiometry    C5H6O
 Framework group  C1[X(C5H6O)]
 Deg. of freedom    30
 Full point group                 C1      NOp   1
 Rotational constants (GHZ):           5.5842512           5.3705736           2.8555674
 Standard basis: def2TZVP (5D, 7F)
 The following finite field(s) will be applied:
 An electric field of              0.0026 -0.0042 -0.0002
   222 basis functions,   354 primitive gaussians,   252 cartesian basis functions
    22 alpha electrons       22 beta electrons
       nuclear repulsion energy       223.5828649619 Hartrees.
 NAtoms=   12 NActive=   12 NUniq=   12 SFac= 1.00D+00 NAtFMM=   60 NAOKFM=F Big=F
 Integral buffers will be    131072 words long.
 Raffenetti 2 integral format.
 Two-electron integral symmetry is turned off.
 One-electron integrals computed using PRISM.
   1 Symmetry operations used in ECPInt.
 ECPInt:  NShTT=    4095 NPrTT=   12396 LenC2=    4075 LenP2D=   10419.
 LDataN:  DoStor=T MaxTD1= 6 Len=  172
 NBasis=   222 RedAO= T EigKep=  9.71D-05  NBF=   222
 NBsUse=   222 1.00D-06 EigRej= -1.00D+00 NBFU=   222
 The nuclear repulsion energy is now       223.5573634141 hartrees.
 Initial guess from the checkpoint file:  "checkpoint.chk"
 B after Tr=    -0.000093   -0.000924    0.000042
         Rot=    1.000000    0.000202   -0.000036    0.000170 Ang=   0.03 deg.
 Keep R1 ints in memory in canonical form, NReq=319363885.
 Requested convergence on RMS density matrix=1.00D-08 within 128 cycles.
 Requested convergence on MAX density matrix=1.00D-06.
 Requested convergence on             energy=1.00D-06.
 No special actions if energy rises.
 SCF Done:  E(RB3LYP) =  -269.423439309     A.U. after    7 cycles
            NFock=  7  Conv=0.32D-08     -V/T= 2.0050
   1 Symmetry operations used in ECPInt.
 ECPInt:  NShTT=    4095 NPrTT=   12396 LenC2=    4075 LenP2D=   10419.
 LDataN:  DoStor=T MaxTD1= 7 Len=  274
 Calling FoFJK, ICntrl=      2127 FMM=F ISym2X=0 I1Cent= 0 IOpClX= 0 NMat=1 NMatS=1 NMatT=0.
 -------------------------------------------------------------------
 Center     Atomic                   Forces (Hartrees/Bohr)
 Number     Number              X              Y              Z
 -------------------------------------------------------------------
      1        1          -0.000031041   -0.000418936    0.000004846
      2        6           0.000017150    0.001129798   -0.000045552
      3        6           0.000013141   -0.000690092    0.000139151
      4        6           0.000043785    0.000045072    0.000029594
      5        1           0.000004592   -0.000007484   -0.000012591
      6        8           0.000037658   -0.000001616   -0.000155479
      7        6          -0.000014692   -0.000013359   -0.000009516
      8        1          -0.000008812   -0.000021944   -0.000002878
      9        6          -0.000066244   -0.000039945    0.000048783
     10        1           0.000005168   -0.000002981    0.000003056
     11        1           0.000001165    0.000007564   -0.000005798
     12        1          -0.000001869    0.000013922    0.000006384
 -------------------------------------------------------------------
 Cartesian Forces:  Max     0.001129798 RMS     0.000235202
 -----------------------------------------------------------------------------------------------
                       Internal Coordinate Forces (Hartree/Bohr or radian)
  Cent   Atom   N1       Length/X         N2         Alpha/Y        N3         Beta/Z          J
 -----------------------------------------------------------------------------------------------
      1  H 
      2  C        1  -0.000005(     1)
      3  C        2   0.000000(     2)      1   0.000075(    12)
      4  C        2  -0.000010(     3)      1   0.000077(    13)      3   0.000016(    22)     0
      5  H        3   0.000009(     4)      2  -0.000019(    14)      1  -0.000029(    23)     0
      6  O        3  -0.000109(     5)      2  -0.000034(    15)      5  -0.000016(    24)     0
      7  C        4  -0.000005(     6)      2   0.000002(    16)      1   0.000000(    25)     0
      8  H        4   0.000002(     7)      2   0.000004(    17)      7   0.000042(    26)     0
      9  C        6   0.000085(     8)      3   0.000038(    18)      2  -0.000018(    27)     0
     10  H        7  -0.000003(     9)      4   0.000012(    19)      2   0.000002(    28)     0
     11  H        9  -0.000003(    10)      6  -0.000012(    20)      3   0.000025(    29)     0
     12  H        9  -0.000014(    11)      6   0.000010(    21)     11   0.000010(    30)     0
 -----------------------------------------------------------------------------------------------
 Internal  Forces:  Max     0.000108580 RMS     0.000035887

 GradGradGradGradGradGradGradGradGradGradGradGradGradGradGradGradGradGrad
 Berny optimization.
 Search for a local minimum.
 Step number   4 out of a maximum of   40
 All quantities printed in internal units (Hartrees-Bohrs-Radians)
 Update second derivatives using D2CorN and points    1    2    3    4
 DE= -3.58D-07 DEPred=-2.76D-07 R= 1.30D+00
 Trust test= 1.30D+00 RLast= 2.30D-03 DXMaxT set to 1.00D-01
 ITU=  0  1  1  0
     Eigenvalues ---    0.01209   0.04175   0.04811   0.06548   0.11461
     Eigenvalues ---    0.14882   0.16631   0.17220   0.17803   0.22017
     Eigenvalues ---    0.24455   0.28017   0.31051   0.33342   0.34956
     Eigenvalues ---    0.35661   0.35707   0.35757   0.36009   0.36706
     Eigenvalues ---    0.38180   0.40779   0.46159   0.53339   0.57219
     Eigenvalues ---    0.57651   0.59850   2.30347   3.90621  24.81283
 RFO step:  Lambda=-1.15117424D-07 EMin= 1.20877846D-02
 Quartic linear search produced a step of  0.39426.
 Variable       Old X    -DE/DX   Delta X   Delta X   Delta X     New X
                                 (Linear)    (Quad)   (Total)
    R2        2.04083  -0.00000  -0.00001  -0.00001  -0.00002   2.04081
    R3        2.53413   0.00000   0.00006  -0.00003   0.00003   2.53416
    R4        2.74860  -0.00001   0.00000   0.00000   0.00001   2.74860
    R5        2.04562   0.00001   0.00001   0.00003   0.00004   2.04566
    R6        2.55857  -0.00011  -0.00021  -0.00017  -0.00037   2.55820
    R7        2.52446  -0.00001  -0.00003   0.00000  -0.00003   2.52443
    R8        2.04577   0.00000   0.00000   0.00000   0.00001   2.04578
    R9        2.73054   0.00008   0.00010   0.00028   0.00038   2.73092
   R10        2.04443  -0.00000   0.00001  -0.00002  -0.00001   2.04442
   R11        2.05760  -0.00000   0.00002  -0.00002  -0.00001   2.05759
   R12        2.08478  -0.00001  -0.00011   0.00002  -0.00008   2.08470
    A3        2.08948   0.00008  -0.00000   0.00003   0.00003   2.08951
    A4        2.11950   0.00008   0.00001   0.00002   0.00003   2.11953
    A5        2.17013  -0.00002   0.00004  -0.00016  -0.00013   2.17000
    A6        2.15435  -0.00003   0.00009   0.00005   0.00014   2.15450
    A7        2.08047   0.00000   0.00006   0.00015   0.00021   2.08068
    A8        2.08186   0.00000  -0.00004  -0.00004  -0.00009   2.08177
    A9        2.01462   0.00004   0.00011   0.00028   0.00039   2.01501
   A10        2.14056   0.00001  -0.00002   0.00006   0.00004   2.14059
   A11        1.83915  -0.00001  -0.00007  -0.00002  -0.00008   1.83906
   A12        1.87430   0.00001  -0.00024   0.00026   0.00002   1.87432
    D4        2.96270   0.00002  -0.00025  -0.00048  -0.00073   2.96197
    D5        0.04588  -0.00003  -0.00022  -0.00053  -0.00076   0.04512
    D6        3.04278  -0.00002   0.00026   0.00034   0.00059   3.04338
    D7        3.05306   0.00000   0.00008   0.00052   0.00060   3.05366
    D8        3.05275   0.00004   0.00030   0.00031   0.00061   3.05336
    D9        0.38872  -0.00002  -0.00046  -0.00063  -0.00109   0.38763
   D10        3.04205   0.00000   0.00010  -0.00011  -0.00001   3.04204
   D11       -2.85324   0.00002   0.00037   0.00099   0.00136  -2.85189
   D12       -2.00946   0.00001   0.00016  -0.00014   0.00002  -2.00944
         Item               Value     Threshold  Converged?
 Maximum Force            0.000109     0.000450     YES
 RMS     Force            0.000036     0.000300     YES
 Maximum Displacement     0.001359     0.001800     YES
 RMS     Displacement     0.000439     0.001200     YES
 Predicted change in Energy=-8.483705D-08
 Optimization completed.
    -- Stationary point found.
                       ----------------------------
                       !   Optimized Parameters   !
                       ! (Angstroms and Degrees)  !
 ----------------------                            ----------------------
 !      Name          Value   Derivative information (Atomic Units)     !
 ------------------------------------------------------------------------
 !       R2          1.08     -DE/DX =    0.0                           !
 !       R3          1.341    -DE/DX =    0.0                           !
 !       R4          1.4545   -DE/DX =    0.0                           !
 !       R5          1.0825   -DE/DX =    0.0                           !
 !       R6          1.3539   -DE/DX =   -0.0001                        !
 !       R7          1.3359   -DE/DX =    0.0                           !
 !       R8          1.0826   -DE/DX =    0.0                           !
 !       R9          1.4449   -DE/DX =    0.0001                        !
 !       R10         1.0819   -DE/DX =    0.0                           !
 !       R11         1.0888   -DE/DX =    0.0                           !
 !       R12         1.1032   -DE/DX =    0.0                           !
 !       A3        119.7186   -DE/DX =    0.0001                        !
 !       A4        121.4384   -DE/DX =    0.0001                        !
 !       A5        124.3391   -DE/DX =    0.0                           !
 !       A6        123.4353   -DE/DX =    0.0                           !
 !       A7        119.2023   -DE/DX =    0.0                           !
 !       A8        119.2818   -DE/DX =    0.0                           !
 !       A9        115.4293   -DE/DX =    0.0                           !
 !       A10       122.6449   -DE/DX =    0.0                           !
 !       A11       105.3753   -DE/DX =    0.0                           !
 !       A12       107.3894   -DE/DX =    0.0                           !
 !       D4        169.7502   -DE/DX =    0.0                           !
 !       D5          2.6287   -DE/DX =    0.0                           !
 !       D6        174.3387   -DE/DX =    0.0                           !
 !       D7        174.9272   -DE/DX =    0.0                           !
 !       D8        174.9096   -DE/DX =    0.0                           !
 !       D9         22.2721   -DE/DX =    0.0                           !
 !       D10       174.2964   -DE/DX =    0.0                           !
 !       D11      -163.4789   -DE/DX =    0.0                           !
 !       D12      -115.1337   -DE/DX =    0.0                           !
 ------------------------------------------------------------------------
 GradGradGradGradGradGradGradGradGradGradGradGradGradGradGradGradGradGrad

 ---------------------------------------------------------------------------------------------------
                            Z-MATRIX (ANGSTROMS AND DEGREES)
   CD    Cent   Atom    N1       Length/X        N2       Alpha/Y        N3        Beta/Z          J
 ---------------------------------------------------------------------------------------------------
      1      1  H 
      2      2  C        1   1.079960(     1)
      3      3  C        2   1.341004(     2)      1  119.719(    12)
      4      4  C        2   1.454495(     3)      1  121.438(    13)      3  169.750(    22)      0
      5      5  H        3   1.082493(     4)      2  124.339(    14)      1    2.629(    23)      0
      6      6  O        3   1.353939(     5)      2  123.435(    15)      5  174.339(    24)      0
      7      7  C        4   1.335885(     6)      2  119.202(    16)      1  174.927(    25)      0
      8      8  H        4   1.082576(     7)      2  119.282(    17)      7  174.910(    26)      0
      9      9  C        6   1.444939(     8)      3  115.429(    18)      2   22.272(    27)      0
     10     10  H        7   1.081866(     9)      4  122.645(    19)      2  174.296(    28)      0
     11     11  H        9   1.088833(    10)      6  105.375(    20)      3 -163.479(    29)      0
     12     12  H        9   1.103219(    11)      6  107.389(    21)     11 -115.134(    30)      0
 ---------------------------------------------------------------------------------------------------
                         Z-Matrix orientation:                         
 ---------------------------------------------------------------------
 Center     Atomic      Atomic             Coordinates (Angstroms)
 Number     Number       Type             X           Y           Z
 ---------------------------------------------------------------------
      1          1           0        0.000000    0.000000    0.000000
      2          6           0        0.000000    0.000000    1.079960
      3          6           0        1.164623    0.000000    1.744751
      4          6           0       -1.221172    0.220819    1.838599
      5          1           0        2.137572    0.040995    1.272014
      6          8           0        1.253172    0.059774    3.094468
      7          6           0       -1.190572    0.110506    3.169570
      8          1           0       -2.113119    0.551422    1.321779
      9          6           0        0.076191   -0.371523    3.813179
     10          1           0       -2.040511    0.349802    3.794691
     11          1           0        0.198114    0.013540    4.824327
     12          1           0        0.103418   -1.473438    3.859384
 ---------------------------------------------------------------------
                    Distance matrix (angstroms):
                    1          2          3          4          5
     1  H    0.000000
     2  C    1.079960   0.000000
     3  C    2.097737   1.341004   0.000000
     4  C    2.218213   1.454495   2.397829   0.000000
     5  H    2.487753   2.146574   1.082493   3.410941   0.000000
     6  O    3.339123   2.373237   1.353939   2.779483   2.025797
     7  C    3.387602   2.407518   2.754862   1.335885   3.831722
     8  H    2.552731   2.197229   3.350606   1.082576   4.281517
     9  C    3.831993   2.759406   2.366667   2.435773   3.298027
    10  H    4.322699   3.414061   3.820667   2.124676   4.890362
    11  H    4.828412   3.749629   3.227710   3.312388   4.047366
    12  H    4.132380   3.147525   2.787266   2.951037   3.622951
                    6          7          8          9         10
     6  O    0.000000
     7  C    2.445425   0.000000
     8  H    3.836152   2.111831   0.000000
     9  C    1.444939   1.500424   3.442671   0.000000
    10  H    3.379760   1.081866   2.482180   2.236309   0.000000
    11  H    2.026745   2.162423   4.230716   1.088833   2.486899
    12  H    2.063437   2.158503   3.930971   1.103219   2.815106
                   11         12
    11  H    0.000000
    12  H    1.775158   0.000000
 Symmetry turned off by external request.
 Stoichiometry    C5H6O
 Framework group  C1[X(C5H6O)]
 Deg. of freedom    30
 Full point group                 C1      NOp   1
 Rotational constants (GHZ):           5.5842512           5.3705736           2.8555674
 1\1\GINC-BHC0034\FOpt\RB3LYP\def2TZVP\C5H6O1\DHANAWAY\10-Jun-2022\1\\#
  Opt=(Z-matrix, MaxStep=10) B3LYP/Def2TZVP geom=allcheckpoint guess=re
 ad Field=read NoSymm freq=noraman pop=none\\int_zmat_initalOpt\\0,1\H\
 C,1,R2\C,2,R3,1,A3\C,2,R4,1,A4,3,D4,0\H,3,R5,2,A5,1,D5,0\O,3,R6,2,A6,5
 ,D6,0\C,4,R7,2,A7,1,D7,0\H,4,R8,2,A8,7,D8,0\C,6,R9,3,A9,2,D9,0\H,7,R10
 ,4,A10,2,D10,0\H,9,R11,6,A11,3,D11,0\H,9,R12,6,A12,11,D12,0\\R2=1.0799
 6014\R3=1.34100407\R4=1.4544948\R5=1.082493\R6=1.35393902\R7=1.3358852
 9\R8=1.08257564\R9=1.44493929\R10=1.08186649\R11=1.08883327\R12=1.1032
 1922\A3=119.71861\A4=121.43843606\A5=124.33912263\A6=123.43525695\A7=1
 19.20232655\A8=119.28176246\A9=115.42931465\A10=122.64493074\A11=105.3
 7529346\A12=107.38940314\D4=169.75023793\D5=2.62874069\D6=174.33869973
 \D7=174.92722737\D8=174.90960688\D9=22.27211458\D10=174.29641145\D11=-
 163.47889426\D12=-115.1336598\\Version=ES64L-G16RevA.03\HF=-269.423439
 3\RMSD=3.195e-09\RMSF=2.352e-04\Dipole=-0.4450085,0.1164486,-0.005653\
 PG=C01 [X(C5H6O1)]\\@


 THE FIRST AND LAST THING REQUIRED OF GENIUS IS THE LOVE OF TRUTH.

                          -- GOETHE
 Job cpu time:       0 days  0 hours 14 minutes 26.7 seconds.
 Elapsed time:       0 days  0 hours  1 minutes 30.5 seconds.
 File lengths (MBytes):  RWF=     24 Int=      0 D2E=      0 Chk=     32 Scr=      1
 Normal termination of Gaussian 16 at Fri Jun 10 22:39:35 2022.
 Link1:  Proceeding to internal job step number  2.
 --------------------------------------------------------------------
 #N Geom=AllCheck Guess=TCheck SCRF=Check GenChk RB3LYP/def2TZVP Freq
 --------------------------------------------------------------------
 1/8=10,10=4,29=7,30=1,38=1,40=1/1,3;
 2/12=2,15=1,40=1/2;
 3/5=44,7=101,11=2,14=-4,25=1,30=1,70=2,71=2,74=-5,116=1,140=1/1,2,3;
 4/5=101/1;
 5/5=2,38=6,98=1/2;
 8/6=4,10=90,11=11/1;
 11/6=1,8=1,9=11,15=111,16=1,31=1/1,2,10;
 10/6=1,31=1/2;
 7/8=1,10=1,25=1,30=1/1,2,3,16;
 1/8=10,10=4,30=1/3;
 99//99;
 Structure from the checkpoint file:  "checkpoint.chk"
 ------------------
 int_zmat_initalOpt
 ------------------
 Charge =  0 Multiplicity = 1
 Z-Matrix found in chk file.
 H
 C,1,R2
 C,2,R3,1,A3
 C,2,R4,1,A4,3,D4,0
 H,3,R5,2,A5,1,D5,0
 O,3,R6,2,A6,5,D6,0
 C,4,R7,2,A7,1,D7,0
 H,4,R8,2,A8,7,D8,0
 C,6,R9,3,A9,2,D9,0
 H,7,R10,4,A10,2,D10,0
 H,9,R11,6,A11,3,D11,0
 H,9,R12,6,A12,11,D12,0
      Variables:
 R2=1.07996014
 R3=1.34100407
 R4=1.4544948
 R5=1.082493
 R6=1.35393902
 R7=1.33588529
 R8=1.08257564
 R9=1.44493929
 R10=1.08186649
 R11=1.08883327
 R12=1.10321922
 A3=119.71861
 A4=121.43843606
 A5=124.33912263
 A6=123.43525695
 A7=119.20232655
 A8=119.28176246
 A9=115.42931465
 A10=122.64493074
 A11=105.37529346
 A12=107.38940314
 D4=169.75023793
 D5=2.62874069
 D6=174.33869973
 D7=174.92722737
 D8=174.90960688
 D9=22.27211458
 D10=174.29641145
 D11=-163.47889426
 D12=-115.1336598
 Recover connectivity data from disk.

 GradGradGradGradGradGradGradGradGradGradGradGradGradGradGradGradGradGrad
 Berny optimization.
 Initialization pass.
                       ----------------------------
                       !    Initial Parameters    !
                       ! (Angstroms and Degrees)  !
 ----------------------                            ----------------------
 !      Name          Value   Derivative information (Atomic Units)     !
 ------------------------------------------------------------------------
 !       R2          1.08     calculate D2E/DX2 analytically            !
 !       R3          1.341    calculate D2E/DX2 analytically            !
 !       R4          1.4545   calculate D2E/DX2 analytically            !
 !       R5          1.0825   calculate D2E/DX2 analytically            !
 !       R6          1.3539   calculate D2E/DX2 analytically            !
 !       R7          1.3359   calculate D2E/DX2 analytically            !
 !       R8          1.0826   calculate D2E/DX2 analytically            !
 !       R9          1.4449   calculate D2E/DX2 analytically            !
 !       R10         1.0819   calculate D2E/DX2 analytically            !
 !       R11         1.0888   calculate D2E/DX2 analytically            !
 !       R12         1.1032   calculate D2E/DX2 analytically            !
 !       A3        119.7186   calculate D2E/DX2 analytically            !
 !       A4        121.4384   calculate D2E/DX2 analytically            !
 !       A5        124.3391   calculate D2E/DX2 analytically            !
 !       A6        123.4353   calculate D2E/DX2 analytically            !
 !       A7        119.2023   calculate D2E/DX2 analytically            !
 !       A8        119.2818   calculate D2E/DX2 analytically            !
 !       A9        115.4293   calculate D2E/DX2 analytically            !
 !       A10       122.6449   calculate D2E/DX2 analytically            !
 !       A11       105.3753   calculate D2E/DX2 analytically            !
 !       A12       107.3894   calculate D2E/DX2 analytically            !
 !       D4        169.7502   calculate D2E/DX2 analytically            !
 !       D5          2.6287   calculate D2E/DX2 analytically            !
 !       D6        174.3387   calculate D2E/DX2 analytically            !
 !       D7        174.9272   calculate D2E/DX2 analytically            !
 !       D8        174.9096   calculate D2E/DX2 analytically            !
 !       D9         22.2721   calculate D2E/DX2 analytically            !
 !       D10       174.2964   calculate D2E/DX2 analytically            !
 !       D11      -163.4789   calculate D2E/DX2 analytically            !
 !       D12      -115.1337   calculate D2E/DX2 analytically            !
 ------------------------------------------------------------------------
 Trust Radius=1.00D-01 FncErr=1.00D-07 GrdErr=1.00D-07 EigMax=2.50D+02 EigMin=1.00D-04
 Number of steps in this run=      2 maximum allowed number of steps=      2.
 GradGradGradGradGradGradGradGradGradGradGradGradGradGradGradGradGradGrad

                          Input orientation:                          
 ---------------------------------------------------------------------
 Center     Atomic      Atomic             Coordinates (Angstroms)
 Number     Number       Type             X           Y           Z
 ---------------------------------------------------------------------
      1          1           0        0.000000    0.000000    0.000000
      2          6           0        0.000000    0.000000    1.079960
      3          6           0        1.164623    0.000000    1.744751
      4          6           0       -1.221172    0.220819    1.838599
      5          1           0        2.137572    0.040995    1.272014
      6          8           0        1.253172    0.059774    3.094468
      7          6           0       -1.190572    0.110506    3.169570
      8          1           0       -2.113119    0.551422    1.321779
      9          6           0        0.076191   -0.371523    3.813179
     10          1           0       -2.040511    0.349802    3.794691
     11          1           0        0.198114    0.013540    4.824327
     12          1           0        0.103418   -1.473438    3.859384
 ---------------------------------------------------------------------
                    Distance matrix (angstroms):
                    1          2          3          4          5
     1  H    0.000000
     2  C    1.079960   0.000000
     3  C    2.097737   1.341004   0.000000
     4  C    2.218213   1.454495   2.397829   0.000000
     5  H    2.487753   2.146574   1.082493   3.410941   0.000000
     6  O    3.339123   2.373237   1.353939   2.779483   2.025797
     7  C    3.387602   2.407518   2.754862   1.335885   3.831722
     8  H    2.552731   2.197229   3.350606   1.082576   4.281517
     9  C    3.831993   2.759406   2.366667   2.435773   3.298027
    10  H    4.322699   3.414061   3.820667   2.124676   4.890362
    11  H    4.828412   3.749629   3.227710   3.312388   4.047366
    12  H    4.132380   3.147525   2.787266   2.951037   3.622951
                    6          7          8          9         10
     6  O    0.000000
     7  C    2.445425   0.000000
     8  H    3.836152   2.111831   0.000000
     9  C    1.444939   1.500424   3.442671   0.000000
    10  H    3.379760   1.081866   2.482180   2.236309   0.000000
    11  H    2.026745   2.162423   4.230716   1.088833   2.486899
    12  H    2.063437   2.158503   3.930971   1.103219   2.815106
                   11         12
    11  H    0.000000
    12  H    1.775158   0.000000
 Symmetry turned off by external request.
 Stoichiometry    C5H6O
 Framework group  C1[X(C5H6O)]
 Deg. of freedom    30
 Full point group                 C1      NOp   1
 Rotational constants (GHZ):           5.5842512           5.3705736           2.8555674
 Standard basis: def2TZVP (5D, 7F)
 The following finite field(s) will be applied:
 An electric field of              0.0026 -0.0042 -0.0002
   222 basis functions,   354 primitive gaussians,   252 cartesian basis functions
    22 alpha electrons       22 beta electrons
       nuclear repulsion energy       223.5828649619 Hartrees.
 NAtoms=   12 NActive=   12 NUniq=   12 SFac= 1.00D+00 NAtFMM=   60 NAOKFM=F Big=F
 Integral buffers will be    131072 words long.
 Raffenetti 2 integral format.
 Two-electron integral symmetry is turned off.
 One-electron integrals computed using PRISM.
   1 Symmetry operations used in ECPInt.
 ECPInt:  NShTT=    4095 NPrTT=   12396 LenC2=    4075 LenP2D=   10419.
 LDataN:  DoStor=T MaxTD1= 6 Len=  172
 NBasis=   222 RedAO= T EigKep=  9.71D-05  NBF=   222
 NBsUse=   222 1.00D-06 EigRej= -1.00D+00 NBFU=   222
 The nuclear repulsion energy is now       223.5573634141 hartrees.
 Initial guess from the checkpoint file:  "checkpoint.chk"
 B after Tr=     0.000000    0.000000    0.000000
         Rot=    1.000000    0.000000    0.000000    0.000000 Ang=   0.00 deg.
 Keep R1 ints in memory in canonical form, NReq=319363885.
 Requested convergence on RMS density matrix=1.00D-08 within 128 cycles.
 Requested convergence on MAX density matrix=1.00D-06.
 Requested convergence on             energy=1.00D-06.
 No special actions if energy rises.
 SCF Done:  E(RB3LYP) =  -269.423439309     A.U. after    1 cycles
            NFock=  1  Conv=0.15D-08     -V/T= 2.0050
 DoSCS=F DFT=T ScalE2(SS,OS)=  1.000000  1.000000
 Range of M.O.s used for correlation:     1   222
 NBasis=   222 NAE=    22 NBE=    22 NFC=     0 NFV=     0
 NROrb=    222 NOA=    22 NOB=    22 NVA=   200 NVB=   200

 **** Warning!!: The largest alpha MO coefficient is  0.20337088D+02

   1 Symmetry operations used in ECPInt.
 ECPInt:  NShTT=    4095 NPrTT=   12396 LenC2=    4075 LenP2D=   10419.
 LDataN:  DoStor=T MaxTD1= 7 Len=  274
 Symmetrizing basis deriv contribution to polar:
 IMax=3 JMax=2 DiffMx= 0.00D+00
 G2DrvN: will do    13 centers at a time, making    1 passes.
 Calling FoFCou, ICntrl=  3107 FMM=F I1Cent=   0 AccDes= 0.00D+00.
 End of G2Drv F.D. properties file   721 does not exist.
 End of G2Drv F.D. properties file   722 does not exist.
 End of G2Drv F.D. properties file   788 does not exist.
          IDoAtm=111111111111
          Differentiating once with respect to electric field.
                with respect to dipole field.
          Differentiating once with respect to nuclear coordinates.
 Keep R1 ints in memory in canonical form, NReq=319334014.
          There are    39 degrees of freedom in the 1st order CPHF.  IDoFFX=6 NUNeed=     3.
     36 vectors produced by pass  0 Test12= 1.13D-14 2.56D-09 XBig12= 7.59D+01 5.97D+00.
 AX will form    36 AO Fock derivatives at one time.
     36 vectors produced by pass  1 Test12= 1.13D-14 2.56D-09 XBig12= 1.63D+01 7.57D-01.
     36 vectors produced by pass  2 Test12= 1.13D-14 2.56D-09 XBig12= 2.11D-01 7.61D-02.
     36 vectors produced by pass  3 Test12= 1.13D-14 2.56D-09 XBig12= 5.64D-04 3.85D-03.
     36 vectors produced by pass  4 Test12= 1.13D-14 2.56D-09 XBig12= 1.35D-06 1.96D-04.
     29 vectors produced by pass  5 Test12= 1.13D-14 2.56D-09 XBig12= 2.89D-09 6.41D-06.
      7 vectors produced by pass  6 Test12= 1.13D-14 2.56D-09 XBig12= 3.60D-12 2.15D-07.
      3 vectors produced by pass  7 Test12= 1.13D-14 2.56D-09 XBig12= 3.59D-15 7.49D-09.
 InvSVY:  IOpt=1 It=  1 EMax= 3.55D-15
 Solved reduced A of dimension   219 with    39 vectors.
 Isotropic polarizability for W=    0.000000       59.56 Bohr**3.
 End of Minotr F.D. properties file   721 does not exist.
 End of Minotr F.D. properties file   722 does not exist.
 End of Minotr F.D. properties file   788 does not exist.
   1 Symmetry operations used in ECPInt.
 ECPInt:  NShTT=    4095 NPrTT=   12396 LenC2=    4075 LenP2D=   10419.
 LDataN:  DoStor=T MaxTD1= 8 Len=  415
 Calling FoFJK, ICntrl=    100127 FMM=F ISym2X=0 I1Cent= 0 IOpClX= 0 NMat=1 NMatS=1 NMatT=0.
 Full mass-weighted force constant matrix:
 Low frequencies ---   -7.9791   -1.5750   -0.0009   -0.0008   -0.0006    9.0406
 Low frequencies ---  172.6630  335.1133  500.7195
 Diagonal vibrational polarizability:
        3.8315909       8.3966599       4.0768896
 Harmonic frequencies (cm**-1), IR intensities (KM/Mole), Raman scattering
 activities (A**4/AMU), depolarization ratios for plane and unpolarized
 incident light, reduced masses (AMU), force constants (mDyne/A),
 and normal coordinates:
                      1                      2                      3
                      A                      A                      A
 Frequencies --    172.6564               335.1076               500.7165
 Red. masses --      2.2077                 2.7437                 3.2086
 Frc consts  --      0.0388                 0.1815                 0.4740
 IR Inten    --      2.1798                11.5830                15.8137
  Atom  AN      X      Y      Z        X      Y      Z        X      Y      Z
     1   1    -0.02  -0.30   0.04     0.03   0.16   0.00     0.05   0.00   0.14
     2   6    -0.01  -0.15   0.04    -0.01  -0.08   0.00    -0.03   0.12   0.14
     3   6     0.00  -0.00   0.03    -0.00   0.21   0.01     0.03  -0.09   0.07
     4   6     0.02   0.04   0.02    -0.03  -0.17  -0.02    -0.20  -0.07  -0.05
     5   1     0.00   0.03   0.02    -0.02   0.68   0.01    -0.04  -0.38  -0.09
     6   8    -0.04   0.16   0.02     0.05  -0.16  -0.00     0.20   0.00   0.07
     7   6     0.02   0.09   0.03     0.03   0.18   0.01    -0.06   0.08  -0.05
     8   1     0.08   0.19   0.00    -0.03  -0.23  -0.06    -0.28  -0.46  -0.15
[...]
     Eigenvalues ---    0.30331   0.31977   0.34238   0.35375   0.35592
     Eigenvalues ---    0.35838   0.36218   0.37127   0.46523   0.51161
     Eigenvalues ---    0.58079   0.58897   2.27736   3.79039  21.75585
 Angle between quadratic step and forces=  65.37 degrees.
 Linear search not attempted -- first point.
 Variable       Old X    -DE/DX   Delta X   Delta X   Delta X     New X
                                 (Linear)    (Quad)   (Total)
    R2        2.04083  -0.00000   0.00000  -0.00003  -0.00003   2.04080
    R3        2.53413   0.00000   0.00000   0.00002   0.00002   2.53415
    R4        2.74860  -0.00001   0.00000  -0.00001  -0.00001   2.74858
    R5        2.04562   0.00001   0.00000   0.00005   0.00005   2.04566
    R6        2.55857  -0.00011   0.00000  -0.00037  -0.00037   2.55820
    R7        2.52446  -0.00001   0.00000  -0.00004  -0.00004   2.52442
    R8        2.04577   0.00000   0.00000   0.00001   0.00001   2.04578
    R9        2.73054   0.00008   0.00000   0.00037   0.00037   2.73091
   R10        2.04443  -0.00000   0.00000  -0.00000  -0.00000   2.04443
   R11        2.05760  -0.00000   0.00000   0.00001   0.00001   2.05760
   R12        2.08478  -0.00001   0.00000  -0.00007  -0.00007   2.08471
    A3        2.08948   0.00008   0.00000   0.00009   0.00009   2.08957
    A4        2.11950   0.00008   0.00000   0.00003   0.00003   2.11953
    A5        2.17013  -0.00002   0.00000  -0.00018  -0.00018   2.16994
    A6        2.15435  -0.00003   0.00000   0.00020   0.00020   2.15455
    A7        2.08047   0.00000   0.00000   0.00020   0.00020   2.08067
    A8        2.08186   0.00000   0.00000   0.00000   0.00000   2.08186
    A9        2.01462   0.00004   0.00000   0.00050   0.00050   2.01512
   A10        2.14056   0.00001   0.00000  -0.00002  -0.00002   2.14054
   A11        1.83915  -0.00001   0.00000  -0.00014  -0.00014   1.83900
   A12        1.87430   0.00001   0.00000  -0.00001  -0.00001   1.87429
    D4        2.96270   0.00002   0.00000   0.00008   0.00008   2.96278
    D5        0.04588  -0.00003   0.00000  -0.00045  -0.00045   0.04543
    D6        3.04278  -0.00002   0.00000   0.00042   0.00042   3.04320
    D7        3.05306   0.00000   0.00000   0.00029   0.00029   3.05334
    D8        3.05275   0.00004   0.00000   0.00085   0.00085   3.05360
    D9        0.38872  -0.00002   0.00000  -0.00095  -0.00095   0.38777
   D10        3.04205   0.00000   0.00000   0.00045   0.00045   3.04250
   D11       -2.85324   0.00002   0.00000   0.00189   0.00189  -2.85135
   D12       -2.00946   0.00001   0.00000   0.00011   0.00011  -2.00935
         Item               Value     Threshold  Converged?
 Maximum Force            0.000109     0.000450     YES
 RMS     Force            0.000036     0.000300     YES
 Maximum Displacement     0.001892     0.001800     NO 
 RMS     Displacement     0.000468     0.001200     YES
 Predicted change in Energy=-1.050143D-07
                       ----------------------------
                       ! Non-Optimized Parameters !
                       ! (Angstroms and Degrees)  !
 ----------------------                            ----------------------
 !      Name          Value   Derivative information (Atomic Units)     !
 ------------------------------------------------------------------------
 !       R2          1.0799   -DE/DX =    0.0                           !
 !       R3          1.341    -DE/DX =    0.0                           !
 !       R4          1.4545   -DE/DX =    0.0                           !
 !       R5          1.0825   -DE/DX =    0.0                           !
 !       R6          1.3537   -DE/DX =   -0.0001                        !
 !       R7          1.3359   -DE/DX =    0.0                           !
 !       R8          1.0826   -DE/DX =    0.0                           !
 !       R9          1.4451   -DE/DX =    0.0001                        !
 !       R10         1.0819   -DE/DX =    0.0                           !
 !       R11         1.0888   -DE/DX =    0.0                           !
 !       R12         1.1032   -DE/DX =    0.0                           !
 !       A3        119.7236   -DE/DX =    0.0001                        !
 !       A4        121.4402   -DE/DX =    0.0001                        !
 !       A5        124.3286   -DE/DX =    0.0                           !
 !       A6        123.4465   -DE/DX =    0.0                           !
 !       A7        119.2138   -DE/DX =    0.0                           !
 !       A8        119.2819   -DE/DX =    0.0                           !
 !       A9        115.458    -DE/DX =    0.0                           !
 !       A10       122.6438   -DE/DX =    0.0                           !
 !       A11       105.3671   -DE/DX =    0.0                           !
 !       A12       107.389    -DE/DX =    0.0                           !
 !       D4        169.7548   -DE/DX =    0.0                           !
 !       D5          2.6027   -DE/DX =    0.0                           !
 !       D6        174.3627   -DE/DX =    0.0                           !
 !       D7        174.9437   -DE/DX =    0.0                           !
 !       D8        174.9583   -DE/DX =    0.0                           !
 !       D9         22.2175   -DE/DX =    0.0                           !
 !       D10       174.3224   -DE/DX =    0.0                           !
 !       D11      -163.3705   -DE/DX =    0.0                           !
 !       D12      -115.1274   -DE/DX =    0.0                           !
 ------------------------------------------------------------------------
 GradGradGradGradGradGradGradGradGradGradGradGradGradGradGradGradGradGrad


 ----------------------------------------------------------------------

 Electric dipole moment (input orientation):
 (Debye = 10**-18 statcoulomb cm , SI units = C m)
                  (au)            (Debye)         (10**-30 SI)
   Tot        0.460025D+00      0.116927D+01      0.390026D+01
   x         -0.445007D+00     -0.113110D+01     -0.377293D+01
   y          0.116448D+00      0.295982D+00      0.987291D+00
   z         -0.565268D-02     -0.143677D-01     -0.479254D-01

 Dipole polarizability, Alpha (input orientation).
 (esu units = cm**3 , SI units = C**2 m**2 J**-1)
 Alpha(0;0):
               (au)            (10**-24 esu)      (10**-40 SI)
   iso        0.595631D+02      0.882634D+01      0.982063D+01
   aniso      0.278206D+02      0.412258D+01      0.458699D+01
   xx         0.662887D+02      0.982297D+01      0.109295D+02
   yx        -0.310031D+01     -0.459419D+00     -0.511172D+00
   yy         0.420490D+02      0.623102D+01      0.693295D+01
   zx        -0.228255D+01     -0.338239D+00     -0.376341D+00
   zy        -0.299822D+01     -0.444291D+00     -0.494340D+00
   zz         0.703515D+02      0.104250D+02      0.115994D+02

 ----------------------------------------------------------------------

 Dipole orientation:
     1          0.00000000          0.00000000          0.00000000
     6          1.97420194         -0.51660471         -0.02507721
     6          3.30519374         -0.28899065         -2.16948147
     6          3.34311687         -1.06140126          2.29527904
     1          2.55690864          0.46541044         -3.91747757
     8          5.80932401         -0.78752110         -2.33410104
     6          5.72753484         -1.87867972          2.15566660
     1          2.46460333         -0.64783137          4.09593303
     6          6.80412934         -2.44489004         -0.40554286
     1          6.89792397         -2.15303367          3.80933491
     1          8.84505558         -2.19100027         -0.46770544
     1          6.37505752         -4.40146494         -0.98349511

 Electric dipole moment (dipole orientation):
 (Debye = 10**-18 statcoulomb cm , SI units = C m)
                  (au)            (Debye)         (10**-30 SI)
   Tot        0.460025D+00      0.116927D+01      0.390026D+01
   x          0.000000D+00      0.000000D+00      0.000000D+00
   y          0.000000D+00      0.000000D+00      0.000000D+00
   z          0.460025D+00      0.116927D+01      0.390026D+01

 Dipole polarizability, Alpha (dipole orientation).
 (esu units = cm**3 , SI units = C**2 m**2 J**-1)
 Alpha(0;0):
               (au)            (10**-24 esu)      (10**-40 SI)
   iso        0.595631D+02      0.882634D+01      0.982063D+01
   aniso      0.278206D+02      0.412258D+01      0.458699D+01
   xx         0.668496D+02      0.990609D+01      0.110220D+02
   yx        -0.999850D+01     -0.148162D+01     -0.164853D+01
   yy         0.456208D+02      0.676031D+01      0.752186D+01
   zx         0.545146D+00      0.807823D-01      0.898824D-01
   zy        -0.344064D+01     -0.509851D+00     -0.567285D+00
   zz         0.662188D+02      0.981262D+01      0.109180D+02

 ----------------------------------------------------------------------
 1\1\GINC-BHC0034\Freq\RB3LYP\def2TZVP\C5H6O1\DHANAWAY\10-Jun-2022\1\\#
 N Geom=AllCheck Guess=TCheck SCRF=Check GenChk RB3LYP/def2TZVP Freq\\i
 nt_zmat_initalOpt\\0,1\H\C,1,R2\C,2,R3,1,A3\C,2,R4,1,A4,3,D4,0\H,3,R5,
 2,A5,1,D5,0\O,3,R6,2,A6,5,D6,0\C,4,R7,2,A7,1,D7,0\H,4,R8,2,A8,7,D8,0\C
 ,6,R9,3,A9,2,D9,0\H,7,R10,4,A10,2,D10,0\H,9,R11,6,A11,3,D11,0\H,9,R12,
 6,A12,11,D12,0\\R2=1.07996014\R3=1.34100407\R4=1.4544948\R5=1.082493\R
 6=1.35393902\R7=1.33588529\R8=1.08257564\R9=1.44493929\R10=1.08186649\
 R11=1.08883327\R12=1.10321922\A3=119.71861\A4=121.43843606\A5=124.3391
 2263\A6=123.43525695\A7=119.20232655\A8=119.28176246\A9=115.42931465\A
 10=122.64493074\A11=105.37529346\A12=107.38940314\D4=169.75023793\D5=2
 .62874069\D6=174.33869973\D7=174.92722737\D8=174.90960688\D9=22.272114
 58\D10=174.29641145\D11=-163.47889426\D12=-115.1336598\\Version=ES64L-
 G16RevA.03\HF=-269.4234393\RMSD=1.489e-09\RMSF=2.352e-04\ZeroPoint=0.0
 98265\Thermal=0.1032182\Dipole=-0.445007,0.1164484,-0.0056527\DipoleDe
 riv=0.0642848,0.0139571,0.027955,0.0344528,0.1545024,0.0197241,0.02512
 25,-0.0069943,-0.0762357,-0.4080408,-0.0587438,-0.0326708,-0.0989138,-
 0.2351441,-0.0375202,-0.142114,0.032769,-0.0337853,0.3873132,0.0476734
 ,0.1813346,0.1313774,-0.0824244,0.054196,0.5054033,0.013782,0.7834774,
 0.2568847,-0.0566343,-0.1675252,-0.1025719,-0.0821344,-0.0196221,-0.10
 27801,-0.0514067,0.1050571,-0.055201,-0.0051749,0.0745458,0.0205549,0.
 1490609,-0.0206226,0.06252,0.0027603,0.0062978,-0.4754516,-0.1143111,0
 .1236827,-0.1357994,-0.2877172,0.0549281,-0.4017461,0.1234394,-1.05797
 22,-0.0911078,-0.0682787,0.0023553,-0.0553031,-0.2357439,0.0063305,0.0
 965351,0.0381885,-0.1960598,-0.0224515,0.0466981,-0.0443488,0.0646978,
 0.1247821,0.0267596,-0.0424411,0.0226663,0.0398217,0.272566,0.121936,-
 0.1457034,0.0577562,0.5802933,-0.1672031,-0.0413444,-0.1282142,0.51605
 4,-0.0018238,0.0397815,0.0485529,0.0695647,0.1360289,-0.0218069,0.0508
 03,-0.0024492,0.0141482,0.0445762,-0.0051672,-0.0179433,-0.0175465,0.0
 418394,-0.0583085,-0.0094603,-0.019672,-0.1169072,0.0284515,0.0382638,
 -0.0502347,0.0317309,-0.2633429,0.1631453,-0.0004979,-0.0248691,0.0161
 041\Polar=66.2886947,-3.1003098,42.0490301,-2.2825489,-2.9982223,70.35
 15417\PG=C01 [X(C5H6O1)]\NImag=0\\0.05447635,-0.00360660,0.02231794,0.
 00143074,0.00103549,0.36336601,-0.05599264,0.00360983,-0.00208418,0.67
 932333,0.00445907,-0.02722864,-0.00085824,-0.03802740,0.11384168,0.001
 19821,0.00284256,-0.34371351,0.09237588,0.01489590,0.74321725,0.005251
 15,-0.00014566,0.00345985,-0.39385538,0.00257519,-0.15516150,0.8531119
 2,-0.00031291,-0.00239522,-0.00011469,-0.01060272,-0.05488874,0.001670
 42,0.02240076,0.13294081,-0.02934368,-0.00002969,-0.01334359,-0.134084
 46,0.00825017,-0.19093144,0.03811435,0.00086137,0.60396447,0.00547760,
 -0.00063617,-0.00263504,-0.19792918,0.02827306,0.07121243,-0.05480409,
 0.00875231,-0.00632922,0.59827720,-0.00166506,-0.00046554,0.00068762,0
 .03535460,-0.06517189,-0.01406906,0.00257748,0.00900162,0.00147317,-0.
 13451797,0.17667511,0.02688284,-0.00322527,-0.00953112,0.04251989,-0.0
 0190076,-0.14487709,0.01096820,-0.00777773,0.02962919,0.06043780,-0.07
 818290,0.78850405,0.00064716,0.00045297,-0.00040575,-0.01737642,0.0000
 2699,0.01416582,-0.29095470,-0.01243848,0.10573010,-0.00198969,-0.0010
 0206,-0.00466448,0.30165645,-0.00037926,-0.00493092,-0.00014409,0.0050
 3530,0.00739575,0.00267681,-0.01695622,-0.03802198,-0.00064219,-0.0015
 4496,0.00945502,0.00008378,0.01180431,0.02277063,0.00047284,-0.0000753
 7,0.00059609,-0.01409197,0.00078557,0.01204397,0.10163722,0.00119822,-
 0.09799849,-0.00249746,-0.00007131,-0.00178749,-0.11601263,-0.00492424
 ,0.11957029,-0.00468911,0.00007935,-0.00229067,0.00808209,-0.00251322,
 -0.03715307,-0.11070174,-0.01525407,-0.00780888,0.00356805,0.00114457,
 0.00271197,0.00629556,0.00127858,0.03282758,0.28843089,0.00058774,0.01
 127733,0.00033328,0.00646708,0.01048374,-0.00673897,-0.01364195,-0.046
 05304,-0.00501384,-0.00535496,-0.00600070,0.00872765,-0.00001177,0.001
 52866,0.00549547,0.07804704,0.10307617,-0.00346106,0.00075243,0.001627
 62,-0.03664361,-0.01201743,-0.06019845,-0.03217774,-0.00650063,-0.2777
 0200,0.02144205,-0.00357263,-0.01202866,0.00197352,0.00544680,-0.02874
 886,-0.02979984,-0.03421361,0.48320020,-0.00505085,0.00094961,0.002564
 60,0.00264445,-0.00208116,0.03353999,-0.00345422,0.00480508,0.00360287
 ,-0.10972344,0.01729177,-0.00640417,0.00059455,-0.00099201,-0.00003407
 ,-0.03732615,0.00189912,-0.00352201,0.54371710,0.00171139,0.00125289,-
 0.00086194,0.00261420,0.00990271,-0.00672359,-0.00051270,0.00103347,-0
 .00406145,0.01515850,-0.06566763,0.04071114,-0.00007377,-0.00061848,0.
 00003573,-0.00553533,0.00655414,0.00031210,-0.13306896,0.18285149,0.00
 182115,-0.00009523,0.00035015,0.03796037,-0.00300144,-0.02910616,-0.01
 101240,0.00327529,-0.01285702,-0.01960443,0.04240162,-0.49886995,0.000
 17454,-0.00238696,-0.00033158,0.01757671,-0.00844362,0.01581387,-0.083
 16445,-0.03455934,0.81571557,0.00086519,-0.00058540,0.00022454,-0.0173
 1716,0.00716466,-0.01261735,-0.00184511,0.00116017,0.00434813,-0.24625
 102,0.07594197,-0.11051545,-0.00077167,-0.00055900,-0.00072437,0.00087
 251,-0.00004154,-0.00044658,0.00406271,0.00044304,0.00078936,0.2585111
 9,-0.00031278,-0.00045214,-0.00001014,0.00109519,0.00139974,0.00417219
 ,0.00159234,0.00112495,-0.00182223,0.07833734,-0.06607130,0.04087270,0
 .00021365,0.00020132,0.00024640,0.00016369,-0.00055476,0.00065884,0.00
 319133,0.00451598,0.00090262,-0.08379169,0.05576718,-0.00089638,-0.000
 06387,0.00059404,0.01504669,-0.00557717,0.01151869,0.00304726,-0.00028
 681,-0.00310611,-0.10824053,0.04042143,-0.12018261,0.00079058,0.000650
 21,0.00054070,-0.00026879,-0.00034044,0.00135694,-0.02839994,0.0114088
 0,-0.01145315,0.11765470,-0.04651625,0.12532536,-0.00142516,0.00007952
 ,0.00001908,-0.01554172,-0.00540328,-0.01070009,0.00472966,0.00481230,
 0.04120039,0.00799168,0.00142397,-0.02155350,0.00179336,0.00342907,-0.
 00336132,-0.13264963,-0.04207386,0.02512815,-0.16292904,0.04576221,-0.
 03993683,0.00182605,0.00264114,0.00251408,0.40467230,-0.00020276,-0.00
 000490,-0.00034005,-0.00548218,-0.00566362,-0.00300246,0.00338976,-0.0
 0106144,0.00080735,0.00986057,0.00093667,0.00186362,0.00092051,0.00378
 861,-0.00352636,-0.04029724,-0.07783490,0.02391466,0.03428454,-0.08927
 986,0.02106140,0.00245299,0.01083746,0.00050241,-0.01325713,0.51538668
 ,0.00063986,-0.00083855,0.00065747,0.00229478,0.00019649,0.00648035,0.
 03724556,0.00691747,-0.04302088,-0.03748605,0.01752333,-0.01887100,-0.
 00181750,-0.00075942,-0.00325494,0.01094749,0.01598670,-0.09796520,-0.
 03630555,0.01607713,-0.11960901,0.00151064,0.00204856,-0.00522561,0.05
 069657,0.04862428,0.59621371,0.00006639,-0.00010070,-0.00021000,0.0035
 8374,0.00350431,0.00021008,-0.00008640,-0.00059452,-0.00379942,0.00475
 617,0.00091297,-0.00188568,0.00005887,-0.00070966,0.00020042,-0.005131
 92,0.00214071,0.00108446,-0.23074519,0.05614472,0.12906762,0.00009398,
 -0.00250574,0.00018003,-0.01146209,0.00370203,0.01406379,0.23933289,-0
 .00026485,0.00072400,0.00026014,0.00376783,0.00951479,0.00177750,-0.00
 030459,-0.00096876,-0.00153226,-0.00296451,0.00615423,0.00349755,0.000
 20771,-0.00175234,-0.00002706,-0.00036455,0.00180274,0.00122687,0.0602
 1896,-0.04729354,-0.03786807,-0.00220689,-0.00633007,-0.00065570,0.004
 73867,0.00125605,-0.00599681,-0.06234140,0.03815629,0.00138897,-0.0000
 5977,-0.00052713,-0.00177713,0.00141254,-0.00440304,-0.00079339,-0.000
 19193,-0.00226866,0.02728086,-0.00736610,-0.01365148,0.00012242,-0.000
 16649,0.00027624,-0.00448573,0.00069051,0.00178946,0.12643352,-0.03474
 152,-0.14938083,-0.00032585,-0.00037731,0.00121292,-0.00996189,0.00286
 403,0.00952408,-0.13833163,0.03761996,0.15695550,0.00017126,-0.0000879
 4,-0.00001798,0.00026500,-0.00035073,0.00077242,-0.00561693,-0.0002980
 1,-0.00050030,-0.00537043,0.00159927,-0.00129845,-0.00008490,0.0002542
 2,0.00142594,-0.00307321,0.00526743,0.03767550,-0.00056419,-0.01020464
 ,-0.02660547,0.00037191,0.00130587,-0.00114326,-0.05263253,-0.01382537
 ,-0.03975451,0.00087903,0.00008381,0.00051745,0.06340664,0.00002609,-0
 .00004115,-0.00000524,-0.00052137,0.00020146,0.00032708,-0.00238525,0.
 00044715,0.00207021,0.00229674,-0.00012871,-0.00031265,-0.00001654,0.0
 0035862,0.00063091,-0.00076649,0.00421082,0.01565064,0.00273501,0.0051
 9652,0.01416474,-0.00008570,-0.00051045,0.00045736,-0.01144030,-0.0880
 3405,-0.09795209,-0.00071744,0.00042395,-0.00067439,0.01477405,0.09026
 179,-0.00006155,-0.00001637,-0.00002833,-0.00017226,-0.00031388,0.0002
 0419,0.00356426,-0.00055867,0.00188992,-0.00256879,0.00005665,0.000930
 35,-0.00000838,-0.00027009,-0.00086920,0.00557293,-0.00006631,-0.02111
 022,-0.00300862,-0.00383607,-0.01138792,0.00026798,0.00056046,-0.00043
 490,-0.03080077,-0.08959939,-0.27131479,-0.00006641,0.00057573,0.00087
 946,0.02812241,0.09504495,0.29917772,0.00020266,-0.00000880,-0.0000551
 9,0.00411389,0.00237251,0.00215719,-0.00177417,-0.00242990,-0.01112987
 ,-0.00400283,0.00093848,0.00280102,0.00013142,-0.00066038,0.00015781,-
 0.01367733,-0.03328503,0.01874714,-0.00122573,0.02756132,-0.00706617,-
 0.00041857,-0.00193033,-0.00028444,-0.04437289,0.01845428,-0.00203510,
 -0.00134548,-0.00057017,-0.00006761,0.00224836,-0.00389879,-0.00084081
 ,0.06012068,-0.00004005,-0.00005365,0.00001787,-0.00331037,0.00021301,
 0.00217161,0.00141084,-0.00115881,-0.00036061,0.00234005,0.00128311,-0
 .00435714,-0.00008351,-0.00017489,0.00023205,-0.01598233,-0.00849019,0
 .00834195,0.01076670,-0.00844769,0.00454899,0.00010738,0.00007208,0.00
 000004,0.00928769,-0.27032669,-0.00182710,0.00056473,-0.00168735,0.000
 99046,0.00148205,-0.01238595,-0.00157701,-0.00654318,0.30115703,-0.000
 07197,-0.00022635,-0.00004770,-0.00134399,-0.00187174,-0.00023478,0.00
 110833,0.00150769,0.00574461,-0.00101163,0.00069817,0.00073581,-0.0000
 4826,0.00043588,-0.00003672,0.01217030,0.02358318,-0.00603470,-0.00530
 217,0.01623901,0.00111602,-0.00016577,-0.00073584,-0.00014626,-0.00324
 386,-0.00316950,-0.05361419,-0.00051326,0.00112214,-0.00040653,0.00080
 626,-0.02940153,0.00206372,-0.00238397,-0.00818111,0.05086073\\0.00003
 104,0.00041893,-0.00000481,-0.00001716,-0.00112978,0.00004553,-0.00001
 318,0.00069008,-0.00013925,-0.00004378,-0.00004507,-0.00002959,-0.0000
 0456,0.00000748,0.00001258,-0.00003765,0.00000162,0.00015557,0.0000147
 0,0.00001335,0.00000951,0.00000883,0.00002194,0.00000289,0.00006621,0.
 00003993,-0.00004877,-0.00000516,0.00000298,-0.00000307,-0.00000116,-0
 .00000756,0.00000579,0.00000187,-0.00001391,-0.00000638\\\@


 Ideas are like rabbits. You get a couple and learn
 how to handle them, and pretty soon you have a dozen.
                                    -- John Steinbeck
 Job cpu time:       0 days  0 hours 31 minutes  6.4 seconds.
 Elapsed time:       0 days  0 hours  2 minutes 36.7 seconds.
 File lengths (MBytes):  RWF=     54 Int=      0 D2E=      0 Chk=     32 Scr=      1
 Normal termination of Gaussian 16 at Fri Jun 10 22:42:12 2022.
