 Entering Gaussian System, Link 0=g16
 Input=int_zmat_field_N50.gjf
 Output=int_zmat_field_N50.out
 Initial command:
 /software/gaussian/g16-a03/l1.exe "/local_scratch/11174541/Gau-2850.inp" -scrdir="/local_scratch/11174541/"
 Entering Link 1 = /software/gaussian/g16-a03/l1.exe PID=      2851.
  
 Copyright (c) 1988,1990,1992,1993,1995,1998,2003,2009,2016,
            Gaussian, Inc.  All Rights Reserved.
  
 This is part of the Gaussian(R) 16 program.  It is based on
 the Gaussian(R) 09 system (copyright 2009, Gaussian, Inc.),
 the Gaussian(R) 03 system (copyright 2003, Gaussian, Inc.),
 the Gaussian(R) 98 system (copyright 1998, Gaussian, Inc.),
 the Gaussian(R) 94 system (copyright 1995, Gaussian, Inc.),
 the Gaussian 92(TM) system (copyright 1992, Gaussian, Inc.),
 the Gaussian 90(TM) system (copyright 1990, Gaussian, Inc.),
 the Gaussian 88(TM) system (copyright 1988, Gaussian, Inc.),
 the Gaussian 86(TM) system (copyright 1986, Carnegie Mellon
 University), and the Gaussian 82(TM) system (copyright 1983,
 Carnegie Mellon University). Gaussian is a federally registered
 trademark of Gaussian, Inc.
  
 This software contains proprietary and confidential information,
 including trade secrets, belonging to Gaussian, Inc.
  
 This software is provided under written license and may be
 used, copied, transmitted, or stored only in accord with that
 written license.
  
 The following legend is applicable only to US Government
 contracts under FAR:
  
                    RESTRICTED RIGHTS LEGEND
  
 Use, reproduction and disclosure by the US Government is
 subject to restrictions as set forth in subparagraphs (a)
 and (c) of the Commercial Computer Software - Restricted
 Rights clause in FAR 52.227-19.
  
 Gaussian, Inc.
 340 Quinnipiac St., Bldg. 40, Wallingford CT 06492
  
  
 ---------------------------------------------------------------
 Warning -- This program may not be used in any manner that
 competes with the business of Gaussian, Inc. or will provide
 assistance to any competitor of Gaussian, Inc.  The licensee
 of this program is prohibited from giving any competitor of
 Gaussian, Inc. access to this program.  By using this program,
 the user acknowledges that Gaussian, Inc. is engaged in the
 business of creating and licensing software in the field of
 computational chemistry and represents and warrants to the
 licensee that it is not a competitor of Gaussian, Inc. and that
 it will not use this program in any manner prohibited above.
 ---------------------------------------------------------------
  

 Cite this work as:
 Gaussian 16, Revision A.03,
 M. J. Frisch, G. W. Trucks, H. B. Schlegel, G. E. Scuseria, 
 M. A. Robb, J. R. Cheeseman, G. Scalmani, V. Barone, 
 G. A. Petersson, H. Nakatsuji, X. Li, M. Caricato, A. V. Marenich, 
 J. Bloino, B. G. Janesko, R. Gomperts, B. Mennucci, H. P. Hratchian, 
 J. V. Ortiz, A. F. Izmaylov, J. L. Sonnenberg, D. Williams-Young, 
 F. Ding, F. Lipparini, F. Egidi, J. Goings, B. Peng, A. Petrone, 
 T. Henderson, D. Ranasinghe, V. G. Zakrzewski, J. Gao, N. Rega, 
 G. Zheng, W. Liang, M. Hada, M. Ehara, K. Toyota, R. Fukuda, 
 J. Hasegawa, M. Ishida, T. Nakajima, Y. Honda, O. Kitao, H. Nakai, 
 T. Vreven, K. Throssell, J. A. Montgomery, Jr., J. E. Peralta, 
 F. Ogliaro, M. J. Bearpark, J. J. Heyd, E. N. Brothers, K. N. Kudin, 
 V. N. Staroverov, T. A. Keith, R. Kobayashi, J. Normand, 
 K. Raghavachari, A. P. Rendell, J. C. Burant, S. S. Iyengar, 
 J. Tomasi, M. Cossi, J. M. Millam, M. Klene, C. Adamo, R. Cammi, 
 J. W. Ochterski, R. L. Martin, K. Morokuma, O. Farkas, 
 J. B. Foresman, and D. J. Fox, Gaussian, Inc., Wallingford CT, 2016.
 
 ******************************************
 Gaussian 16:  ES64L-G16RevA.03 25-Dec-2016
                10-Jun-2022 
 ******************************************
 %nprocshared=12
 Will use up to   12 processors via shared memory.
 %chk=checkpoint.chk
 %mem=12GB
 ----------------------------------------------------------------------
 # Opt=(Z-matrix, MaxStep=10) B3LYP/Def2TZVP geom=allcheckpoint guess=r
 ead Field=read NoSymm freq=noraman pop=none
 ----------------------------------------------------------------------
 1/8=10,10=7,18=40,26=3,29=7,38=1/1,3;
 2/12=2,15=1,29=3,40=1/2;
 3/5=44,7=101,11=2,14=-6,25=1,30=1,71=1,74=-5,116=-2/1,2,3;
 4/5=1/1;
 5/5=2,38=6/2;
 7/29=1,30=1/1,2,3,16;
 1/8=10,10=7,18=40,26=3/3(2);
 2/15=1,29=3/2;
 99//99;
 2/15=1,29=3/2;
 3/5=44,7=101,11=2,14=-2,25=1,30=1,71=1,74=-5/1,2,3;
 4/5=5,16=3,69=1/1;
 5/5=2,38=5/2;
 7/30=1/1,2,3,16;
 1/8=10,18=40,26=3/3(-5);
 2/15=1,29=3/2;
 99/9=1/99;
 Structure from the checkpoint file:  "checkpoint.chk"
 ------------------
 int_zmat_initalOpt
 ------------------
 Charge =  0 Multiplicity = 1
 Z-Matrix found in chk file.
 C
 C,1,R2
 C,1,R3,2,A3
 C,1,R4,2,A4,3,D4,0
 H,1,R5,2,A5,3,D5,0
 C,2,R6,1,A6,3,D6,0
 C,2,R7,1,A7,6,D7,0
 C,3,R8,1,A8,2,D8,0
 H,4,R9,1,A9,2,D9,0
 H,4,R10,1,A10,9,D10,0
 H,2,R11,1,A11,6,D11,0
 H,3,R12,1,A12,8,D12,0
 C,7,R13,2,A13,1,D13,0
 H,7,R14,2,A14,13,D14,0
 H,6,R15,2,A15,1,D15,0
 H,6,R16,2,A16,15,D16,0
 H,8,R17,3,A17,1,D17,0
 H,8,R18,3,A18,17,D18,0
 H,13,R19,7,A19,2,D19,0
 H,13,R20,7,A20,19,D20,0
      Variables:
 R2=1.58641717
 R3=1.49749544
 R4=1.55026001
 R5=1.09373083
 R6=1.54474598
 R7=1.49096141
 R8=1.32732216
 R9=1.0908966
 R10=1.08826181
 R11=1.09567365
 R12=1.08717702
 R13=1.32782988
 R14=1.08822487
 R15=1.09006132
 R16=1.09068974
 R17=1.08287141
 R18=1.08228659
 R19=1.08246244
 R20=1.08341399
 A3=114.95146978
 A4=87.30347566
 A5=112.80557062
 A6=88.29073932
 A7=120.46122632
 A8=127.56765886
 A9=111.09298736
 A10=117.63909522
 A11=106.75232445
 A12=114.42092615
 A13=126.33076081
 A14=115.22900972
 A15=111.64713196
 A16=117.25305632
 A17=122.68037186
 A18=120.98091358
 A19=121.35913328
 A20=122.01364689
 D4=119.33688501
 D5=-124.70497526
 D6=-101.11344858
 D7=126.48132106
 D8=114.5917376
 D9=95.34688473
 D10=125.53559481
 D11=-109.65569211
 D12=179.00196901
 D13=-115.07222996
 D14=-179.40247985
 D15=94.18904475
 D16=126.45022917
 D17=-0.63553576
 D18=179.46761833
 D19=-179.64715072
 D20=180.50367348
 Recover connectivity data from disk.

 GradGradGradGradGradGradGradGradGradGradGradGradGradGradGradGradGradGrad
 Berny optimization.
 Initialization pass.
                       ----------------------------
                       !    Initial Parameters    !
                       ! (Angstroms and Degrees)  !
 ----------------------                            ----------------------
 !      Name          Value   Derivative information (Atomic Units)     !
 ------------------------------------------------------------------------
 !       R2          1.5864   estimate D2E/DX2                          !
 !       R3          1.4975   estimate D2E/DX2                          !
 !       R4          1.5503   estimate D2E/DX2                          !
 !       R5          1.0937   estimate D2E/DX2                          !
 !       R6          1.5447   estimate D2E/DX2                          !
 !       R7          1.491    estimate D2E/DX2                          !
 !       R8          1.3273   estimate D2E/DX2                          !
 !       R9          1.0909   estimate D2E/DX2                          !
 !       R10         1.0883   estimate D2E/DX2                          !
 !       R11         1.0957   estimate D2E/DX2                          !
 !       R12         1.0872   estimate D2E/DX2                          !
 !       R13         1.3278   estimate D2E/DX2                          !
 !       R14         1.0882   estimate D2E/DX2                          !
 !       R15         1.0901   estimate D2E/DX2                          !
 !       R16         1.0907   estimate D2E/DX2                          !
 !       R17         1.0829   estimate D2E/DX2                          !
 !       R18         1.0823   estimate D2E/DX2                          !
 !       R19         1.0825   estimate D2E/DX2                          !
 !       R20         1.0834   estimate D2E/DX2                          !
 !       A3        114.9515   estimate D2E/DX2                          !
 !       A4         87.3035   estimate D2E/DX2                          !
 !       A5        112.8056   estimate D2E/DX2                          !
 !       A6         88.2907   estimate D2E/DX2                          !
 !       A7        120.4612   estimate D2E/DX2                          !
 !       A8        127.5677   estimate D2E/DX2                          !
 !       A9        111.093    estimate D2E/DX2                          !
 !       A10       117.6391   estimate D2E/DX2                          !
 !       A11       106.7523   estimate D2E/DX2                          !
 !       A12       114.4209   estimate D2E/DX2                          !
 !       A13       126.3308   estimate D2E/DX2                          !
 !       A14       115.229    estimate D2E/DX2                          !
 !       A15       111.6471   estimate D2E/DX2                          !
 !       A16       117.2531   estimate D2E/DX2                          !
 !       A17       122.6804   estimate D2E/DX2                          !
 !       A18       120.9809   estimate D2E/DX2                          !
 !       A19       121.3591   estimate D2E/DX2                          !
 !       A20       122.0136   estimate D2E/DX2                          !
 !       D4        119.3369   estimate D2E/DX2                          !
 !       D5       -124.705    estimate D2E/DX2                          !
 !       D6       -101.1134   estimate D2E/DX2                          !
 !       D7        126.4813   estimate D2E/DX2                          !
 !       D8        114.5917   estimate D2E/DX2                          !
 !       D9         95.3469   estimate D2E/DX2                          !
 !       D10       125.5356   estimate D2E/DX2                          !
 !       D11      -109.6557   estimate D2E/DX2                          !
 !       D12       179.002    estimate D2E/DX2                          !
 !       D13      -115.0722   estimate D2E/DX2                          !
 !       D14      -179.4025   estimate D2E/DX2                          !
 !       D15        94.189    estimate D2E/DX2                          !
 !       D16       126.4502   estimate D2E/DX2                          !
 !       D17        -0.6355   estimate D2E/DX2                          !
 !       D18       179.4676   estimate D2E/DX2                          !
 !       D19      -179.6472   estimate D2E/DX2                          !
 !       D20       180.5037   estimate D2E/DX2                          !
 ------------------------------------------------------------------------
 Trust Radius=1.00D-01 FncErr=1.00D-07 GrdErr=1.00D-06 EigMax=2.50D+02 EigMin=1.00D-04
 Number of steps in this run=     64 maximum allowed number of steps=    108.
 GradGradGradGradGradGradGradGradGradGradGradGradGradGradGradGradGradGrad

 ---------------------------------------------------------------------------------------------------
                            Z-MATRIX (ANGSTROMS AND DEGREES)
   CD    Cent   Atom    N1       Length/X        N2       Alpha/Y        N3        Beta/Z          J
 ---------------------------------------------------------------------------------------------------
      1      1  C 
      2      2  C        1   1.586417(     1)
      3      3  C        1   1.497495(     2)      2  114.951(    20)
      4      4  C        1   1.550260(     3)      2   87.303(    21)      3  119.337(    38)      0
      5      5  H        1   1.093731(     4)      2  112.806(    22)      3 -124.705(    39)      0
      6      6  C        2   1.544746(     5)      1   88.291(    23)      3 -101.113(    40)      0
      7      7  C        2   1.490961(     6)      1  120.461(    24)      6  126.481(    41)      0
      8      8  C        3   1.327322(     7)      1  127.568(    25)      2  114.592(    42)      0
      9      9  H        4   1.090897(     8)      1  111.093(    26)      2   95.347(    43)      0
     10     10  H        4   1.088262(     9)      1  117.639(    27)      9  125.536(    44)      0
     11     11  H        2   1.095674(    10)      1  106.752(    28)      6 -109.656(    45)      0
     12     12  H        3   1.087177(    11)      1  114.421(    29)      8  179.002(    46)      0
     13     13  C        7   1.327830(    12)      2  126.331(    30)      1 -115.072(    47)      0
     14     14  H        7   1.088225(    13)      2  115.229(    31)     13 -179.402(    48)      0
     15     15  H        6   1.090061(    14)      2  111.647(    32)      1   94.189(    49)      0
     16     16  H        6   1.090690(    15)      2  117.253(    33)     15  126.450(    50)      0
     17     17  H        8   1.082871(    16)      3  122.680(    34)      1   -0.636(    51)      0
     18     18  H        8   1.082287(    17)      3  120.981(    35)     17  179.468(    52)      0
     19     19  H       13   1.082462(    18)      7  121.359(    36)      2 -179.647(    53)      0
     20     20  H       13   1.083414(    19)      7  122.014(    37)     19  180.504(    54)      0
 ---------------------------------------------------------------------------------------------------
                         Z-Matrix orientation:                         
 ---------------------------------------------------------------------
 Center     Atomic      Atomic             Coordinates (Angstroms)
 Number     Number       Type             X           Y           Z
 ---------------------------------------------------------------------
      1          6           0        0.000000    0.000000    0.000000
      2          6           0        0.000000    0.000000    1.586417
      3          6           0        1.357727    0.000000   -0.631719
      4          6           0       -0.758699   -1.349949    0.072933
      5          1           0       -0.574036    0.828860   -0.423936
      6          6           0       -0.297621   -1.515104    1.540341
      7          6           0        1.161246    0.550602    2.342268
      8          6           0        1.906765   -0.956653   -1.370067
      9          1           0       -1.836436   -1.199209   -0.003336
     10          1           0       -0.472497   -2.128610   -0.631403
     11          1           0       -0.901487    0.536736    1.902229
     12          1           0        1.932396    0.907160   -0.462102
     13          6           0        1.981415   -0.132833    3.131807
     14          1           0        1.325475    1.620048    2.225871
     15          1           0        0.616007   -2.106437    1.602324
     16          1           0       -1.017741   -1.904780    2.260884
     17          1           0        1.399973   -1.887547   -1.591898
     18          1           0        2.895940   -0.836003   -1.792347
     19          1           0        2.799729    0.351866    3.648678
     20          1           0        1.873558   -1.199747    3.286227
 ---------------------------------------------------------------------
                    Distance matrix (angstroms):
                    1          2          3          4          5
     1  C    0.000000
     2  C    1.586417   0.000000
     3  C    1.497495   2.600683   0.000000
     4  C    1.550260   2.165322   2.607328   0.000000
     5  H    1.093731   2.249010   2.112319   2.242362   0.000000
     6  C    2.181001   1.544746   3.123069   1.546982   3.070660
     7  C    2.671680   1.490961   3.030902   3.528196   3.277272
     8  C    2.535354   3.645783   1.327322   3.056408   3.199623
     9  H    2.193310   2.708858   3.469243   1.090897   2.425617
    10  H    2.270001   3.110138   2.807259   1.088262   2.966476
    11  H    2.172381   1.095674   3.437008   2.631785   2.367193
    12  H    2.184178   2.958636   1.087177   3.552858   2.507945
    13  C    3.708351   2.516323   3.817166   4.283259   4.483134
    14  H    3.055477   2.188685   3.285029   4.218981   3.354936
    15  H    2.717349   2.194720   3.158825   2.191148   3.760040
    16  H    3.126593   2.262497   4.199785   2.272019   3.857191
    17  H    2.838467   3.952777   2.118150   2.778586   3.555237
    18  H    3.506833   4.527849   2.100490   4.135190   4.084734
    19  H    4.612498   3.495026   4.530450   5.323958   5.309990
    20  H    3.968488   2.799816   4.129864   4.156512   4.885823
                    6          7          8          9         10
     6  C    0.000000
     7  C    2.653021   0.000000
     8  C    3.693461   4.075420   0.000000
     9  H    2.202426   4.189247   3.992284   0.000000
    10  H    2.263502   4.323195   2.753179   1.765951   0.000000
    11  H    2.169254   2.109193   4.563377   2.742045   3.702349
    12  H    3.853585   2.930238   2.073368   4.341814   3.876606
    13  C    3.104423   1.327830   4.577239   5.053935   4.915949
    14  H    3.596327   1.088225   4.461844   4.786988   5.044715
    15  H    1.090061   2.811523   3.438483   3.068499   2.484929
    16  H    1.090690   3.283826   4.757677   2.508941   2.951731
    17  H    3.582102   4.634568   1.082871   3.670379   2.118208
    18  H    4.665492   4.693280   1.082287   5.072263   3.790117
    19  H    4.186195   2.104953   5.262832   6.102217   5.931215
    20  H    2.803852   2.112385   4.662753   4.958354   4.659891
                   11         12         13         14         15
    11  H    0.000000
    12  H    3.709200   0.000000
    13  C    3.204888   3.741680   0.000000
    14  H    2.497532   2.846359   2.079319   0.000000
    15  H    3.062531   3.882848   2.845834   3.844327   0.000000
    16  H    2.470456   4.901528   3.590716   4.232766   1.772992
    17  H    4.835575   3.061095   5.072522   5.184991   3.296296
    18  H    5.473094   2.395118   5.057479   4.964335   4.282042
    19  H    4.096737   4.237821   1.082462   2.409583   3.872913
    20  H    3.554110   4.300290   1.083414   3.062025   2.288897
                   16         17         18         19         20
    16  H    0.000000
    17  H    4.548579   0.000000
    18  H    5.734794   1.839522   0.000000
    19  H    4.646665   5.868382   5.570013   0.000000
    20  H    3.147699   4.949085   5.193215   1.843004   0.000000
 Symmetry turned off by external request.
 Stoichiometry    C8H12
 Framework group  C1[X(C8H12)]
 Deg. of freedom    54
 Full point group                 C1      NOp   1
 Rotational constants (GHZ):           2.7942438           1.6964382           1.3162748
 Standard basis: def2TZVP (5D, 7F)
 The following finite field(s) will be applied:
 An electric field of             -0.0037 -0.0013  0.0031
   320 basis functions,   504 primitive gaussians,   360 cartesian basis functions
    30 alpha electrons       30 beta electrons
       nuclear repulsion energy       360.3872670025 Hartrees.
 NAtoms=   20 NActive=   20 NUniq=   20 SFac= 1.00D+00 NAtFMM=   60 NAOKFM=F Big=F
 Integral buffers will be    131072 words long.
 Raffenetti 2 integral format.
 Two-electron integral symmetry is turned off.
 One-electron integrals computed using PRISM.
   1 Symmetry operations used in ECPInt.
 ECPInt:  NShTT=    9316 NPrTT=   27240 LenC2=    9174 LenP2D=   21658.
 LDataN:  DoStor=T MaxTD1= 6 Len=  172
 NBasis=   320 RedAO= T EigKep=  3.43D-05  NBF=   320
 NBsUse=   320 1.00D-06 EigRej= -1.00D+00 NBFU=   320
 The nuclear repulsion energy is now       360.4601335295 hartrees.
 Initial guess from the checkpoint file:  "checkpoint.chk"
 B after Tr=     0.000000    0.000000    0.000000
         Rot=    1.000000   -0.000000    0.000000    0.000000 Ang=   0.00 deg.
 Requested convergence on RMS density matrix=1.00D-08 within 128 cycles.
 Requested convergence on MAX density matrix=1.00D-06.
 Requested convergence on             energy=1.00D-06.
 No special actions if energy rises.
 SCF Done:  E(RB3LYP) =  -312.117297256     A.U. after   10 cycles
            NFock= 10  Conv=0.44D-08     -V/T= 2.0056
   1 Symmetry operations used in ECPInt.
 ECPInt:  NShTT=    9316 NPrTT=   27240 LenC2=    9174 LenP2D=   21658.
 LDataN:  DoStor=T MaxTD1= 7 Len=  274
 Calling FoFJK, ICntrl=      2127 FMM=F ISym2X=0 I1Cent= 0 IOpClX= 0 NMat=1 NMatS=1 NMatT=0.
 -------------------------------------------------------------------
 Center     Atomic                   Forces (Hartrees/Bohr)
 Number     Number              X              Y              Z
 -------------------------------------------------------------------
      1        6           0.000043097    0.000298805   -0.000083971
      2        6           0.000246640   -0.000036931   -0.000141336
      3        6           0.000668022   -0.000304586   -0.000015731
      4        6           0.000192074   -0.000272110   -0.000097216
      5        1          -0.000082840   -0.000083745    0.000059297
      6        6           0.000269779    0.000193393   -0.000334782
      7        6          -0.000262140    0.000126919    0.000331978
      8        6          -0.000042482    0.000210683    0.000394254
      9        1          -0.000296405    0.000074821   -0.000016045
     10        1           0.000078419    0.000094529   -0.000013264
     11        1          -0.000247066    0.000151386    0.000058753
     12        1          -0.000152551   -0.000052909   -0.000138569
     13        6          -0.000281457    0.000226452    0.000543666
     14        1           0.000142331   -0.000154460   -0.000188760
     15        1          -0.000020203    0.000065179   -0.000056306
     16        1          -0.000328174   -0.000237854    0.000408750
     17        1          -0.000005010   -0.000062454   -0.000162771
     18        1          -0.000211989   -0.000011276   -0.000058488
     19        1           0.000151776   -0.000071602   -0.000269016
     20        1           0.000138178   -0.000154240   -0.000220441
 -------------------------------------------------------------------
 Cartesian Forces:  Max     0.000668022 RMS     0.000217329
 -----------------------------------------------------------------------------------------------
                       Internal Coordinate Forces (Hartree/Bohr or radian)
  Cent   Atom   N1       Length/X         N2         Alpha/Y        N3         Beta/Z          J
 -----------------------------------------------------------------------------------------------
      1  C 
      2  C        1   0.000133(     1)
      3  C        1   0.000224(     2)      2   0.000055(    20)
      4  C        1   0.000096(     3)      2   0.000559(    21)      3  -0.000180(    38)     0
      5  H        1  -0.000043(     4)      2  -0.000096(    22)      3  -0.000221(    39)     0
      6  C        2  -0.000006(     5)      1   0.000014(    23)      3  -0.000279(    40)     0
      7  C        2   0.000003(     6)      1   0.000099(    24)      6  -0.000207(    41)     0
      8  C        3  -0.000302(     7)      1  -0.000288(    25)      2  -0.000076(    42)     0
      9  H        4   0.000304(     8)      1  -0.000067(    26)      2   0.000006(    43)     0
     10  H        4  -0.000038(     9)      1  -0.000240(    27)      9   0.000021(    44)     0
     11  H        2   0.000294(    10)      1  -0.000056(    28)      6  -0.000007(    45)     0
     12  H        3  -0.000146(    11)      1  -0.000044(    29)      8  -0.000286(    46)     0
     13  C        7   0.000037(    12)      2   0.000003(    30)      1  -0.000078(    47)     0
     14  H        7  -0.000110(    13)      2   0.000012(    31)     13  -0.000484(    48)     0
     15  H        6  -0.000055(    14)      2  -0.000084(    32)      1  -0.000221(    49)     0
     16  H        6   0.000572(    15)      2   0.000052(    33)     15  -0.000114(    50)     0
     17  H        8   0.000089(    16)      3   0.000207(    34)      1  -0.000035(    51)     0
     18  H        8  -0.000172(    17)      3   0.000099(    35)     17  -0.000225(    52)     0
     19  H       13  -0.000046(    18)      7  -0.000013(    36)      2  -0.000059(    53)     0
     20  H       13   0.000107(    19)      7  -0.000055(    37)     19   0.000489(    54)     0
 -----------------------------------------------------------------------------------------------
 Internal  Forces:  Max     0.000571687 RMS     0.000202030

 GradGradGradGradGradGradGradGradGradGradGradGradGradGradGradGradGradGrad
 Berny optimization.
 Search for a local minimum.
 Step number   1 out of a maximum of   64
 All quantities printed in internal units (Hartrees-Bohrs-Radians)
 Second derivative matrix not updated -- first step.
 ITU=  0
     Eigenvalues ---    0.01375   0.02979   0.03326   0.04425   0.05501
     Eigenvalues ---    0.07749   0.08288   0.08437   0.11349   0.13168
     Eigenvalues ---    0.14994   0.15256   0.15767   0.16848   0.16927
     Eigenvalues ---    0.19082   0.19629   0.21443   0.22379   0.22710
     Eigenvalues ---    0.24148   0.25036   0.25791   0.27890   0.28452
     Eigenvalues ---    0.29784   0.32641   0.33344   0.33937   0.34165
     Eigenvalues ---    0.34385   0.34659   0.34711   0.34734   0.34806
     Eigenvalues ---    0.35015   0.35019   0.35141   0.35585   0.35650
     Eigenvalues ---    0.35699   0.35719   0.39205   0.43889   0.44879
     Eigenvalues ---    0.47766   0.49152   0.52668   0.56013   0.60021
     Eigenvalues ---    0.60143   0.85683   1.47173   5.66170
 RFO step:  Lambda=-1.24762061D-05 EMin= 1.37462668D-02
 Linear search not attempted -- first point.
 Variable       Old X    -DE/DX   Delta X   Delta X   Delta X     New X
                                 (Linear)    (Quad)   (Total)
    R2        2.99789   0.00013   0.00000   0.00028   0.00028   2.99818
    R3        2.82986   0.00022   0.00000   0.00069   0.00069   2.83054
    R4        2.92957   0.00010   0.00000   0.00014   0.00014   2.92970
    R5        2.06685  -0.00004   0.00000  -0.00013  -0.00013   2.06673
    R6        2.91915  -0.00001   0.00000   0.00029   0.00029   2.91943
    R7        2.81751   0.00000   0.00000   0.00001   0.00001   2.81752
    R8        2.50828  -0.00030   0.00000  -0.00050  -0.00050   2.50777
    R9        2.06150   0.00030   0.00000   0.00088   0.00088   2.06237
   R10        2.05652  -0.00004   0.00000  -0.00011  -0.00011   2.05641
   R11        2.07052   0.00029   0.00000   0.00086   0.00086   2.07139
   R12        2.05447  -0.00015   0.00000  -0.00041  -0.00041   2.05405
   R13        2.50923   0.00004   0.00000   0.00006   0.00006   2.50930
   R14        2.05645  -0.00011   0.00000  -0.00031  -0.00031   2.05614
   R15        2.05992  -0.00006   0.00000  -0.00016  -0.00016   2.05976
   R16        2.06110   0.00057   0.00000   0.00164   0.00164   2.06275
   R17        2.04633   0.00009   0.00000   0.00025   0.00025   2.04658
   R18        2.04523  -0.00017   0.00000  -0.00048  -0.00048   2.04474
   R19        2.04556  -0.00005   0.00000  -0.00012  -0.00012   2.04543
   R20        2.04736   0.00011   0.00000   0.00030   0.00030   2.04766
    A3        2.00628   0.00006   0.00000   0.00001   0.00001   2.00629
    A4        1.52373   0.00056   0.00000   0.00070   0.00070   1.52444
    A5        1.96883  -0.00010   0.00000  -0.00022  -0.00022   1.96861
    A6        1.54096   0.00001   0.00000  -0.00016  -0.00016   1.54080
    A7        2.10245   0.00010   0.00000   0.00044   0.00044   2.10289
    A8        2.22648  -0.00029   0.00000  -0.00074  -0.00074   2.22573
    A9        1.93894  -0.00007   0.00000  -0.00009  -0.00009   1.93884
   A10        2.05319  -0.00024   0.00000  -0.00099  -0.00099   2.05220
   A11        1.86318  -0.00006   0.00000  -0.00030  -0.00030   1.86288
   A12        1.99702  -0.00004   0.00000   0.00021   0.00021   1.99723
   A13        2.20489   0.00000   0.00000  -0.00005  -0.00005   2.20483
   A14        2.01113   0.00001   0.00000   0.00007   0.00007   2.01120
   A15        1.94861  -0.00008   0.00000  -0.00076  -0.00076   1.94785
   A16        2.04645   0.00005   0.00000   0.00039   0.00039   2.04684
   A17        2.14118   0.00021   0.00000   0.00068   0.00068   2.14185
   A18        2.11152   0.00010   0.00000  -0.00007  -0.00007   2.11144
   A19        2.11812  -0.00001   0.00000   0.00006   0.00006   2.11817
   A20        2.12954  -0.00006   0.00000  -0.00026  -0.00026   2.12928
    D4        2.08282  -0.00018   0.00000   0.00002   0.00002   2.08284
    D5       -2.17651  -0.00022   0.00000  -0.00068  -0.00068  -2.17720
    D6       -1.76476  -0.00028   0.00000  -0.00181  -0.00181  -1.76658
    D7        2.20752  -0.00021   0.00000  -0.00069  -0.00069   2.20683
    D8        2.00000  -0.00008   0.00000   0.00063   0.00063   2.00063
    D9        1.66412   0.00001   0.00000   0.00199   0.00199   1.66611
   D10        2.19101   0.00002   0.00000  -0.00025  -0.00025   2.19076
   D11       -1.91385  -0.00001   0.00000  -0.00026  -0.00026  -1.91411
   D12        3.12417  -0.00029   0.00000  -0.00301  -0.00301   3.12116
   D13       -2.00839  -0.00008   0.00000   0.00209   0.00209  -2.00630
   D14       -3.13116  -0.00048   0.00000  -0.00587  -0.00587  -3.13703
   D15        1.64391  -0.00022   0.00000   0.00106   0.00106   1.64497
   D16        2.20697  -0.00011   0.00000  -0.00055  -0.00055   2.20642
   D17       -0.01109  -0.00004   0.00000  -0.00009  -0.00009  -0.01118
   D18        3.13230  -0.00023   0.00000  -0.00294  -0.00294   3.12936
   D19       -3.13543  -0.00006   0.00000  -0.00753  -0.00753  -3.14297
   D20        3.15038   0.00049   0.00000   0.00821   0.00821   3.15859
         Item               Value     Threshold  Converged?
 Maximum Force            0.000572     0.000450     NO 
 RMS     Force            0.000202     0.000300     YES
 Maximum Displacement     0.008206     0.001800     NO 
 RMS     Displacement     0.001926     0.001200     NO 
 Predicted change in Energy=-6.238103D-06
 GradGradGradGradGradGradGradGradGradGradGradGradGradGradGradGradGradGrad

 ---------------------------------------------------------------------------------------------------
                            Z-MATRIX (ANGSTROMS AND DEGREES)
   CD    Cent   Atom    N1       Length/X        N2       Alpha/Y        N3        Beta/Z          J
 ---------------------------------------------------------------------------------------------------
      1      1  C 
      2      2  C        1   1.586567(     1)
      3      3  C        1   1.497859(     2)      2  114.952(    20)
      4      4  C        1   1.550332(     3)      2   87.344(    21)      3  119.338(    38)      0
      5      5  H        1   1.093664(     4)      2  112.793(    22)      3 -124.744(    39)      0
      6      6  C        2   1.544897(     5)      1   88.281(    23)      3 -101.217(    40)      0
      7      7  C        2   1.490968(     6)      1  120.487(    24)      6  126.442(    41)      0
      8      8  C        3   1.327056(     7)      1  127.525(    25)      2  114.628(    42)      0
      9      9  H        4   1.091361(     8)      1  111.088(    26)      2   95.461(    43)      0
     10     10  H        4   1.088204(     9)      1  117.582(    27)      9  125.521(    44)      0
     11     11  H        2   1.096130(    10)      1  106.735(    28)      6 -109.670(    45)      0
     12     12  H        3   1.086958(    11)      1  114.433(    29)      8  178.829(    46)      0
     13     13  C        7   1.327863(    12)      2  126.328(    30)      1 -114.953(    47)      0
     14     14  H        7   1.088061(    13)      2  115.233(    31)     13 -179.739(    48)      0
     15     15  H        6   1.089976(    14)      2  111.603(    32)      1   94.250(    49)      0
     16     16  H        6   1.091560(    15)      2  117.275(    33)     15  126.419(    50)      0
     17     17  H        8   1.083004(    16)      3  122.719(    34)      1   -0.640(    51)      0
     18     18  H        8   1.082031(    17)      3  120.977(    35)     17  179.299(    52)      0
     19     19  H       13   1.082397(    18)      7  121.362(    36)      2 -180.079(    53)      0
     20     20  H       13   1.083573(    19)      7  121.999(    37)     19  180.974(    54)      0
 ---------------------------------------------------------------------------------------------------
                         Z-Matrix orientation:                         
 ---------------------------------------------------------------------
 Center     Atomic      Atomic             Coordinates (Angstroms)
 Number     Number       Type             X           Y           Z
 ---------------------------------------------------------------------
      1          6           0        0.000000    0.000000    0.000000
      2          6           0        0.000000    0.000000    1.586567
      3          6           0        1.358053    0.000000   -0.631881
      4          6           0       -0.758783   -1.350043    0.071849
      5          1           0       -0.574620    0.828493   -0.423688
      6          6           0       -0.300397   -1.514702    1.540231
      7          6           0        1.162323    0.547553    2.342991
      8          6           0        1.905906   -0.956731   -1.370528
      9          1           0       -1.836814   -1.199246   -0.006757
     10          1           0       -0.470491   -2.128153   -0.632154
     11          1           0       -0.900829    0.538874    1.902199
     12          1           0        1.931869    0.907831   -0.464387
     13          6           0        1.981777   -0.138576    3.130990
     14          1           0        1.331523    1.615772    2.224015
     15          1           0        0.612450   -2.106974    1.603260
     16          1           0       -1.022135   -1.903808    2.260783
     17          1           0        1.398774   -1.887486   -1.592816
     18          1           0        2.893699   -0.835654   -1.795259
     19          1           0        2.805118    0.342586    3.643020
     20          1           0        1.872522   -1.205878    3.282841
 ---------------------------------------------------------------------
                    Distance matrix (angstroms):
                    1          2          3          4          5
     1  C    0.000000
     2  C    1.586567   0.000000
     3  C    1.497859   2.601119   0.000000
     4  C    1.550332   2.166273   2.607459   0.000000
     5  H    1.093664   2.248936   2.113047   2.241761   0.000000
     6  C    2.181026   1.544897   3.124556   1.547055   3.069649
     7  C    2.672156   1.490968   3.031169   3.528400   3.278782
     8  C    2.534987   3.645850   1.327056   3.055439   3.199459
     9  H    2.193655   2.711228   3.469315   1.091361   2.424602
    10  H    2.269365   3.110164   2.805817   1.088204   2.965815
    11  H    2.172611   1.096130   3.437222   2.634078   2.366441
    12  H    2.184475   2.960183   1.086958   3.553189   2.508074
    13  C    3.708064   2.516324   3.816731   4.282133   4.483985
    14  H    3.054491   2.188610   3.281397   4.218680   3.356117
    15  H    2.717513   2.194245   3.160873   2.190535   3.759604
    16  H    3.127361   2.263584   4.202057   2.273201   3.856440
    17  H    2.838350   3.953182   2.118409   2.777590   3.554952
    18  H    3.506389   4.528637   2.099994   4.134164   4.084094
    19  H    4.610602   3.495004   4.526162   5.321621   5.310071
    20  H    3.967055   2.799612   4.128422   4.153916   4.885236
                    6          7          8          9         10
     6  C    0.000000
     7  C    2.652710   0.000000
     8  C    3.694810   4.075047   0.000000
     9  H    2.203012   4.191354   3.990819   0.000000
    10  H    2.263739   4.321687   2.750398   1.766587   0.000000
    11  H    2.169957   2.109732   4.563479   2.746133   3.704210
    12  H    3.856186   2.933150   2.073249   4.341909   3.875136
    13  C    3.103636   1.327863   4.575893   5.054910   4.912565
    14  H    3.595914   1.088061   4.457402   4.789471   5.042017
    15  H    1.089976   2.809995   3.440858   3.068390   2.484006
    16  H    1.091560   3.284476   4.759915   2.510348   2.953596
    17  H    3.583593   4.634210   1.083004   3.668553   2.115406
    18  H    4.667853   4.694256   1.082031   5.070374   3.786970
    19  H    4.185148   2.104962   5.256660   6.102922   5.925478
    20  H    2.802434   2.112397   4.660154   4.957890   4.654835
                   11         12         13         14         15
    11  H    0.000000
    12  H    3.709587   0.000000
    13  C    3.205976   3.744889   0.000000
    14  H    2.499334   2.844134   2.079224   0.000000
    15  H    3.062660   3.886525   2.843168   3.842036   0.000000
    16  H    2.471840   4.904896   3.591210   4.234207   1.773550
    17  H    4.836375   3.061264   5.070791   5.181268   3.298694
    18  H    5.473478   2.395011   5.058206   4.960287   4.286057
    19  H    4.099150   4.237081   1.082397   2.409577   3.868948
    20  H    3.555531   4.302674   1.083573   3.061945   2.284895
                   16         17         18         19         20
    16  H    0.000000
    17  H    4.550966   0.000000
    18  H    5.738134   1.839058   0.000000
    19  H    4.648089   5.862167   5.565158   0.000000
    20  H    3.148133   4.945812   5.192973   1.843152   0.000000
 Symmetry turned off by external request.
 Stoichiometry    C8H12
 Framework group  C1[X(C8H12)]
 Deg. of freedom    54
 Full point group                 C1      NOp   1
 Rotational constants (GHZ):           2.7933909           1.6968955           1.3164106
 Standard basis: def2TZVP (5D, 7F)
 The following finite field(s) will be applied:
 An electric field of             -0.0037 -0.0013  0.0031
   320 basis functions,   504 primitive gaussians,   360 cartesian basis functions
    30 alpha electrons       30 beta electrons
       nuclear repulsion energy       360.3770531504 Hartrees.
 NAtoms=   20 NActive=   20 NUniq=   20 SFac= 1.00D+00 NAtFMM=   60 NAOKFM=F Big=F
 Integral buffers will be    131072 words long.
 Raffenetti 2 integral format.
 Two-electron integral symmetry is turned off.
 One-electron integrals computed using PRISM.
   1 Symmetry operations used in ECPInt.
 ECPInt:  NShTT=    9316 NPrTT=   27240 LenC2=    9174 LenP2D=   21655.
 LDataN:  DoStor=T MaxTD1= 6 Len=  172
 NBasis=   320 RedAO= T EigKep=  3.43D-05  NBF=   320
 NBsUse=   320 1.00D-06 EigRej= -1.00D+00 NBFU=   320
 The nuclear repulsion energy is now       360.4499881305 hartrees.
 Initial guess from the checkpoint file:  "checkpoint.chk"
 B after Tr=     0.000348    0.000681    0.000002
         Rot=    1.000000   -0.000420   -0.000096    0.000585 Ang=  -0.08 deg.
 Requested convergence on RMS density matrix=1.00D-08 within 128 cycles.
 Requested convergence on MAX density matrix=1.00D-06.
 Requested convergence on             energy=1.00D-06.
 No special actions if energy rises.
 SCF Done:  E(RB3LYP) =  -312.117304749     A.U. after    8 cycles
            NFock=  8  Conv=0.31D-08     -V/T= 2.0056
   1 Symmetry operations used in ECPInt.
 ECPInt:  NShTT=    9316 NPrTT=   27240 LenC2=    9174 LenP2D=   21655.
 LDataN:  DoStor=T MaxTD1= 7 Len=  274
 Calling FoFJK, ICntrl=      2127 FMM=F ISym2X=0 I1Cent= 0 IOpClX= 0 NMat=1 NMatS=1 NMatT=0.
 -------------------------------------------------------------------
 Center     Atomic                   Forces (Hartrees/Bohr)
 Number     Number              X              Y              Z
 -------------------------------------------------------------------
      1        6           0.000308719    0.000238850   -0.000038271
      2        6          -0.000302649   -0.000019936    0.000015252
      3        6           0.000121718   -0.000184444   -0.000007368
      4        6          -0.000124265    0.000005340    0.000039810
      5        1           0.000000411   -0.000018481    0.000037918
      6        6           0.000044866    0.000013970   -0.000060386
      7        6          -0.000036492   -0.000020072    0.000015834
      8        6          -0.000040923   -0.000003514    0.000112411
      9        1          -0.000002318   -0.000000948   -0.000021305
     10        1           0.000022812    0.000024232    0.000041491
     11        1          -0.000032903   -0.000001024    0.000009183
     12        1          -0.000034427    0.000008709   -0.000042725
     13        6          -0.000115214    0.000040447    0.000188873
     14        1           0.000044510   -0.000019867   -0.000053075
     15        1           0.000007384   -0.000006142    0.000003966
     16        1           0.000009905   -0.000028271    0.000016883
     17        1           0.000024847    0.000009868   -0.000051215
     18        1          -0.000001706   -0.000013851   -0.000057920
     19        1           0.000048520   -0.000015368   -0.000077576
     20        1           0.000057206   -0.000009499   -0.000071779
 -------------------------------------------------------------------
 Cartesian Forces:  Max     0.000308719 RMS     0.000084119
 -----------------------------------------------------------------------------------------------
                       Internal Coordinate Forces (Hartree/Bohr or radian)
  Cent   Atom   N1       Length/X         N2         Alpha/Y        N3         Beta/Z          J
 -----------------------------------------------------------------------------------------------
      1  C 
      2  C        1  -0.000013(     1)
      3  C        1   0.000083(     2)      2   0.000144(    20)
      4  C        1   0.000029(     3)      2  -0.000156(    21)      3   0.000256(    38)     0
      5  H        1  -0.000029(     4)      2  -0.000060(    22)      3  -0.000019(    39)     0
      6  C        2   0.000009(     5)      1  -0.000131(    23)      3   0.000181(    40)     0
      7  C        2  -0.000009(     6)      1  -0.000109(    24)      6  -0.000087(    41)     0
      8  C        3  -0.000004(     7)      1  -0.000035(    25)      2  -0.000036(    42)     0
      9  H        4   0.000004(     8)      1  -0.000001(    26)      2   0.000103(    43)     0
     10  H        4  -0.000038(     9)      1  -0.000029(    27)      9   0.000062(    44)     0
     11  H        2   0.000029(    10)      1   0.000002(    28)      6   0.000035(    45)     0
     12  H        3  -0.000017(    11)      1  -0.000013(    29)      8  -0.000098(    46)     0
     13  C        7   0.000010(    12)      2   0.000055(    30)      1  -0.000054(    47)     0
     14  H        7  -0.000007(    13)      2   0.000008(    31)     13  -0.000133(    48)     0
     15  H        6   0.000010(    14)      2   0.000002(    32)      1  -0.000036(    49)     0
     16  H        6   0.000015(    15)      2   0.000043(    33)     15  -0.000042(    50)     0
     17  H        8  -0.000010(    16)      3   0.000090(    34)      1  -0.000012(    51)     0
     18  H        8   0.000020(    17)      3   0.000075(    35)     17  -0.000075(    52)     0
     19  H       13  -0.000007(    18)      7  -0.000011(    36)      2  -0.000002(    53)     0
     20  H       13  -0.000006(    19)      7   0.000003(    37)     19   0.000160(    54)     0
 -----------------------------------------------------------------------------------------------
 Internal  Forces:  Max     0.000256449 RMS     0.000074434

 GradGradGradGradGradGradGradGradGradGradGradGradGradGradGradGradGradGrad
 Berny optimization.
 Search for a local minimum.
 Step number   2 out of a maximum of   64
 All quantities printed in internal units (Hartrees-Bohrs-Radians)
 Update second derivatives using D2CorN and points    1    2
 DE= -7.49D-06 DEPred=-6.24D-06 R= 1.20D+00
 TightC=F SS=  1.41D+00  RLast= 1.42D-02 DXNew= 1.6818D-01 4.2459D-02
 Trust test= 1.20D+00 RLast= 1.42D-02 DXMaxT set to 1.00D-01
 ITU=  1  0
     Eigenvalues ---    0.01409   0.02653   0.03327   0.03890   0.05450
     Eigenvalues ---    0.07734   0.08287   0.08436   0.11294   0.13129
     Eigenvalues ---    0.14979   0.15239   0.15768   0.16850   0.16918
     Eigenvalues ---    0.19073   0.19632   0.21443   0.22233   0.22686
     Eigenvalues ---    0.24147   0.25040   0.25769   0.27895   0.28452
     Eigenvalues ---    0.29773   0.32616   0.33344   0.33944   0.34153
     Eigenvalues ---    0.34383   0.34646   0.34711   0.34727   0.34807
     Eigenvalues ---    0.35013   0.35019   0.35138   0.35586   0.35651
     Eigenvalues ---    0.35698   0.35724   0.39180   0.43903   0.44875
     Eigenvalues ---    0.47766   0.49134   0.52668   0.56001   0.60021
     Eigenvalues ---    0.60142   0.85686   1.47235   5.66172
 RFO step:  Lambda=-1.83552099D-06 EMin= 1.40924599D-02
 Quartic linear search produced a step of  0.25243.
 Variable       Old X    -DE/DX   Delta X   Delta X   Delta X     New X
                                 (Linear)    (Quad)   (Total)
    R2        2.99818  -0.00001   0.00007   0.00009   0.00016   2.99833
    R3        2.83054   0.00008   0.00017   0.00016   0.00034   2.83088
    R4        2.92970   0.00003   0.00003   0.00013   0.00016   2.92986
    R5        2.06673  -0.00003  -0.00003  -0.00008  -0.00011   2.06661
    R6        2.91943   0.00001   0.00007  -0.00012  -0.00005   2.91938
    R7        2.81752  -0.00001   0.00000  -0.00004  -0.00004   2.81748
    R8        2.50777  -0.00000  -0.00013   0.00012  -0.00001   2.50776
    R9        2.06237   0.00000   0.00022  -0.00020   0.00002   2.06240
   R10        2.05641  -0.00004  -0.00003  -0.00011  -0.00014   2.05627
   R11        2.07139   0.00003   0.00022  -0.00010   0.00012   2.07150
   R12        2.05405  -0.00002  -0.00010   0.00004  -0.00007   2.05398
   R13        2.50930   0.00001   0.00002   0.00000   0.00002   2.50932
   R14        2.05614  -0.00001  -0.00008   0.00005  -0.00003   2.05611
   R15        2.05976   0.00001  -0.00004   0.00008   0.00004   2.05980
   R16        2.06275   0.00001   0.00042  -0.00033   0.00008   2.06283
   R17        2.04658  -0.00001   0.00006  -0.00010  -0.00003   2.04655
   R18        2.04474   0.00002  -0.00012   0.00019   0.00007   2.04481
   R19        2.04543  -0.00001  -0.00003   0.00001  -0.00002   2.04541
   R20        2.04766  -0.00001   0.00008  -0.00009  -0.00002   2.04764
    A3        2.00629   0.00014   0.00000   0.00077   0.00077   2.00706
    A4        1.52444  -0.00016   0.00018  -0.00091  -0.00074   1.52370
    A5        1.96861  -0.00006  -0.00006  -0.00035  -0.00041   1.96820
    A6        1.54080  -0.00013  -0.00004  -0.00062  -0.00066   1.54014
    A7        2.10289  -0.00011   0.00011  -0.00056  -0.00045   2.10244
    A8        2.22573  -0.00003  -0.00019   0.00011  -0.00008   2.22565
    A9        1.93884  -0.00000  -0.00002   0.00051   0.00049   1.93933
   A10        2.05220  -0.00003  -0.00025  -0.00011  -0.00036   2.05184
   A11        1.86288   0.00000  -0.00007   0.00055   0.00047   1.86336
   A12        1.99723  -0.00001   0.00005  -0.00008  -0.00003   1.99721
   A13        2.20483   0.00005  -0.00001   0.00029   0.00028   2.20511
   A14        2.01120   0.00001   0.00002  -0.00011  -0.00010   2.01110
   A15        1.94785   0.00000  -0.00019   0.00012  -0.00007   1.94778
   A16        2.04684   0.00004   0.00010   0.00033   0.00043   2.04727
   A17        2.14185   0.00009   0.00017   0.00014   0.00031   2.14216
   A18        2.11144   0.00007  -0.00002   0.00013   0.00012   2.11156
   A19        2.11817  -0.00001   0.00001  -0.00011  -0.00010   2.11808
   A20        2.12928   0.00000  -0.00007   0.00016   0.00009   2.12937
    D4        2.08284   0.00026   0.00000  -0.00015  -0.00015   2.08269
    D5       -2.17720  -0.00002  -0.00017  -0.00052  -0.00069  -2.17789
    D6       -1.76658   0.00018  -0.00046   0.00456   0.00410  -1.76248
    D7        2.20683  -0.00009  -0.00017  -0.00059  -0.00076   2.20607
    D8        2.00063  -0.00004   0.00016  -0.00026  -0.00010   2.00054
    D9        1.66611   0.00010   0.00050  -0.00395  -0.00344   1.66267
   D10        2.19076   0.00006  -0.00006   0.00061   0.00054   2.19130
   D11       -1.91411   0.00004  -0.00006   0.00007   0.00001  -1.91410
   D12        3.12116  -0.00010  -0.00076  -0.00053  -0.00129   3.11987
   D13       -2.00630  -0.00005   0.00053   0.00067   0.00120  -2.00510
   D14       -3.13703  -0.00013  -0.00148  -0.00094  -0.00242  -3.13945
   D15        1.64497  -0.00004   0.00027  -0.00448  -0.00422   1.64075
   D16        2.20642  -0.00004  -0.00014   0.00014  -0.00000   2.20642
   D17       -0.01118  -0.00001  -0.00002   0.00014   0.00011  -0.01106
   D18        3.12936  -0.00007  -0.00074  -0.00063  -0.00137   3.12799
   D19       -3.14297  -0.00000  -0.00190  -0.00156  -0.00346  -3.14643
   D20        3.15859   0.00016   0.00207   0.00207   0.00414   3.16273
         Item               Value     Threshold  Converged?
 Maximum Force            0.000256     0.000450     YES
 RMS     Force            0.000074     0.000300     YES
 Maximum Displacement     0.004216     0.001800     NO 
 RMS     Displacement     0.001298     0.001200     NO 
 Predicted change in Energy=-1.052759D-06
 GradGradGradGradGradGradGradGradGradGradGradGradGradGradGradGradGradGrad

 ---------------------------------------------------------------------------------------------------
                            Z-MATRIX (ANGSTROMS AND DEGREES)
   CD    Cent   Atom    N1       Length/X        N2       Alpha/Y        N3        Beta/Z          J
 ---------------------------------------------------------------------------------------------------
      1      1  C 
      2      2  C        1   1.586650(     1)
      3      3  C        1   1.498038(     2)      2  114.996(    20)
      4      4  C        1   1.550417(     3)      2   87.301(    21)      3  119.329(    38)      0
      5      5  H        1   1.093605(     4)      2  112.770(    22)      3 -124.784(    39)      0
      6      6  C        2   1.544871(     5)      1   88.243(    23)      3 -100.983(    40)      0
      7      7  C        2   1.490948(     6)      1  120.461(    24)      6  126.398(    41)      0
      8      8  C        3   1.327049(     7)      1  127.521(    25)      2  114.622(    42)      0
      9      9  H        4   1.091373(     8)      1  111.115(    26)      2   95.264(    43)      0
     10     10  H        4   1.088129(     9)      1  117.562(    27)      9  125.552(    44)      0
     11     11  H        2   1.096193(    10)      1  106.762(    28)      6 -109.670(    45)      0
     12     12  H        3   1.086922(    11)      1  114.432(    29)      8  178.755(    46)      0
     13     13  C        7   1.327873(    12)      2  126.344(    30)      1 -114.884(    47)      0
     14     14  H        7   1.088045(    13)      2  115.228(    31)     13 -179.877(    48)      0
     15     15  H        6   1.089998(    14)      2  111.599(    32)      1   94.008(    49)      0
     16     16  H        6   1.091603(    15)      2  117.300(    33)     15  126.418(    50)      0
     17     17  H        8   1.082987(    16)      3  122.737(    34)      1   -0.634(    51)      0
     18     18  H        8   1.082066(    17)      3  120.983(    35)     17  179.221(    52)      0
     19     19  H       13   1.082385(    18)      7  121.357(    36)      2 -180.277(    53)      0
     20     20  H       13   1.083564(    19)      7  122.004(    37)     19  181.211(    54)      0
 ---------------------------------------------------------------------------------------------------
                         Z-Matrix orientation:                         
 ---------------------------------------------------------------------
 Center     Atomic      Atomic             Coordinates (Angstroms)
 Number     Number       Type             X           Y           Z
 ---------------------------------------------------------------------
      1          6           0        0.000000    0.000000    0.000000
      2          6           0        0.000000    0.000000    1.586650
      3          6           0        1.357729    0.000000   -0.633000
      4          6           0       -0.758598   -1.350182    0.072995
      5          1           0       -0.575263    0.828191   -0.423253
      6          6           0       -0.294175   -1.515865    1.539295
      7          6           0        1.160778    0.551567    2.342491
      8          6           0        1.904963   -0.956827   -1.371970
      9          1           0       -1.836973   -1.199815   -0.001790
     10          1           0       -0.472086   -2.127451   -0.632546
     11          1           0       -0.902956    0.535127    1.902797
     12          1           0        1.931100    0.908359   -0.467080
     13          6           0        1.983793   -0.131604    3.129364
     14          1           0        1.326994    1.620095    2.222241
     15          1           0        0.621469   -2.104310    1.597803
     16          1           0       -1.011334   -1.909509    2.262015
     17          1           0        1.397865   -1.887640   -1.594002
     18          1           0        2.891971   -0.835462   -1.798530
     19          1           0        2.807448    0.352182    3.638384
     20          1           0        1.879577   -1.199536    3.280263
 ---------------------------------------------------------------------
                    Distance matrix (angstroms):
                    1          2          3          4          5
     1  C    0.000000
     2  C    1.586650   0.000000
     3  C    1.498038   2.601975   0.000000
     4  C    1.550417   2.165552   2.607731   0.000000
     5  H    1.093605   2.248675   2.113375   2.241693   0.000000
     6  C    2.180324   1.544871   3.121778   1.546989   3.070050
     7  C    2.671871   1.490948   3.032583   3.528635   3.277148
     8  C    2.535095   3.646619   1.327049   3.055685   3.199668
     9  H    2.194089   2.708720   3.470461   1.091373   2.425356
    10  H    2.269147   3.110264   2.806113   1.088129   2.964840
    11  H    2.173091   1.096193   3.439087   2.631236   2.367230
    12  H    2.184588   2.961768   1.086922   3.553472   2.508027
    13  C    3.707516   2.516490   3.816367   4.283344   4.482306
    14  H    3.053519   2.188515   3.282995   4.217998   3.353257
    15  H    2.714280   2.194190   3.153835   2.190510   3.757180
    16  H    3.128216   2.263877   4.199976   2.273440   3.859511
    17  H    2.838671   3.953955   2.118566   2.778142   3.555226
    18  H    3.506594   4.530004   2.100085   4.134513   4.084218
    19  H    4.609082   3.495055   4.524427   5.322286   5.307185
    20  H    3.966336   2.800004   4.126116   4.155626   4.884050
                    6          7          8          9         10
     6  C    0.000000
     7  C    2.652600   0.000000
     8  C    3.691097   4.077534   0.000000
     9  H    2.203419   4.189212   3.992308   0.000000
    10  H    2.263313   4.323682   2.750904   1.766714   0.000000
    11  H    2.170096   2.110118   4.564475   2.740413   3.701748
    12  H    3.854121   2.935028   2.073265   4.342725   3.875413
    13  C    3.103810   1.327873   4.577031   5.054053   4.915965
    14  H    3.595671   1.088045   4.460149   4.786324   5.042877
    15  H    1.089998   2.810532   3.432728   3.069324   2.484121
    16  H    1.091603   3.283510   4.755864   2.512003   2.952418
    17  H    3.580331   4.637016   1.082987   3.670479   2.116276
    18  H    4.664285   4.697759   1.082066   5.071877   3.787563
    19  H    4.185193   2.104903   5.256579   6.101656   5.928302
    20  H    2.802897   2.112451   4.658628   4.958287   4.658478
                   11         12         13         14         15
    11  H    0.000000
    12  H    3.713151   0.000000
    13  C    3.206606   3.744157   0.000000
    14  H    2.500376   2.846746   2.079112   0.000000
    15  H    3.063253   3.880083   2.844850   3.841729   0.000000
    16  H    2.473263   4.903698   3.589433   4.234084   1.773464
    17  H    4.836443   3.061357   5.073181   5.183912   3.292014
    18  H    5.475382   2.395192   5.060074   4.964425   4.277877
    19  H    4.100345   4.234638   1.082385   2.409317   3.869990
    20  H    3.556537   4.299820   1.083564   3.061875   2.287383
                   16         17         18         19         20
    16  H    0.000000
    17  H    4.546822   0.000000
    18  H    5.733881   1.838821   0.000000
    19  H    4.646798   5.863582   5.565760   0.000000
    20  H    3.146149   4.946109   5.191496   1.843102   0.000000
 Symmetry turned off by external request.
 Stoichiometry    C8H12
 Framework group  C1[X(C8H12)]
 Deg. of freedom    54
 Full point group                 C1      NOp   1
 Rotational constants (GHZ):           2.7947910           1.6962416           1.3165035
 Standard basis: def2TZVP (5D, 7F)
 The following finite field(s) will be applied:
 An electric field of             -0.0037 -0.0013  0.0031
   320 basis functions,   504 primitive gaussians,   360 cartesian basis functions
    30 alpha electrons       30 beta electrons
       nuclear repulsion energy       360.3842348513 Hartrees.
 NAtoms=   20 NActive=   20 NUniq=   20 SFac= 1.00D+00 NAtFMM=   60 NAOKFM=F Big=F
 Integral buffers will be    131072 words long.
 Raffenetti 2 integral format.
 Two-electron integral symmetry is turned off.
 One-electron integrals computed using PRISM.
   1 Symmetry operations used in ECPInt.
 ECPInt:  NShTT=    9316 NPrTT=   27240 LenC2=    9174 LenP2D=   21658.
 LDataN:  DoStor=T MaxTD1= 6 Len=  172
 NBasis=   320 RedAO= T EigKep=  3.45D-05  NBF=   320
 NBsUse=   320 1.00D-06 EigRej= -1.00D+00 NBFU=   320
 The nuclear repulsion energy is now       360.4564017371 hartrees.
 Initial guess from the checkpoint file:  "checkpoint.chk"
 B after Tr=    -0.001532   -0.001394   -0.000787
         Rot=    0.999999    0.000397   -0.000472   -0.000945 Ang=   0.13 deg.
 Requested convergence on RMS density matrix=1.00D-08 within 128 cycles.
 Requested convergence on MAX density matrix=1.00D-06.
 Requested convergence on             energy=1.00D-06.
 No special actions if energy rises.
 SCF Done:  E(RB3LYP) =  -312.117304791     A.U. after    8 cycles
            NFock=  8  Conv=0.30D-08     -V/T= 2.0056
   1 Symmetry operations used in ECPInt.
 ECPInt:  NShTT=    9316 NPrTT=   27240 LenC2=    9174 LenP2D=   21658.
 LDataN:  DoStor=T MaxTD1= 7 Len=  274
 Calling FoFJK, ICntrl=      2127 FMM=F ISym2X=0 I1Cent= 0 IOpClX= 0 NMat=1 NMatS=1 NMatT=0.
 -------------------------------------------------------------------
 Center     Atomic                   Forces (Hartrees/Bohr)
 Number     Number              X              Y              Z
 -------------------------------------------------------------------
      1        6           0.000005423    0.000328952    0.000017989
      2        6           0.000022464   -0.000139389    0.000046379
      3        6          -0.000021748   -0.000169378    0.000040514
      4        6           0.000217857   -0.000134308   -0.000040415
      5        1           0.000025951    0.000028072   -0.000034457
      6        6          -0.000247580    0.000059077    0.000089117
      7        6           0.000035112    0.000000410   -0.000043779
      8        6          -0.000020462    0.000010288    0.000024699
      9        1           0.000029465    0.000035972    0.000029741
     10        1          -0.000014596   -0.000024946   -0.000033452
     11        1          -0.000005338   -0.000028494   -0.000067644
     12        1          -0.000006766    0.000002855   -0.000000047
     13        6          -0.000002905   -0.000002283    0.000002866
     14        1          -0.000001361    0.000019294    0.000006122
     15        1           0.000002371    0.000034146   -0.000038989
     16        1          -0.000001982   -0.000011750    0.000010639
     17        1           0.000000967   -0.000010034    0.000002965
     18        1          -0.000004941    0.000001655   -0.000016423
     19        1          -0.000001217    0.000003820    0.000005754
     20        1          -0.000010716   -0.000003960   -0.000001579
 -------------------------------------------------------------------
 Cartesian Forces:  Max     0.000328952 RMS     0.000073336
 -----------------------------------------------------------------------------------------------
                       Internal Coordinate Forces (Hartree/Bohr or radian)
  Cent   Atom   N1       Length/X         N2         Alpha/Y        N3         Beta/Z          J
 -----------------------------------------------------------------------------------------------
      1  C 
      2  C        1   0.000009(     1)
      3  C        1  -0.000070(     2)      2  -0.000012(    20)
      4  C        1  -0.000009(     3)      2   0.000108(    21)      3  -0.000654(    38)     0
      5  H        1   0.000021(     4)      2   0.000059(    22)      3   0.000071(    39)     0
      6  C        2  -0.000035(     5)      1   0.000143(    23)      3  -0.000633(    40)     0
      7  C        2   0.000006(     6)      1  -0.000059(    24)      6  -0.000010(    41)     0
      8  C        3  -0.000018(     7)      1  -0.000058(    25)      2  -0.000023(    42)     0
      9  H        4  -0.000026(     8)      1  -0.000077(    26)      2  -0.000102(    43)     0
     10  H        4   0.000036(     9)      1   0.000025(    27)      9  -0.000042(    44)     0
     11  H        2  -0.000029(    10)      1  -0.000128(    28)      6   0.000054(    45)     0
     12  H        3  -0.000001(    11)      1  -0.000013(    29)      8  -0.000007(    46)     0
     13  C        7  -0.000004(    12)      2  -0.000037(    30)      1  -0.000019(    47)     0
     14  H        7   0.000018(    13)      2   0.000003(    31)     13   0.000017(    48)     0
     15  H        6  -0.000019(    14)      2  -0.000057(    32)      1  -0.000089(    49)     0
     16  H        6   0.000013(    15)      2   0.000013(    33)     15  -0.000013(    50)     0
     17  H        8   0.000008(    16)      3   0.000005(    34)      1  -0.000040(    51)     0
     18  H        8   0.000002(    17)      3   0.000011(    35)     17  -0.000028(    52)     0
     19  H       13   0.000003(    18)      7  -0.000003(    36)      2   0.000002(    53)     0
     20  H       13   0.000005(    19)      7  -0.000019(    37)     19  -0.000008(    54)     0
 -----------------------------------------------------------------------------------------------
 Internal  Forces:  Max     0.000653902 RMS     0.000132078

 GradGradGradGradGradGradGradGradGradGradGradGradGradGradGradGradGradGrad
 Berny optimization.
 Search for a local minimum.
 Step number   3 out of a maximum of   64
 All quantities printed in internal units (Hartrees-Bohrs-Radians)
 Update second derivatives using D2CorN and points    1    2    3
 DE= -4.22D-08 DEPred=-1.05D-06 R= 4.01D-02
 Trust test= 4.01D-02 RLast= 9.54D-03 DXMaxT set to 5.00D-02
 ITU= -1  1  0
     Eigenvalues ---    0.02223   0.03101   0.03338   0.03875   0.05477
     Eigenvalues ---    0.07725   0.08294   0.08437   0.11226   0.13231
     Eigenvalues ---    0.14983   0.15230   0.15770   0.16905   0.16964
     Eigenvalues ---    0.19062   0.19636   0.21472   0.22232   0.22694
     Eigenvalues ---    0.24150   0.25049   0.25764   0.27896   0.28453
     Eigenvalues ---    0.29774   0.32641   0.33344   0.33967   0.34159
     Eigenvalues ---    0.34386   0.34637   0.34716   0.34728   0.34808
     Eigenvalues ---    0.35019   0.35020   0.35137   0.35586   0.35651
     Eigenvalues ---    0.35698   0.35726   0.39172   0.43903   0.44851
     Eigenvalues ---    0.47766   0.49124   0.52670   0.55988   0.60021
     Eigenvalues ---    0.60140   0.85690   1.47599   5.66174
 RFO step:  Lambda=-8.29810530D-07 EMin= 2.22268886D-02
 Quartic linear search produced a step of -0.49023.
 Variable       Old X    -DE/DX   Delta X   Delta X   Delta X     New X
                                 (Linear)    (Quad)   (Total)
    R2        2.99833   0.00001  -0.00008   0.00001  -0.00007   2.99827
    R3        2.83088  -0.00007  -0.00017   0.00006  -0.00011   2.83077
    R4        2.92986  -0.00001  -0.00008   0.00012   0.00004   2.92990
    R5        2.06661   0.00002   0.00005  -0.00002   0.00003   2.06664
    R6        2.91938  -0.00003   0.00002  -0.00004  -0.00001   2.91937
    R7        2.81748   0.00001   0.00002  -0.00001   0.00001   2.81750
    R8        2.50776  -0.00002   0.00001  -0.00002  -0.00002   2.50774
    R9        2.06240  -0.00003  -0.00001  -0.00003  -0.00004   2.06235
   R10        2.05627   0.00004   0.00007  -0.00002   0.00005   2.05632
   R11        2.07150  -0.00003  -0.00006   0.00002  -0.00004   2.07146
   R12        2.05398  -0.00000   0.00003  -0.00004  -0.00001   2.05398
   R13        2.50932  -0.00000  -0.00001   0.00001  -0.00000   2.50932
   R14        2.05611   0.00002   0.00002   0.00002   0.00003   2.05614
   R15        2.05980  -0.00002  -0.00002  -0.00002  -0.00004   2.05976
   R16        2.06283   0.00001  -0.00004   0.00006   0.00002   2.06285
   R17        2.04655   0.00001   0.00002  -0.00001   0.00001   2.04656
   R18        2.04481   0.00000  -0.00003   0.00004   0.00001   2.04482
   R19        2.04541   0.00000   0.00001  -0.00001   0.00000   2.04542
   R20        2.04764   0.00000   0.00001  -0.00000   0.00000   2.04764
    A3        2.00706  -0.00001  -0.00038   0.00012  -0.00025   2.00680
    A4        1.52370   0.00011   0.00036   0.00022   0.00058   1.52428
    A5        1.96820   0.00006   0.00020  -0.00010   0.00010   1.96830
    A6        1.54014   0.00014   0.00032   0.00036   0.00069   1.54083
    A7        2.10244  -0.00006   0.00022  -0.00025  -0.00003   2.10241
    A8        2.22565  -0.00006   0.00004  -0.00014  -0.00010   2.22555
    A9        1.93933  -0.00008  -0.00024  -0.00033  -0.00057   1.93876
   A10        2.05184   0.00003   0.00017   0.00005   0.00023   2.05207
   A11        1.86336  -0.00013  -0.00023  -0.00035  -0.00059   1.86277
   A12        1.99721  -0.00001   0.00001   0.00001   0.00002   1.99723
   A13        2.20511  -0.00004  -0.00014   0.00001  -0.00013   2.20498
   A14        2.01110   0.00000   0.00005   0.00002   0.00007   2.01117
   A15        1.94778  -0.00006   0.00003  -0.00030  -0.00027   1.94751
   A16        2.04727   0.00001  -0.00021   0.00024   0.00003   2.04730
   A17        2.14216   0.00000  -0.00015   0.00017   0.00001   2.14218
   A18        2.11156   0.00001  -0.00006   0.00008   0.00003   2.11159
   A19        2.11808  -0.00000   0.00005  -0.00002   0.00003   2.11811
   A20        2.12937  -0.00002  -0.00004  -0.00005  -0.00010   2.12927
    D4        2.08269  -0.00065   0.00007   0.00027   0.00034   2.08303
    D5       -2.17789   0.00007   0.00034   0.00035   0.00069  -2.17720
    D6       -1.76248  -0.00063  -0.00201  -0.00213  -0.00414  -1.76662
    D7        2.20607  -0.00001   0.00037   0.00006   0.00044   2.20650
    D8        2.00054  -0.00002   0.00005   0.00012   0.00017   2.00070
    D9        1.66267  -0.00010   0.00169   0.00178   0.00347   1.66614
   D10        2.19130  -0.00004  -0.00027  -0.00015  -0.00041   2.19088
   D11       -1.91410   0.00005  -0.00000   0.00001   0.00000  -1.91410
   D12        3.11987  -0.00001   0.00063  -0.00091  -0.00028   3.11959
   D13       -2.00510  -0.00002  -0.00059  -0.00032  -0.00090  -2.00601
   D14       -3.13945   0.00002   0.00119  -0.00125  -0.00007  -3.13952
   D15        1.64075  -0.00009   0.00207   0.00143   0.00349   1.64425
   D16        2.20642  -0.00001   0.00000  -0.00007  -0.00006   2.20635
   D17       -0.01106  -0.00004  -0.00006  -0.00014  -0.00019  -0.01126
   D18        3.12799  -0.00003   0.00067  -0.00093  -0.00026   3.12773
   D19       -3.14643   0.00000   0.00170  -0.00228  -0.00059  -3.14701
   D20        3.16273  -0.00001  -0.00203   0.00261   0.00057   3.16331
         Item               Value     Threshold  Converged?
 Maximum Force            0.000654     0.000450     NO 
 RMS     Force            0.000132     0.000300     YES
 Maximum Displacement     0.004143     0.001800     NO 
 RMS     Displacement     0.000921     0.001200     YES
 Predicted change in Energy=-1.205271D-06
 GradGradGradGradGradGradGradGradGradGradGradGradGradGradGradGradGradGrad

 ---------------------------------------------------------------------------------------------------
                            Z-MATRIX (ANGSTROMS AND DEGREES)
   CD    Cent   Atom    N1       Length/X        N2       Alpha/Y        N3        Beta/Z          J
 ---------------------------------------------------------------------------------------------------
      1      1  C 
      2      2  C        1   1.586614(     1)
      3      3  C        1   1.497981(     2)      2  114.981(    20)
      4      4  C        1   1.550436(     3)      2   87.335(    21)      3  119.349(    38)      0
      5      5  H        1   1.093621(     4)      2  112.776(    22)      3 -124.744(    39)      0
      6      6  C        2   1.544864(     5)      1   88.283(    23)      3 -101.220(    40)      0
      7      7  C        2   1.490954(     6)      1  120.459(    24)      6  126.423(    41)      0
      8      8  C        3   1.327040(     7)      1  127.515(    25)      2  114.632(    42)      0
      9      9  H        4   1.091351(     8)      1  111.083(    26)      2   95.463(    43)      0
     10     10  H        4   1.088157(     9)      1  117.575(    27)      9  125.528(    44)      0
     11     11  H        2   1.096171(    10)      1  106.729(    28)      6 -109.670(    45)      0
     12     12  H        3   1.086919(    11)      1  114.433(    29)      8  178.739(    46)      0
     13     13  C        7   1.327872(    12)      2  126.336(    30)      1 -114.936(    47)      0
     14     14  H        7   1.088062(    13)      2  115.231(    31)     13 -179.881(    48)      0
     15     15  H        6   1.089979(    14)      2  111.584(    32)      1   94.208(    49)      0
     16     16  H        6   1.091613(    15)      2  117.302(    33)     15  126.415(    50)      0
     17     17  H        8   1.082993(    16)      3  122.738(    34)      1   -0.645(    51)      0
     18     18  H        8   1.082070(    17)      3  120.985(    35)     17  179.206(    52)      0
     19     19  H       13   1.082388(    18)      7  121.359(    36)      2 -180.311(    53)      0
     20     20  H       13   1.083566(    19)      7  121.998(    37)     19  181.244(    54)      0
 ---------------------------------------------------------------------------------------------------
                         Z-Matrix orientation:                         
 ---------------------------------------------------------------------
 Center     Atomic      Atomic             Coordinates (Angstroms)
 Number     Number       Type             X           Y           Z
 ---------------------------------------------------------------------
      1          6           0        0.000000    0.000000    0.000000
      2          6           0        0.000000    0.000000    1.586614
      3          6           0        1.357838    0.000000   -0.632631
      4          6           0       -0.759086   -1.349979    0.072099
      5          1           0       -0.574676    0.828563   -0.423365
      6          6           0       -0.300458   -1.514657    1.540320
      7          6           0        1.162840    0.547274    2.342418
      8          6           0        1.905081   -0.956820   -1.371586
      9          1           0       -1.837069   -1.198899   -0.006477
     10          1           0       -0.470812   -2.128173   -0.631745
     11          1           0       -0.900874    0.538945    1.902140
     12          1           0        1.931141    0.908391   -0.466674
     13          6           0        1.982677   -0.138895    3.129999
     14          1           0        1.333638    1.615016    2.221443
     15          1           0        0.612622   -2.106649    1.602648
     16          1           0       -1.021614   -1.904320    2.261233
     17          1           0        1.397968   -1.887614   -1.593696
     18          1           0        2.892029   -0.835413   -1.798284
     19          1           0        2.808553    0.341571    3.638571
     20          1           0        1.873768   -1.206276    3.281493
 ---------------------------------------------------------------------
                    Distance matrix (angstroms):
                    1          2          3          4          5
     1  C    0.000000
     2  C    1.586614   0.000000
     3  C    1.497981   2.601687   0.000000
     4  C    1.550436   2.166197   2.607768   0.000000
     5  H    1.093621   2.248730   2.113036   2.241771   0.000000
     6  C    2.181065   1.544864   3.125036   1.546975   3.069517
     7  C    2.671821   1.490954   3.031245   3.528132   3.278360
     8  C    2.534973   3.646339   1.327040   3.055583   3.199361
     9  H    2.193678   2.711111   3.469418   1.091351   2.424466
    10  H    2.269336   3.109968   2.805901   1.088157   2.965889
    11  H    2.172595   1.096171   3.437631   2.633853   2.366064
    12  H    2.184551   2.961498   1.086919   3.553566   2.507462
    13  C    3.707721   2.516414   3.816687   4.281909   4.483573
    14  H    3.053142   2.188578   3.279421   4.217863   3.354874
    15  H    2.716939   2.193976   3.160663   2.190140   3.758973
    16  H    3.127828   2.263900   4.202699   2.273439   3.856874
    17  H    2.838533   3.953704   2.118571   2.777915   3.555083
    18  H    3.506504   4.529821   2.100095   4.134459   4.083780
    19  H    4.609104   3.495020   4.523760   5.320630   5.308740
    20  H    3.966649   2.799772   4.128153   4.153646   4.884815
                    6          7          8          9         10
     6  C    0.000000
     7  C    2.652576   0.000000
     8  C    3.695238   4.075175   0.000000
     9  H    2.203057   4.191167   3.990716   0.000000
    10  H    2.263469   4.321166   2.750327   1.766683   0.000000
    11  H    2.169952   2.110172   4.563768   2.745794   3.703922
    12  H    3.857359   2.934568   2.073297   4.341873   3.875222
    13  C    3.103628   1.327872   4.575948   5.054855   4.911981
    14  H    3.595699   1.088062   4.455418   4.789064   5.040653
    15  H    1.089979   2.809503   3.440731   3.068270   2.483305
    16  H    1.091613   3.284622   4.760324   2.510996   2.953442
    17  H    3.584105   4.634324   1.082993   3.668659   2.115552
    18  H    4.669007   4.695458   1.082070   5.070213   3.786917
    19  H    4.184996   2.104922   5.253927   6.102559   5.923636
    20  H    2.802506   2.112396   4.659867   4.957935   4.654071
                   11         12         13         14         15
    11  H    0.000000
    12  H    3.710536   0.000000
    13  C    3.206551   3.746401   0.000000
    14  H    2.500585   2.842939   2.079166   0.000000
    15  H    3.062601   3.887294   2.842870   3.841037   0.000000
    16  H    2.472462   4.906280   3.591274   4.234917   1.773527
    17  H    4.836707   3.061388   5.070819   5.179560   3.298692
    18  H    5.474313   2.395275   5.059647   4.958970   4.286966
    19  H    4.100487   4.236056   1.082388   2.409416   3.867929
    20  H    3.556268   4.303936   1.083566   3.061884   2.284662
                   16         17         18         19         20
    16  H    0.000000
    17  H    4.551389   0.000000
    18  H    5.739237   1.838804   0.000000
    19  H    4.648792   5.859661   5.563420   0.000000
    20  H    3.148242   4.945511   5.194086   1.843138   0.000000
 Symmetry turned off by external request.
 Stoichiometry    C8H12
 Framework group  C1[X(C8H12)]
 Deg. of freedom    54
 Full point group                 C1      NOp   1
 Rotational constants (GHZ):           2.7929571           1.6970340           1.3163814
 Standard basis: def2TZVP (5D, 7F)
 The following finite field(s) will be applied:
 An electric field of             -0.0037 -0.0013  0.0031
   320 basis functions,   504 primitive gaussians,   360 cartesian basis functions
    30 alpha electrons       30 beta electrons
       nuclear repulsion energy       360.3735208664 Hartrees.
 NAtoms=   20 NActive=   20 NUniq=   20 SFac= 1.00D+00 NAtFMM=   60 NAOKFM=F Big=F
 Integral buffers will be    131072 words long.
 Raffenetti 2 integral format.
 Two-electron integral symmetry is turned off.
 One-electron integrals computed using PRISM.
   1 Symmetry operations used in ECPInt.
 ECPInt:  NShTT=    9316 NPrTT=   27240 LenC2=    9174 LenP2D=   21655.
 LDataN:  DoStor=T MaxTD1= 6 Len=  172
 NBasis=   320 RedAO= T EigKep=  3.43D-05  NBF=   320
 NBsUse=   320 1.00D-06 EigRej= -1.00D+00 NBFU=   320
 The nuclear repulsion energy is now       360.4462580261 hartrees.
 Initial guess from the checkpoint file:  "checkpoint.chk"
 B after Tr=     0.000989    0.001428    0.000425
         Rot=    0.999999   -0.000414    0.000233    0.000997 Ang=  -0.13 deg.
 Requested convergence on RMS density matrix=1.00D-08 within 128 cycles.
 Requested convergence on MAX density matrix=1.00D-06.
 Requested convergence on             energy=1.00D-06.
 No special actions if energy rises.
 SCF Done:  E(RB3LYP) =  -312.117305532     A.U. after    8 cycles
            NFock=  8  Conv=0.29D-08     -V/T= 2.0056
   1 Symmetry operations used in ECPInt.
 ECPInt:  NShTT=    9316 NPrTT=   27240 LenC2=    9174 LenP2D=   21655.
 LDataN:  DoStor=T MaxTD1= 7 Len=  274
 Calling FoFJK, ICntrl=      2127 FMM=F ISym2X=0 I1Cent= 0 IOpClX= 0 NMat=1 NMatS=1 NMatT=0.
 -------------------------------------------------------------------
 Center     Atomic                   Forces (Hartrees/Bohr)
 Number     Number              X              Y              Z
 -------------------------------------------------------------------
      1        6           0.000315605    0.000190497    0.000001440
      2        6          -0.000318396   -0.000014567    0.000064128
      3        6          -0.000012802   -0.000187471   -0.000029373
      4        6          -0.000104062    0.000048640    0.000024264
      5        1          -0.000006158   -0.000007088    0.000011521
      6        6           0.000073108   -0.000008347   -0.000042744
      7        6           0.000031083   -0.000015428   -0.000053017
      8        6           0.000000393    0.000012285    0.000000509
      9        1          -0.000006779   -0.000010738   -0.000025257
     10        1           0.000007940    0.000003828    0.000010977
     11        1           0.000003333   -0.000000232    0.000014479
     12        1           0.000003082    0.000001967   -0.000004600
     13        6           0.000016639   -0.000002824   -0.000019979
     14        1          -0.000004952   -0.000003927    0.000003623
     15        1           0.000007978   -0.000015308    0.000023759
     16        1           0.000013089    0.000007445   -0.000014154
     17        1           0.000001944   -0.000002349    0.000003107
     18        1           0.000001411   -0.000005835   -0.000000396
     19        1          -0.000019718    0.000007449    0.000023723
     20        1          -0.000002739    0.000002001    0.000007991
 -------------------------------------------------------------------
 Cartesian Forces:  Max     0.000318396 RMS     0.000071601
 -----------------------------------------------------------------------------------------------
                       Internal Coordinate Forces (Hartree/Bohr or radian)
  Cent   Atom   N1       Length/X         N2         Alpha/Y        N3         Beta/Z          J
 -----------------------------------------------------------------------------------------------
      1  C 
      2  C        1   0.000008(     1)
      3  C        1   0.000008(     2)      2   0.000085(    20)
      4  C        1   0.000015(     3)      2  -0.000012(    21)      3   0.000285(    38)     0
      5  H        1  -0.000007(     4)      2  -0.000020(    22)      3  -0.000017(    39)     0
      6  C        2  -0.000001(     5)      1  -0.000081(    23)      3   0.000244(    40)     0
      7  C        2  -0.000008(     6)      1  -0.000045(    24)      6  -0.000014(    41)     0
[...]
 1,0.00115164,-0.00145864,-0.17370287,0.11995145,0.12025918,0.00096320,
 0.00132239,-0.00029520,-0.00296749,0.00011030,0.00116866,-0.00015090,0
 .00057818,0.00022971,-0.00077876,-0.00064599,-0.00081267,0.59060506,0.
 00726073,0.00519509,-0.00515675,-0.00166276,0.00023364,0.00399089,0.11
 328100,-0.33356790,-0.19572262,0.00083103,0.00045179,-0.00058452,-0.00
 215350,0.00155422,0.00086037,0.00068200,-0.00005061,0.00053026,-0.0000
 6890,-0.00058944,0.00027253,0.02427290,0.65582097,0.01163323,-0.010663
 35,-0.00344110,0.00038128,-0.00024260,0.00030759,0.11792098,-0.1988061
 9,-0.20671675,0.00014712,-0.00060462,-0.00015106,0.00051753,0.00071800
 ,-0.00041950,-0.00022338,0.00006376,0.00003006,0.00031360,0.00012956,0
 .00000921,-0.22365188,0.26080262,0.34842918,-0.01337036,0.00278485,0.0
 0042278,-0.00000180,0.00015098,0.00038884,0.00001019,-0.00271394,-0.00
 123553,-0.30087897,0.03834673,-0.01618763,0.00149794,0.00004106,0.0005
 6509,-0.00570224,0.00191590,-0.00034002,0.00016583,-0.00028754,-0.0003
 3975,0.00008934,-0.00009936,-0.00008122,0.32511453,-0.02946284,0.00362
 080,-0.00036233,0.00013978,-0.00072373,0.00022257,-0.00105787,-0.00465
 498,-0.00246203,0.03937800,-0.05146083,-0.00159152,0.00050163,0.001907
 00,0.00081539,0.00878097,-0.00270079,0.00103068,0.00030425,-0.00003650
 ,-0.00013873,0.00016330,-0.00011428,-0.00032708,-0.04066512,0.05533524
 ,0.00732932,-0.00147713,-0.00064675,0.00041916,0.00091833,-0.00027872,
 0.00116118,0.00150947,-0.00011817,-0.01581328,-0.00120593,-0.04744195,
 -0.00038627,-0.00058852,0.00074652,-0.03149890,0.00595428,-0.00222878,
 0.00011969,-0.00033927,-0.00011001,0.00018606,0.00008904,-0.00009764,0
 .01850474,-0.00169226,0.05068959,0.00542010,-0.00830892,-0.01032459,-0
 .00226048,-0.00193547,-0.00277268,0.00057991,0.00108751,0.00076489,-0.
 06840801,0.05479334,0.05016005,-0.00039861,-0.00083548,-0.00017122,0.0
 0102650,-0.00703272,-0.00591196,0.00063014,-0.00065975,-0.00067056,-0.
 00097800,-0.00098303,-0.00007574,-0.00853277,0.02306978,0.02084785,0.0
 7350853,0.00992198,-0.01397500,-0.01407024,-0.00245702,-0.00208242,-0.
 00083407,0.00249473,0.00167194,-0.00056078,0.05389592,-0.18582623,-0.1
 2059493,-0.00143610,-0.00225066,-0.00099693,-0.00509886,0.00655808,0.0
 0442965,0.00108127,0.00074055,-0.00072202,0.00000617,-0.00002003,0.000
 06392,0.00162854,-0.00258646,-0.00240747,-0.05914272,0.19536296,-0.006
 45674,0.00325123,0.00344354,-0.00266939,-0.00068799,-0.00330911,0.0009
 6409,-0.00129942,-0.00007962,0.04926309,-0.12055417,-0.15769650,0.0004
 7776,0.00100203,-0.00020029,0.00962336,-0.01835142,-0.01276426,0.00050
 722,-0.00129292,0.00044268,0.00051343,0.00033100,-0.00032723,-0.000171
 44,0.00215216,0.00227909,-0.05281746,0.13500424,0.16800320,-0.00291325
 ,0.00172376,0.00155358,-0.21455895,0.09994237,0.05880616,0.00095358,-0
 .00022384,0.00103444,-0.00008269,-0.00014678,0.00013634,0.00125139,-0.
 00056329,-0.00045803,0.00478555,-0.00339646,-0.00192475,-0.02577041,0.
 01402354,0.00362493,0.00003725,-0.00017018,-0.00002471,0.00016317,-0.0
 0001146,0.00001985,0.00003882,0.00018804,0.00023772,0.23493187,-0.0040
 8035,0.00257794,0.00366603,0.09688091,-0.10625342,-0.03883493,-0.00015
 010,0.00018784,0.00113750,0.00015084,0.00058004,0.00123134,-0.00031192
 ,0.00117642,-0.00064547,0.02624188,-0.01907490,-0.00778954,-0.00919889
 ,0.00714186,0.00390948,-0.00026470,0.00008997,0.00001239,-0.00038117,0
 .00000579,-0.00056613,-0.00027706,0.00003711,-0.00000992,-0.10678864,0
 .11664674,0.02631804,-0.01340774,-0.01639489,0.05738972,-0.03745457,-0
 .05754793,-0.00288510,-0.00222780,-0.00518973,-0.00004177,0.00090975,-
 0.00007252,0.00076560,0.00085259,0.00229819,-0.00402991,0.00370881,0.0
 0155849,-0.01850389,0.00849522,0.00344543,0.00149952,0.00024362,-0.000
 30485,-0.00036501,-0.00052645,-0.00009436,-0.00017239,0.00022098,-0.00
 001155,-0.05987202,0.04016579,0.07263643,-0.01449887,-0.02559149,-0.00
 282495,0.00068560,-0.00016912,-0.00015927,-0.12913862,-0.12276580,-0.0
 1727217,-0.00370776,0.00295851,0.00168548,0.00083231,0.00063768,-0.000
 61234,0.00005775,0.00002305,-0.00025834,-0.00004816,-0.00029666,0.0001
 0663,0.00997311,0.01235131,0.00443492,-0.00068671,-0.00123856,0.000429
 44,0.00026339,0.00004519,-0.00020634,-0.00004015,0.00006077,-0.0000084
 6,0.13442564,0.00042620,0.00171173,-0.00015248,-0.00026813,0.00033274,
 -0.00031342,-0.11871092,-0.23931037,-0.03854679,0.00013590,0.00113257,
 -0.00089706,-0.00095708,0.00046306,0.00041169,0.00010657,0.00011341,-0
 .00013347,-0.00027891,-0.00022411,-0.00024528,-0.01425889,-0.01931312,
 -0.00578600,-0.00000921,-0.00016593,0.00012777,0.00016206,0.00011425,-
 0.00003713,0.00005399,0.00001640,0.00015479,0.13123280,0.25496647,0.00
 780127,0.01111153,0.00274827,-0.00109892,0.00009566,0.00139366,-0.0157
 0117,-0.03706163,-0.05098226,0.00312486,-0.00081600,0.00008419,0.00015
 349,-0.00036801,0.00033781,-0.00020216,-0.00023716,0.00045881,0.000307
 06,0.00005076,-0.00031369,-0.00845452,-0.01872452,0.00142603,0.0004904
 9,0.00088215,-0.00022193,0.00000285,-0.00005204,0.00015240,-0.00009173
 ,-0.00008805,0.00008859,0.01176478,0.04853925,0.04417489,-0.00213792,-
 0.00003606,0.00419515,-0.01806556,0.01111549,-0.02537164,-0.00072252,-
 0.00031721,0.00070839,-0.00008200,0.00030908,-0.00042099,-0.00008164,-
 0.00012814,-0.00083671,0.00056886,0.00138711,-0.00004566,-0.25187686,0
 .13579760,-0.18772564,0.00090235,-0.00017056,-0.00008939,0.00006259,-0
 .00000011,-0.00012171,-0.00018063,-0.00043983,0.00003130,-0.00158151,-
 0.00109256,-0.00064052,0.00032047,0.00044686,-0.00027988,0.53037776,-0
 .00241613,-0.00035564,-0.00301262,-0.00278074,0.01333716,-0.00397330,-
 0.00040817,-0.00033979,0.00000308,0.00006205,-0.00015964,-0.00041234,-
 0.00013653,-0.00008777,-0.00047458,-0.00006601,0.00131112,0.00007764,0
 .12919187,-0.23132141,0.14156350,0.00004240,0.00021339,-0.00003260,0.0
 0005985,-0.00004919,0.00010041,0.00004873,-0.00008836,0.00000814,-0.00
 338860,-0.00003445,-0.00152564,0.00017421,-0.00006907,-0.00006388,-0.0
 0839042,0.67096970,-0.00034225,-0.00008045,0.00094302,-0.01733778,0.00
 783610,-0.00827889,-0.00077790,-0.00002128,-0.00008652,-0.00022734,0.0
 0039665,-0.00002700,-0.00003016,-0.00001833,-0.00033035,0.00131201,0.0
 0044157,-0.00034529,-0.18518548,0.14510776,-0.22712055,0.00019975,0.00
 001997,-0.00001686,-0.00001866,0.00006403,-0.00011627,-0.00002381,-0.0
 0023657,0.00005365,-0.00080601,-0.00116599,-0.00059246,0.00006960,-0.0
 0008754,-0.00004485,0.32466635,-0.13481088,0.38399740,0.00027985,-0.00
 018598,-0.00077579,-0.00180283,-0.02561592,0.00336331,-0.00006369,0.00
 016358,-0.00012417,0.00001250,-0.00086598,-0.00039334,-0.00008642,0.00
 010372,-0.00019139,-0.00246591,0.00119947,-0.00251913,-0.05836702,-0.0
 4602369,-0.00196843,0.00004569,-0.00003482,-0.00000426,-0.00005517,0.0
 0001667,-0.00005779,-0.00014437,0.00009416,-0.00042014,0.00087750,0.00
 076908,0.00081808,0.00020159,0.00002179,0.00001289,0.00642849,0.021385
 95,-0.00510098,0.05482300,-0.00019296,0.00002659,-0.00009225,-0.001368
 24,-0.01040177,0.00184816,-0.00054410,-0.00037427,0.00006461,0.0001181
 6,-0.00028717,-0.00026413,-0.00004110,-0.00002233,-0.00035007,-0.00146
 456,0.00205858,-0.00004735,-0.04161685,-0.30935567,0.03089397,0.000289
 30,0.00021006,-0.00004789,-0.00001991,0.00006416,-0.00005907,-0.000099
 57,-0.00004218,-0.00018939,-0.00074048,0.00047081,-0.00009276,0.000355
 65,0.00032812,-0.00018126,-0.00374956,-0.01600321,0.00234048,0.0472423
 2,0.33203900,0.00096432,0.00076463,0.00058136,-0.00288804,-0.01652825,
 0.00392636,-0.00003922,0.00001954,-0.00009800,0.00010132,0.00002529,0.
 00039605,-0.00010251,0.00004314,-0.00013479,-0.00323310,-0.00017131,0.
 00029318,-0.00282729,0.02807330,-0.04993434,0.00015532,0.00003448,-0.0
 0005217,0.00003825,0.00006074,-0.00001856,0.00003293,0.00009202,-0.000
 14259,-0.00026955,0.00037927,0.00040421,0.00024747,-0.00018953,-0.0005
 1702,0.00073447,0.02211083,0.00216100,0.01048505,-0.03592462,0.0426741
 2,-0.00046564,0.00002511,-0.00040481,0.00747754,-0.00241169,0.00127596
 ,-0.00022511,0.00005437,0.00045548,-0.00961507,0.00479210,-0.00151608,
 0.00006981,0.00017226,-0.00013590,-0.23486443,0.11975192,-0.00783672,-
 0.00008099,-0.00001777,-0.00088349,0.00004616,-0.00034772,0.00013085,0
 .00074834,0.00046790,-0.00208577,0.00107334,-0.00048211,0.00051991,0.0
 0059190,-0.00179273,-0.00032831,0.00006414,-0.00003504,0.00004268,-0.0
 0015698,-0.00002887,-0.00055097,0.00021651,0.00017476,0.00019869,0.252
 67130,-0.00040968,0.00007053,-0.00042821,0.02732562,-0.01784832,-0.000
 09870,0.00028134,-0.00021078,0.00004486,-0.00320640,0.00185554,-0.0004
 3747,-0.00026279,0.00013614,0.00009894,0.11889199,-0.12356868,0.010144
 89,0.00131577,0.00248900,0.00039209,-0.00032386,0.00036156,0.00011801,
 -0.00082273,0.00017839,-0.00108088,0.00008059,0.00085057,0.00052357,-0
 .00145438,-0.00562679,0.00146114,-0.00002413,-0.00001847,0.00000067,-0
 .00040682,-0.00011477,-0.00014428,0.00001158,0.00022237,0.00023849,-0.
 13048198,0.13337489,0.00011578,-0.00080539,-0.00036062,0.00621529,-0.0
 0385240,-0.00026950,-0.00006543,0.00055563,0.00023325,-0.02754507,0.01
 605929,-0.00271829,0.00033556,-0.00007428,0.00006863,-0.00721903,0.009
 53191,-0.04641868,-0.00012375,0.00071168,0.00055326,0.00025578,-0.0001
 1072,-0.00010672,-0.00123879,0.00219583,-0.00531909,0.00016224,-0.0009
 9880,0.00249244,-0.00069964,-0.00173555,-0.00010518,0.00010627,-0.0000
 3618,-0.00009081,0.00014312,-0.00067483,-0.00007082,0.00002696,0.00020
 016,0.00011773,0.01242576,-0.00878567,0.05145790,0.00103241,0.00000182
 ,-0.00167108,-0.00377522,0.00239161,0.00218326,0.00020542,0.00046731,-
 0.00008359,0.00875030,0.00435971,-0.00710800,0.00006393,0.00043339,0.0
 0023703,-0.16717463,-0.06059833,0.11367931,0.00011333,-0.00084590,0.00
 033411,0.00007442,-0.00015681,0.00000592,0.00130278,-0.00045346,0.0010
 0079,0.00002003,-0.00001170,-0.00073427,0.00116360,0.00008400,-0.00034
 139,0.00009526,-0.00002148,0.00000993,0.00014787,-0.00035909,-0.000155
 73,-0.00020419,-0.00015546,-0.00025873,-0.01742513,-0.00997566,0.01783
 262,0.17583994,-0.00014678,-0.00447585,0.00266803,-0.01896280,-0.00478
 281,0.01825900,0.00089601,-0.00018092,-0.00007930,0.00233490,-0.002045
 10,0.00023897,-0.00015798,-0.00030458,0.00137166,-0.06005610,-0.077686
 14,0.05511416,0.00102966,-0.00180796,0.00166708,-0.00031092,0.00031391
 ,0.00002179,0.00016176,0.00065106,0.00065852,-0.00012407,-0.00010289,-
 0.00066322,0.00049688,0.00193652,-0.00065046,0.00004230,-0.00000037,-0
 .00006095,-0.00029634,0.00027030,-0.00022887,-0.00033818,-0.00044380,-
 0.00072619,0.01109398,0.00713899,-0.01194403,0.06460954,0.08128428,-0.
 00130872,0.00240737,-0.00320759,-0.00608715,0.00037659,0.00272238,-0.0
 0032383,0.00037894,0.00037043,0.01978492,0.00703945,-0.01158338,0.0007
 3304,0.00104095,-0.00021715,0.11372473,0.05508041,-0.15871387,-0.00018
 287,-0.00094689,0.00032098,0.00007451,-0.00011002,-0.00005086,-0.00033
 430,-0.00060701,0.00250060,-0.00021834,0.00103904,-0.00235246,-0.00008
 356,0.00102640,0.00062941,0.00021486,-0.00001385,0.00005130,0.00012994
 ,0.00015572,0.00014125,0.00001922,-0.00021317,-0.00036034,-0.00092135,
 -0.00112084,0.00150589,-0.12510905,-0.06567859,0.16820157,-0.00106100,
 0.00124987,-0.00253507,0.00051573,-0.00022088,-0.00022589,0.01100673,0
 .01021831,0.00275276,-0.00110514,0.00045232,0.00084710,-0.00029985,0.0
 0000507,0.00021336,0.00013335,-0.00009226,-0.00014330,0.00019018,0.000
 02441,0.00010799,-0.11749040,-0.11788459,-0.01950698,0.00015249,0.0000
 4848,-0.00023893,-0.00179873,-0.00033132,0.00128783,0.00004758,0.00001
 990,-0.00019323,0.00150390,0.00037541,0.00510289,-0.00011652,0.0000182
 3,-0.00000453,-0.00000025,-0.00004895,-0.00001042,0.00001740,0.0000342
 8,-0.00010536,-0.00005177,-0.00000035,-0.00011441,0.11659279,-0.000870
 65,-0.00101738,0.00368960,-0.00040912,-0.00001856,0.00023374,-0.012556
 94,-0.01783038,-0.00581352,-0.00025933,0.00014609,0.00044527,0.0004876
 0,-0.00017012,-0.00033968,-0.00011445,0.00016228,-0.00008116,-0.000078
 36,0.00004077,-0.00016123,-0.11478676,-0.25405126,-0.05373071,-0.00002
 626,0.00037627,0.00014923,-0.00013057,0.00101596,0.00047436,0.00001812
 ,-0.00002336,0.00010844,0.00051931,0.00010496,-0.00604188,0.00012918,-
 0.00001822,-0.00002162,0.00002339,0.00010700,0.00008422,0.00005876,-0.
 00005429,-0.00003756,0.00000113,0.00002696,0.00005989,0.12819931,0.271
 54848,-0.00297075,0.00286686,-0.00455022,0.00083690,-0.00026431,-0.000
 09527,-0.00912471,-0.01660531,0.00214551,0.00000523,-0.00046206,-0.000
 83344,-0.00084928,0.00043233,0.00056016,0.00002341,-0.00007228,-0.0001
 1344,0.00009589,-0.00014143,0.00019065,-0.01815065,-0.05284518,-0.0539
 8202,-0.00017717,0.00019784,0.00023370,0.00114959,0.00043213,0.0000918
 2,0.00005428,0.00010152,-0.00029254,0.00528011,-0.00585390,0.00631118,
 -0.00005971,0.00007397,0.00006726,0.00003774,0.00003362,-0.00001872,-0
 .00005016,0.00008541,-0.00022605,-0.00006998,0.00006617,0.00005668,0.0
 1869690,0.06240874,0.04573245,0.00337834,-0.00128118,0.00440122,-0.001
 24191,0.00039077,0.00036822,-0.00832122,-0.00289019,0.00434870,0.00032
 887,0.00015694,-0.00008930,0.00065867,0.00004463,-0.00038899,0.0000106
 6,0.00013690,0.00000155,-0.00017710,-0.00000122,-0.00016637,-0.2897470
 3,-0.03498147,0.10819039,-0.00008011,0.00005178,0.00007767,0.00016598,
 0.00015345,-0.00004605,-0.00006121,-0.00008656,0.00041735,-0.00026742,
 0.00162196,-0.00302120,0.00008876,-0.00001527,0.00001197,0.00001734,0.
 00003070,0.00002504,-0.00000131,-0.00004142,-0.00000729,-0.00000794,-0
 .00001134,0.00002813,-0.00824704,-0.00017974,0.00527206,0.30349809,-0.
 00198139,-0.00042824,-0.00586515,0.00146949,-0.00045951,-0.00028911,0.
 02388484,0.00453085,-0.01126636,-0.00051943,-0.00052371,-0.00013740,-0
 .00034599,0.00002617,0.00038267,-0.00015003,-0.00001785,-0.00006232,0.
 00022883,0.00009205,0.00018630,-0.03923056,-0.05683450,0.00830567,-0.0
 0003341,0.00024567,0.00015586,0.00021176,0.00056550,0.00026745,0.00010
 315,0.00008674,-0.00051551,0.00163889,-0.00019915,0.00305567,-0.000092
 10,0.00001278,-0.00000472,0.00001798,-0.00003339,-0.00002258,-0.000001
 25,0.00003079,-0.00006460,-0.00000091,0.00006141,0.00005279,-0.0220783
 0,-0.00037037,0.00950875,0.03690386,0.05320128,0.00366374,-0.00648252,
 0.00803383,-0.00136175,0.00022693,0.00049916,0.01772976,0.00217178,-0.
 00405903,-0.00015300,-0.00017979,0.00026308,0.00222048,-0.00022186,-0.
 00129768,0.00006302,0.00006969,0.00011053,-0.00015021,0.00014289,-0.00
 018648,0.10646803,0.00620948,-0.08452940,-0.00003333,0.00009987,0.0000
 7163,0.00006023,0.00020623,-0.00003708,-0.00017363,-0.00006912,0.00033
 918,-0.00296572,0.00300551,-0.00501825,-0.00003945,-0.00005217,-0.0000
 7632,0.00000521,0.00002151,0.00003015,-0.00001918,-0.00003848,0.000000
 62,0.00001779,0.00001297,-0.00003212,-0.00592677,-0.00143702,0.0047492
 4,-0.11942618,-0.00368513,0.08119909,-0.00174318,-0.00019231,-0.000184
 49,0.00501273,0.00139626,-0.00675383,-0.00027178,-0.00002607,0.0002260
 4,0.00023615,-0.00004684,-0.00040673,-0.00007886,-0.00008551,-0.000356
 62,0.00042022,0.00005123,0.00027699,-0.01224376,-0.01023575,-0.0095553
 5,0.00010011,0.00000539,-0.00001870,-0.00003326,0.00002089,0.00003930,
 -0.00009484,-0.00014906,0.00000579,0.00062860,0.00035951,0.00057402,0.
 00005881,0.00004155,0.00001359,-0.21046493,-0.09921786,-0.10986674,-0.
 00199709,0.00114415,0.00417187,0.00002880,-0.00007004,0.00001260,-0.00
 004890,-0.00004766,0.00005726,-0.00002039,0.00000617,0.00000080,0.0000
 1684,-0.00001489,0.00000412,0.21985326,0.00065267,0.00010667,0.0000154
 5,-0.00043344,-0.00158094,0.00336580,0.00012962,0.00002620,-0.00009671
 ,-0.00028974,0.00019714,0.00025229,0.00003328,0.00004830,0.00013150,0.
 00015598,-0.00004458,-0.00036641,0.01558084,0.01017843,0.01033587,-0.0
 0006447,0.00000654,0.00000219,-0.00001872,0.00005221,-0.00013958,0.000
 05589,0.00007305,0.00000940,0.00004168,0.00004883,-0.00016088,-0.00001
 799,-0.00000792,-0.00000819,-0.10256088,-0.11517520,-0.05860944,0.0009
 7532,0.00108739,-0.00146293,-0.00019099,0.00046949,0.00023937,0.000041
 27,0.00007449,-0.00000764,0.00001060,0.00000448,0.00001638,-0.00000237
 ,0.00001581,-0.00001027,0.10676049,0.11340068,0.00116704,0.00033309,0.
 00044483,-0.00655254,0.00399695,0.00748101,0.00010234,-0.00003978,-0.0
 0016363,-0.00004462,-0.00007526,0.00029681,0.00008128,0.00004317,0.000
 15398,-0.00017416,0.00046853,0.00009473,-0.01559340,-0.00982004,-0.006
 03793,0.00005485,-0.00002494,-0.00003451,0.00005478,0.00002801,-0.0000
 0624,0.00006930,0.00005826,-0.00005237,-0.00193753,-0.00064000,-0.0014
 4880,-0.00003743,-0.00000742,-0.00007942,-0.10800880,-0.05512088,-0.10
 216023,0.00429023,-0.00128826,-0.00450274,0.00020232,-0.00008260,0.000
 01792,-0.00005005,-0.00004542,-0.00005639,0.00002120,0.00000731,0.0000
 1546,0.00000093,0.00000111,-0.00004476,0.12295742,0.05947779,0.1020794
 7,0.00087622,0.00008429,0.00024366,-0.00191286,0.00135744,0.00408385,0
 .00014175,0.00004924,-0.00019453,-0.00002632,0.00014797,0.00012730,0.0
 0000631,0.00001187,0.00017487,-0.00079018,-0.00018165,0.00007634,0.007
 27392,0.01982890,-0.00350205,-0.00011783,0.00002934,0.00000044,0.00003
 420,-0.00005402,0.00006759,0.00006971,0.00003928,0.00009033,-0.0004626
 4,-0.00014221,-0.00040032,-0.00009428,-0.00008543,0.00002281,-0.053430
 09,-0.03377558,-0.00583135,0.00228450,0.00068669,-0.00752585,-0.000170
 58,-0.00046127,-0.00062763,-0.00012152,-0.00021251,-0.00008300,0.00003
 094,-0.00003080,-0.00000049,-0.00001125,-0.00001053,0.00001683,0.00064
 148,-0.02085905,0.00339683,0.04577853,-0.00021427,-0.00009339,-0.00010
 207,-0.00086050,-0.00049016,-0.00249463,-0.00000975,-0.00008752,-0.000
 01323,-0.00015619,0.00042926,-0.00001645,-0.00004082,0.00000917,-0.000
 03239,0.00007765,0.00018464,-0.00052447,-0.00194218,-0.01528955,0.0031
 8891,-0.00001944,0.00008999,0.00000316,-0.00001229,0.00005611,-0.00010
 667,0.00001969,-0.00001574,0.00006203,0.00029257,0.00000989,0.00024065
 ,0.00006408,0.00002481,-0.00003212,-0.03150471,-0.32229771,0.03922338,
 0.00103956,0.00034972,0.00309948,-0.00080102,0.00026384,-0.00037386,0.
 00018902,0.00007250,0.00004046,0.00000046,0.00002069,0.00002073,-0.000
 00022,-0.00000232,0.00000949,0.00030035,-0.00898108,0.00273038,0.03357
 802,0.34574684,-0.00100475,0.00005323,-0.00019973,0.00426839,-0.000839
 02,-0.00446865,-0.00010304,0.00002092,0.00026713,0.00051887,0.00004293
 ,-0.00040847,-0.00001970,-0.00009298,-0.00011188,-0.00041470,0.0000463
 9,0.00008103,0.00186544,0.02040271,0.00280906,0.00010907,-0.00010499,0
 .00002858,0.00005788,-0.00004185,0.00017736,-0.00009118,-0.00007263,0.
 00001422,0.00087386,-0.00008502,0.00065488,0.00000545,0.00006103,0.000
 04108,-0.00696859,0.03606045,-0.04809715,-0.00750327,0.00334770,0.0051
 9511,-0.00051891,-0.00089096,-0.00076188,0.00028114,-0.00000133,0.0000
 7368,-0.00002515,0.00000358,-0.00004242,0.00000215,-0.00000339,-0.0000
 1540,-0.00119734,-0.01298397,0.00400281,0.00986438,-0.04492280,0.04076
 063\\-0.00031560,-0.00019049,-0.00000140,0.00031834,0.00001459,-0.0000
 6411,0.00001286,0.00018745,0.00002933,0.00010406,-0.00004865,-0.000024
 24,0.00000614,0.00000710,-0.00001153,-0.00007314,0.00000838,0.00004277
 ,-0.00003105,0.00001542,0.00005303,-0.00000039,-0.00001227,-0.00000051
 ,0.00000677,0.00001074,0.00002525,-0.00000793,-0.00000385,-0.00001100,
 -0.00000330,0.00000021,-0.00001450,-0.00000309,-0.00000197,0.00000461,
 -0.00001665,0.00000286,0.00001996,0.00000495,0.00000390,-0.00000362,-0
 .00000796,0.00001529,-0.00002376,-0.00001307,-0.00000744,0.00001413,-0
 .00000194,0.00000236,-0.00000311,-0.00000143,0.00000583,0.00000041,0.0
 0001970,-0.00000746,-0.00002373,0.00000274,-0.00000200,-0.00000799\\\@


 A SOLDIER'S LIFE IS A LIFE OF HONOR, BUT A DOG WOULD NOT LEAD IT.
 -- PRINCE RUPERT, FOUNDER OF THE HUDSON'S BAY COMPANY
 Job cpu time:       0 days  1 hours 50 minutes 12.4 seconds.
 Elapsed time:       0 days  0 hours 10 minutes  5.4 seconds.
 File lengths (MBytes):  RWF=    162 Int=      0 D2E=      0 Chk=     32 Scr=      1
 Normal termination of Gaussian 16 at Fri Jun 10 23:27:37 2022.
