 Entering Gaussian System, Link 0=g16
 Input=int_initalOpt_zmat_sp.gjf
 Output=int_initalOpt_zmat_sp.out
 Initial command:
 /software/gaussian/g16-a03/l1.exe "/local_scratch/11174445/Gau-29473.inp" -scrdir="/local_scratch/11174445/"
 Entering Link 1 = /software/gaussian/g16-a03/l1.exe PID=     29474.
  
 Copyright (c) 1988,1990,1992,1993,1995,1998,2003,2009,2016,
            Gaussian, Inc.  All Rights Reserved.
  
 This is part of the Gaussian(R) 16 program.  It is based on
 the Gaussian(R) 09 system (copyright 2009, Gaussian, Inc.),
 the Gaussian(R) 03 system (copyright 2003, Gaussian, Inc.),
 the Gaussian(R) 98 system (copyright 1998, Gaussian, Inc.),
 the Gaussian(R) 94 system (copyright 1995, Gaussian, Inc.),
 the Gaussian 92(TM) system (copyright 1992, Gaussian, Inc.),
 the Gaussian 90(TM) system (copyright 1990, Gaussian, Inc.),
 the Gaussian 88(TM) system (copyright 1988, Gaussian, Inc.),
 the Gaussian 86(TM) system (copyright 1986, Carnegie Mellon
 University), and the Gaussian 82(TM) system (copyright 1983,
 Carnegie Mellon University). Gaussian is a federally registered
 trademark of Gaussian, Inc.
  
 This software contains proprietary and confidential information,
 including trade secrets, belonging to Gaussian, Inc.
  
 This software is provided under written license and may be
 used, copied, transmitted, or stored only in accord with that
 written license.
  
 The following legend is applicable only to US Government
 contracts under FAR:
  
                    RESTRICTED RIGHTS LEGEND
  
 Use, reproduction and disclosure by the US Government is
 subject to restrictions as set forth in subparagraphs (a)
 and (c) of the Commercial Computer Software - Restricted
 Rights clause in FAR 52.227-19.
  
 Gaussian, Inc.
 340 Quinnipiac St., Bldg. 40, Wallingford CT 06492
  
  
 ---------------------------------------------------------------
 Warning -- This program may not be used in any manner that
 competes with the business of Gaussian, Inc. or will provide
 assistance to any competitor of Gaussian, Inc.  The licensee
 of this program is prohibited from giving any competitor of
 Gaussian, Inc. access to this program.  By using this program,
 the user acknowledges that Gaussian, Inc. is engaged in the
 business of creating and licensing software in the field of
 computational chemistry and represents and warrants to the
 licensee that it is not a competitor of Gaussian, Inc. and that
 it will not use this program in any manner prohibited above.
 ---------------------------------------------------------------
  

 Cite this work as:
 Gaussian 16, Revision A.03,
 M. J. Frisch, G. W. Trucks, H. B. Schlegel, G. E. Scuseria, 
 M. A. Robb, J. R. Cheeseman, G. Scalmani, V. Barone, 
 G. A. Petersson, H. Nakatsuji, X. Li, M. Caricato, A. V. Marenich, 
 J. Bloino, B. G. Janesko, R. Gomperts, B. Mennucci, H. P. Hratchian, 
 J. V. Ortiz, A. F. Izmaylov, J. L. Sonnenberg, D. Williams-Young, 
 F. Ding, F. Lipparini, F. Egidi, J. Goings, B. Peng, A. Petrone, 
 T. Henderson, D. Ranasinghe, V. G. Zakrzewski, J. Gao, N. Rega, 
 G. Zheng, W. Liang, M. Hada, M. Ehara, K. Toyota, R. Fukuda, 
 J. Hasegawa, M. Ishida, T. Nakajima, Y. Honda, O. Kitao, H. Nakai, 
 T. Vreven, K. Throssell, J. A. Montgomery, Jr., J. E. Peralta, 
 F. Ogliaro, M. J. Bearpark, J. J. Heyd, E. N. Brothers, K. N. Kudin, 
 V. N. Staroverov, T. A. Keith, R. Kobayashi, J. Normand, 
 K. Raghavachari, A. P. Rendell, J. C. Burant, S. S. Iyengar, 
 J. Tomasi, M. Cossi, J. M. Millam, M. Klene, C. Adamo, R. Cammi, 
 J. W. Ochterski, R. L. Martin, K. Morokuma, O. Farkas, 
 J. B. Foresman, and D. J. Fox, Gaussian, Inc., Wallingford CT, 2016.
 
 ******************************************
 Gaussian 16:  ES64L-G16RevA.03 25-Dec-2016
                10-Jun-2022 
 ******************************************
 %nprocshared=12
 Will use up to   12 processors via shared memory.
 %chk=checkpoint.chk
 %mem=12GB
 --------------------------
 # sp B3LYP/Def2TZVP NoSymm
 --------------------------
 1/38=1,172=1/1;
 2/12=2,15=1,17=6,18=5,40=1/2;
 3/5=44,7=101,11=2,25=1,30=1,74=-5/1,2,3;
 4//1;
 5/5=2,38=5/2;
 6/7=2,8=2,9=2,10=2,28=1/1;
 99/5=1,9=1/99;
 ----------------------------
 int_initalOpt_zmat_AlignedSp
 ----------------------------
 Symbolic Z-matrix:
 Charge =  0 Multiplicity = 1
 H
 C                    1    R2
 C                    2    R3       1    A3
 O                    2    R4       1    A4       3    D4       0
 H                    2    R5       1    A5       3    D5       0
 C                    4    R6       2    A6       1    D6       0
 C                    3    R7       2    A7       1    D7       0
 C                    3    R8       2    A8       7    D8       0
 H                    6    R9       4    A9       2    D9       0
 H                    6    R10      4    A10      9    D10      0
 C                    7    R11      3    A11      2    D11      0
 H                    7    R12      3    A12      11   D12      0
 H                    8    R13      3    A13      2    D13      0
 C                    8    R14      3    A14      13   D14      0
 C                    11   R15      7    A15      3    D15      0
 H                    11   R16      7    A16      15   D16      0
 H                    14   R17      8    A17      3    D17      0
 H                    14   R18      8    A18      17   D18      0
 H                    14   R19      8    A19      17   D19      0
 H                    15   R20      11   A20      7    D20      0
 H                    15   R21      11   A21      20   D21      0
       Variables:
  R2                    1.09915                  
  R3                    1.51627                  
  R4                    1.42565                  
  R5                    1.09206                  
  R6                    1.42273                  
  R7                    1.5266                   
  R8                    1.3278                   
  R9                    1.08929                  
  R10                   1.09849                  
  R11                   1.499                    
  R12                   1.09959                  
  R13                   1.086                    
  R14                   1.49924                  
  R15                   1.32762                  
  R16                   1.08619                  
  R17                   1.09003                  
  R18                   1.09441                  
  R19                   1.0942                   
  R20                   1.08303                  
  R21                   1.08257                  
  A3                  110.97614                  
  A4                  110.23605                  
  A5                  108.05106                  
  A6                  107.34275                  
  A7                  106.13511                  
  A8                  126.50411                  
  A9                  107.86764                  
  A10                 110.50275                  
  A11                 115.93038                  
  A12                 107.04803                  
  A13                 118.75148                  
  A14                 125.78011                  
  A15                 126.55846                  
  A16                 115.12804                  
  A17                 112.56644                  
  A18                 110.97917                  
  A19                 110.93573                  
  A20                 122.69595                  
  A21                 120.97619                  
  D4                  117.36482                  
  D5                 -125.08575                  
  D6                  -93.97585                  
  D7                  116.46951                  
  D8                 -179.05065                  
  D9                 -160.68102                  
  D10                -118.99562                  
  D11                -146.56692                  
  D12                -120.09737                  
  D13                 178.67023                  
  D14                -179.96343                  
  D15                 127.61282                  
  D16                 178.32528                  
  D17                   1.2261                   
  D18                -120.85814                  
  D19                 120.9069                   
  D20                  -0.9114                   
  D21                 179.9403                   
 
                          Input orientation:                          
 ---------------------------------------------------------------------
 Center     Atomic      Atomic             Coordinates (Angstroms)
 Number     Number       Type             X           Y           Z
 ---------------------------------------------------------------------
      1          1           0        0.000000    0.000000    0.000000
      2          6           0        0.000000    0.000000    1.099154
      3          6           0        1.415784    0.000000    1.641946
      4          8           0       -0.614860    1.187970    1.592272
      5          1           0       -0.596824   -0.849644    1.437545
      6          6           0        0.420384    2.135170    1.827312
      7          6           0        1.577928    1.312736    2.404135
      8          6           0        2.329259   -0.947405    1.465794
      9          1           0        0.032483    2.892321    2.507619
     10          1           0        0.719371    2.619442    0.887754
     11          6           0        2.944533    1.927575    2.367326
     12          1           0        1.333433    1.106947    3.456263
     13          1           0        3.316724   -0.807325    1.895542
     14          6           0        2.130185   -2.227593    0.711334
     15          6           0        3.241637    3.174467    2.021534
     16          1           0        3.752717    1.274708    2.684189
     17          1           0        1.131469   -2.309331    0.282309
     18          1           0        2.285859   -3.093946    1.361672
     19          1           0        2.853422   -2.316910   -0.104889
     20          1           0        2.490974    3.889073    1.707206
     21          1           0        4.264001    3.529864    2.042256
 ---------------------------------------------------------------------
                    Distance matrix (angstroms):
                    1          2          3          4          5
     1  H    0.000000
     2  C    1.099154   0.000000
     3  C    2.168047   1.516267   0.000000
     4  O    2.079581   1.425655   2.353138   0.000000
     5  H    1.773311   1.092063   2.194143   2.043560   0.000000
     6  C    2.841609   2.294752   2.363077   1.422730   3.177380
     7  C    3.161170   2.432305   1.526597   2.341582   3.215545
     8  C    2.910597   2.541151   1.327797   3.639185   2.927852
     9  H    3.828149   3.217196   3.320908   2.040030   3.942510
    10  H    2.857810   2.724640   2.813410   2.079815   3.750893
    11  C    4.241468   3.740866   2.564916   3.717123   4.595503
    12  H    3.866411   2.925635   2.126937   2.697569   3.410185
    13  H    3.904550   3.505234   2.080783   4.419336   3.940483
    14  C    3.163203   3.106487   2.517653   4.469608   3.140494
    15  C    4.967097   4.629928   3.681720   4.359244   5.591806
    16  H    4.786714   4.268501   2.858742   4.502836   4.998550
    17  H    2.587070   2.698234   2.694895   4.122716   2.540129
    18  H    4.080662   3.855719   3.226157   5.177080   3.654109
    19  H    3.677104   3.867791   3.238257   5.214741   4.054155
    20  H    4.923860   4.658279   4.035490   4.117690   5.662389
    21  H    5.900208   5.615255   4.553299   5.430492   6.570646
                    6          7          8          9         10
     6  C    0.000000
     7  C    1.532654   0.000000
     8  C    3.643730   2.559926   0.000000
     9  H    1.089295   2.212283   4.593918   0.000000
    10  H    1.098491   2.178075   3.955790   1.780517   0.000000
    11  C    2.589602   1.498997   3.075197   3.070904   2.760282
    12  H    2.131756   1.099591   3.028862   2.404154   3.043346
    13  H    4.129373   2.788681   1.085998   4.984803   4.416403
    14  C    4.816900   3.962890   1.499240   5.817260   5.051264
    15  C    3.012861   2.525936   4.258064   3.257999   2.820520
    16  H    3.546699   2.193076   2.906632   4.060540   3.773151
    17  H    4.758809   4.221474   2.165682   5.763415   4.982890
    18  H    5.571397   4.583312   2.149503   6.498176   5.943172
    19  H    5.429004   4.593084   2.148799   6.474487   5.468737
    20  H    2.716237   2.820793   4.845199   2.770985   2.328527
    21  H    4.094480   3.501657   4.911362   4.304506   3.837466
                   11         12         13         14         15
    11  C    0.000000
    12  H    2.110653   0.000000
    13  H    2.800141   3.167607   0.000000
    14  C    4.546526   4.391880   2.197131   0.000000
    15  C    1.327623   3.158216   3.984492   5.668704   0.000000
    16  H    1.086185   2.545030   2.268682   4.334845   2.075908
    17  H    5.058248   4.667519   3.103849   1.090035   6.127785
    18  H    5.163416   4.789774   2.564437   1.094414   6.375102
    19  H    4.912821   5.168653   2.548572   1.094198   5.901492
    20  H    2.118714   3.484153   4.772158   6.207700   1.083032
    21  H    2.100952   4.056868   4.441855   6.282742   1.082574
                   16         17         18         19         20
    16  H    0.000000
    17  H    5.048297   0.000000
    18  H    4.794358   1.764443   0.000000
    19  H    4.635452   1.764965   1.754057   0.000000
    20  H    3.062906   6.503753   6.994571   6.475283   0.000000
    21  H    2.399837   6.856119   6.946302   6.386293   1.839814
                   21
    21  H    0.000000
 Symmetry turned off by external request.
 Stoichiometry    C8H12O
 Framework group  C1[X(C8H12O)]
 Deg. of freedom    57
 Full point group                 C1      NOp   1
 Rotational constants (GHZ):           2.1699049           1.3231418           0.8735132
 Standard basis: def2TZVP (5D, 7F)
   351 basis functions,   555 primitive gaussians,   396 cartesian basis functions
    34 alpha electrons       34 beta electrons
       nuclear repulsion energy       444.5741881660 Hartrees.
 NAtoms=   21 NActive=   21 NUniq=   21 SFac= 1.00D+00 NAtFMM=   60 NAOKFM=F Big=F
 Integral buffers will be    131072 words long.
 Raffenetti 2 integral format.
 Two-electron integral symmetry is turned off.
 One-electron integrals computed using PRISM.
   1 Symmetry operations used in ECPInt.
 ECPInt:  NShTT=   10878 NPrTT=   32112 LenC2=   10560 LenP2D=   24705.
 LDataN:  DoStor=T MaxTD1= 6 Len=  172
 NBasis=   351 RedAO= T EigKep=  6.87D-05  NBF=   351
 NBsUse=   351 1.00D-06 EigRej= -1.00D+00 NBFU=   351
 ExpMin= 9.52D-02 ExpMax= 2.70D+04 ExpMxC= 9.22D+02 IAcc=3 IRadAn=         5 AccDes= 0.00D+00
 Harris functional with IExCor=  402 and IRadAn=       5 diagonalized for initial guess.
 HarFok:  IExCor=  402 AccDes= 0.00D+00 IRadAn=         5 IDoV= 1 UseB2=F ITyADJ=14
 ICtDFT=  3500011 ScaDFX=  1.000000  1.000000  1.000000  1.000000
 FoFCou: FMM=F IPFlag=           0 FMFlag=      100000 FMFlg1=           0
         NFxFlg=           0 DoJE=T BraDBF=F KetDBF=T FulRan=T
         wScrn=  0.000000 ICntrl=       500 IOpCl=  0 I1Cent=   200000004 NGrid=           0
         NMat0=    1 NMatS0=      1 NMatT0=    0 NMatD0=    1 NMtDS0=    0 NMtDT0=    0
 Symmetry not used in FoFCou.
 Requested convergence on RMS density matrix=1.00D-08 within 128 cycles.
 Requested convergence on MAX density matrix=1.00D-06.
 Requested convergence on             energy=1.00D-06.
 No special actions if energy rises.
 Integral accuracy reduced to 1.0D-05 until final iterations.
 Initial convergence to 1.0D-05 achieved.  Increase integral accuracy.
 SCF Done:  E(RB3LYP) =  -387.391421198     A.U. after   14 cycles
            NFock= 14  Conv=0.51D-08     -V/T= 2.0053

 **********************************************************************

            Population analysis using the SCF density.

 **********************************************************************

 Alpha  occ. eigenvalues --  -19.12781 -10.21971 -10.21703 -10.18887 -10.18274
 Alpha  occ. eigenvalues --  -10.18083 -10.17157 -10.17130 -10.16873  -1.04183
 Alpha  occ. eigenvalues --   -0.82923  -0.79059  -0.73403  -0.72612  -0.64677
 Alpha  occ. eigenvalues --   -0.62880  -0.56557  -0.53108  -0.50643  -0.48530
 Alpha  occ. eigenvalues --   -0.46631  -0.45152  -0.43154  -0.41954  -0.41340
 Alpha  occ. eigenvalues --   -0.40124  -0.38922  -0.38278  -0.36454  -0.34031
 Alpha  occ. eigenvalues --   -0.31955  -0.27092  -0.26316  -0.24461
 Alpha virt. eigenvalues --   -0.00091   0.00301   0.03545   0.05189   0.05550
 Alpha virt. eigenvalues --    0.06704   0.08174   0.08670   0.10044   0.10933
 Alpha virt. eigenvalues --    0.11158   0.11285   0.13107   0.13538   0.14031
 Alpha virt. eigenvalues --    0.16194   0.17268   0.18229   0.18523   0.20068
 Alpha virt. eigenvalues --    0.20630   0.21153   0.22799   0.23347   0.24044
 Alpha virt. eigenvalues --    0.24609   0.26122   0.27344   0.28122   0.29179
 Alpha virt. eigenvalues --    0.30909   0.32501   0.33192   0.33844   0.35334
 Alpha virt. eigenvalues --    0.36444   0.36887   0.38760   0.39281   0.39630
 Alpha virt. eigenvalues --    0.40326   0.40851   0.41719   0.41842   0.42255
 Alpha virt. eigenvalues --    0.43802   0.44779   0.45127   0.45389   0.46291
 Alpha virt. eigenvalues --    0.47005   0.47756   0.48275   0.48851   0.50443
 Alpha virt. eigenvalues --    0.51058   0.52355   0.54419   0.56461   0.57541
 Alpha virt. eigenvalues --    0.59154   0.59405   0.61296   0.62206   0.63849
 Alpha virt. eigenvalues --    0.65625   0.66649   0.67425   0.70601   0.71826
 Alpha virt. eigenvalues --    0.72597   0.74910   0.77544   0.81086   0.81533
 Alpha virt. eigenvalues --    0.82615   0.84276   0.86575   0.87398   0.90027
 Alpha virt. eigenvalues --    0.90763   0.93417   0.94337   0.95199   0.98479
 Alpha virt. eigenvalues --    0.99126   1.00516   1.02551   1.02902   1.04306
 Alpha virt. eigenvalues --    1.06400   1.06805   1.09165   1.10983   1.11268
 Alpha virt. eigenvalues --    1.13357   1.14810   1.16267   1.18991   1.20476
 Alpha virt. eigenvalues --    1.21766   1.24752   1.25719   1.27340   1.30801
 Alpha virt. eigenvalues --    1.31438   1.35091   1.36350   1.39773   1.43353
 Alpha virt. eigenvalues --    1.45601   1.46480   1.47957   1.49231   1.51111
 Alpha virt. eigenvalues --    1.52570   1.52710   1.54477   1.56272   1.56469
 Alpha virt. eigenvalues --    1.57358   1.58829   1.59763   1.60678   1.61169
 Alpha virt. eigenvalues --    1.62708   1.63538   1.68355   1.69770   1.71158
 Alpha virt. eigenvalues --    1.74339   1.74613   1.76437   1.79522   1.80746
 Alpha virt. eigenvalues --    1.81877   1.83702   1.84382   1.87293   1.89030
 Alpha virt. eigenvalues --    1.89397   1.92432   1.95291   1.97118   1.98897
 Alpha virt. eigenvalues --    1.99866   2.01082   2.04255   2.05589   2.07294
 Alpha virt. eigenvalues --    2.09818   2.10794   2.12943   2.14282   2.16786
 Alpha virt. eigenvalues --    2.20514   2.21670   2.25392   2.27301   2.28453
 Alpha virt. eigenvalues --    2.31906   2.32090   2.35136   2.35644   2.37297
 Alpha virt. eigenvalues --    2.38748   2.40698   2.41794   2.42947   2.45569
 Alpha virt. eigenvalues --    2.45680   2.48319   2.49240   2.51935   2.52059
 Alpha virt. eigenvalues --    2.54028   2.55077   2.56034   2.56695   2.58536
 Alpha virt. eigenvalues --    2.58716   2.60983   2.63021   2.64345   2.67488
 Alpha virt. eigenvalues --    2.69099   2.69357   2.73702   2.74932   2.77228
 Alpha virt. eigenvalues --    2.79319   2.80262   2.81718   2.83282   2.85865
 Alpha virt. eigenvalues --    2.86509   2.89441   2.91178   2.91488   2.93427
 Alpha virt. eigenvalues --    2.94207   2.95860   2.97405   2.98896   2.99710
 Alpha virt. eigenvalues --    3.02720   3.04342   3.05664   3.06809   3.07529
 Alpha virt. eigenvalues --    3.08958   3.10647   3.12066   3.13425   3.14638
 Alpha virt. eigenvalues --    3.16089   3.18388   3.19338   3.20816   3.21974
 Alpha virt. eigenvalues --    3.22075   3.23724   3.25851   3.26734   3.28158
 Alpha virt. eigenvalues --    3.29875   3.31240   3.32832   3.33927   3.35447
 Alpha virt. eigenvalues --    3.35910   3.36879   3.39139   3.39939   3.42541
 Alpha virt. eigenvalues --    3.44847   3.47486   3.50042   3.50723   3.51038
 Alpha virt. eigenvalues --    3.52071   3.55021   3.57211   3.59232   3.59788
 Alpha virt. eigenvalues --    3.61289   3.65074   3.67354   3.69490   3.70187
 Alpha virt. eigenvalues --    3.72232   3.74524   3.79998   3.80276   3.82031
 Alpha virt. eigenvalues --    3.84400   3.87916   3.91389   3.93065   3.94995
 Alpha virt. eigenvalues --    3.96563   3.98787   4.01901   4.04416   4.05070
 Alpha virt. eigenvalues --    4.09843   4.14192   4.16413   4.18341   4.23587
 Alpha virt. eigenvalues --    4.25585   4.32204   4.34300   4.35852   4.38170
 Alpha virt. eigenvalues --    4.43841   4.44075   4.46642   4.52607   4.53888
 Alpha virt. eigenvalues --    4.57232   4.58135   4.60839   4.65382   4.67329
 Alpha virt. eigenvalues --    4.71405   4.81713   4.82455   4.87256   4.96825
 Alpha virt. eigenvalues --    4.98213   4.98989   5.07508   5.17029   5.27549
 Alpha virt. eigenvalues --    5.37430   5.44590   5.47701   5.78599   5.79748
 Alpha virt. eigenvalues --    5.83492   6.16370   6.18276   6.71074   6.80293
 Alpha virt. eigenvalues --    6.86472   7.20477   7.24505  22.11310  22.28769
 Alpha virt. eigenvalues --   22.35570  22.53494  22.59262  22.70555  22.72020
 Alpha virt. eigenvalues --   23.09673  44.11690
          Condensed to atoms (all electrons):
               1          2          3          4          5          6
     1  H    0.684033   0.416103  -0.100637  -0.050662  -0.065590   0.012845
     2  C    0.416103   4.704771   0.309401   0.326942   0.388884  -0.053963
     3  C   -0.100637   0.309401   5.419914  -0.071545  -0.016057  -0.070443
     4  O   -0.050662   0.326942  -0.071545   7.996859  -0.035888   0.306236
     5  H   -0.065590   0.388884  -0.016057  -0.035888   0.628924   0.004346
     6  C    0.012845  -0.053963  -0.070443   0.306236   0.004346   4.764067
     7  C   -0.013730  -0.077199   0.352711  -0.082638   0.000069   0.273772
     8  C    0.023963  -0.034278   0.396630   0.006279  -0.010947   0.014631
     9  H   -0.001827   0.007952   0.014070  -0.032009   0.000602   0.374152
    10  H    0.010367   0.000239  -0.012220  -0.050275  -0.001675   0.444757
    11  C    0.003167   0.011201  -0.032768   0.010381  -0.001218   0.018273
    12  H    0.000300   0.007794  -0.057161   0.008286  -0.000145  -0.038798
    13  H   -0.000397   0.006214  -0.047885  -0.000365  -0.000235  -0.000812
    14  C   -0.002663  -0.003855  -0.017367  -0.000438   0.002121  -0.000529
    15  C   -0.000494  -0.000455  -0.000440  -0.000534   0.000107  -0.018112
    16  H    0.000113  -0.000322  -0.013630  -0.000330  -0.000066   0.005494
    17  H   -0.000333   0.003539   0.013511  -0.000114  -0.003057   0.000032
    18  H   -0.000308  -0.000512  -0.007621   0.000011   0.000927  -0.000012
    19  H    0.000782  -0.001117  -0.001672  -0.000004  -0.000339   0.000066
    20  H    0.000057   0.000044  -0.000643  -0.000153  -0.000005   0.002853
    21  H    0.000003   0.000038  -0.000778  -0.000014  -0.000002   0.000273
               7          8          9         10         11         12
     1  H   -0.013730   0.023963  -0.001827   0.010367   0.003167   0.000300
     2  C   -0.077199  -0.034278   0.007952   0.000239   0.011201   0.007794
     3  C    0.352711   0.396630   0.014070  -0.012220  -0.032768  -0.057161
     4  O   -0.082638   0.006279  -0.032009  -0.050275   0.010381   0.008286
     5  H    0.000069  -0.010947   0.000602  -0.001675  -0.001218  -0.000145
     6  C    0.273772   0.014631   0.374152   0.444757   0.018273  -0.038798
     7  C    5.150353  -0.078943  -0.003073  -0.121104   0.186197   0.377730
     8  C   -0.078943   5.274696  -0.001951   0.007508   0.009696   0.007556
     9  H   -0.003073  -0.001951   0.611578  -0.055541  -0.005336  -0.013923
    10  H   -0.121104   0.007508  -0.055541   0.671135   0.023848   0.013457
    11  C    0.186197   0.009696  -0.005336   0.023848   5.089560  -0.053163
    12  H    0.377730   0.007556  -0.013923   0.013457  -0.053163   0.675676
    13  H   -0.005020   0.400207  -0.000034   0.000026  -0.000507   0.001572
    14  C    0.008749   0.253283   0.000050  -0.000194   0.000688  -0.000743
    15  C   -0.009681   0.003075   0.003440  -0.008330   0.568602  -0.001886
    16  H   -0.037716   0.002431  -0.000580   0.000217   0.398802  -0.004033
    17  H    0.000723  -0.073143  -0.000003   0.000016   0.000023   0.000006
    18  H   -0.000749  -0.037149  -0.000001   0.000011  -0.000086   0.000248
    19  H    0.000198  -0.044169  -0.000002  -0.000024   0.000043  -0.000082
    20  H   -0.009956   0.000140  -0.002040   0.002236  -0.046701   0.000238
    21  H    0.007993  -0.000043  -0.000071   0.000081  -0.038364  -0.000397
              13         14         15         16         17         18
     1  H   -0.000397  -0.002663  -0.000494   0.000113  -0.000333  -0.000308
     2  C    0.006214  -0.003855  -0.000455  -0.000322   0.003539  -0.000512
     3  C   -0.047885  -0.017367  -0.000440  -0.013630   0.013511  -0.007621
     4  O   -0.000365  -0.000438  -0.000534  -0.000330  -0.000114   0.000011
     5  H   -0.000235   0.002121   0.000107  -0.000066  -0.003057   0.000927
     6  C   -0.000812  -0.000529  -0.018112   0.005494   0.000032  -0.000012
     7  C   -0.005020   0.008749  -0.009681  -0.037716   0.000723  -0.000749
     8  C    0.400207   0.253283   0.003075   0.002431  -0.073143  -0.037149
     9  H   -0.000034   0.000050   0.003440  -0.000580  -0.000003  -0.000001
    10  H    0.000026  -0.000194  -0.008330   0.000217   0.000016   0.000011
    11  C   -0.000507   0.000688   0.568602   0.398802   0.000023  -0.000086
    12  H    0.001572  -0.000743  -0.001886  -0.004033   0.000006   0.000248
    13  H    0.579510  -0.035891   0.001172   0.004009   0.005323  -0.001483
    14  C   -0.035891   4.890608  -0.000077   0.000320   0.425932   0.408515
    15  C    0.001172  -0.000077   4.930683  -0.032998   0.000005   0.000004
    16  H    0.004009   0.000320  -0.032998   0.578797   0.000018  -0.000036
    17  H    0.005323   0.425932   0.000005   0.000018   0.565640  -0.024335
    18  H   -0.001483   0.408515   0.000004  -0.000036  -0.024335   0.581809
    19  H   -0.001917   0.410261   0.000003   0.000036  -0.023630  -0.037192
    20  H   -0.000002   0.000004   0.417331   0.006787   0.000000  -0.000000
    21  H    0.000040  -0.000000   0.409938  -0.008988   0.000000  -0.000000
              19         20         21
     1  H    0.000782   0.000057   0.000003
     2  C   -0.001117   0.000044   0.000038
     3  C   -0.001672  -0.000643  -0.000778
     4  O   -0.000004  -0.000153  -0.000014
     5  H   -0.000339  -0.000005  -0.000002
     6  C    0.000066   0.002853   0.000273
     7  C    0.000198  -0.009956   0.007993
     8  C   -0.044169   0.000140  -0.000043
     9  H   -0.000002  -0.002040  -0.000071
    10  H   -0.000024   0.002236   0.000081
    11  C    0.000043  -0.046701  -0.038364
    12  H   -0.000082   0.000238  -0.000397
    13  H   -0.001917  -0.000002   0.000040
    14  C    0.410261   0.000004  -0.000000
    15  C    0.000003   0.417331   0.409938
    16  H    0.000036   0.006787  -0.008988
    17  H   -0.023630   0.000000   0.000000
    18  H   -0.037192  -0.000000  -0.000000
    19  H    0.581614  -0.000000   0.000001
    20  H   -0.000000   0.552536  -0.032632
    21  H    0.000001  -0.032632   0.551009
 Mulliken charges:
               1
     1  H    0.084910
     2  C   -0.011421
     3  C   -0.055370
     4  O   -0.330022
     5  H    0.109244
     6  C   -0.039128
     7  C    0.081316
     8  C   -0.119471
     9  H    0.104547
    10  H    0.075465
    11  C   -0.142337
    12  H    0.077468
    13  H    0.096478
    14  C   -0.338775
    15  C   -0.261352
    16  H    0.101678
    17  H    0.109848
    18  H    0.117958
    19  H    0.117144
    20  H    0.109907
    21  H    0.111913
 Sum of Mulliken charges =  -0.00000
 Mulliken charges with hydrogens summed into heavy atoms:
               1
     2  C    0.182733
     3  C   -0.055370
     4  O   -0.330022
     6  C    0.140884
     7  C    0.158784
     8  C   -0.022994
    11  C   -0.040659
    14  C    0.006176
    15  C   -0.039532
 Electronic spatial extent (au):  <R**2>=           2695.0391
 Charge=             -0.0000 electrons
 Dipole moment (field-independent basis, Debye):
    X=              1.3152    Y=             -0.6178    Z=             -0.0524  Tot=              1.4540
 Quadrupole moment (field-independent basis, Debye-Ang):
   XX=            -55.6130   YY=            -53.0146   ZZ=            -56.5986
   XY=              0.6371   XZ=              2.8834   YZ=             -0.2856
 Traceless Quadrupole moment (field-independent basis, Debye-Ang):
   XX=             -0.5376   YY=              2.0608   ZZ=             -1.5232
   XY=              0.6371   XZ=              2.8834   YZ=             -0.2856
 Octapole moment (field-independent basis, Debye-Ang**2):
  XXX=           -244.9346  YYY=           -107.4535  ZZZ=           -281.5830  XYY=            -81.5368
  XXY=            -43.4997  XXZ=            -87.8743  XZZ=            -84.7214  YZZ=            -41.4217
  YYZ=            -90.0141  XYZ=              0.4415
 Hexadecapole moment (field-independent basis, Debye-Ang**3):
 XXXX=          -1361.4996 YYYY=          -1182.1722 ZZZZ=          -1136.2923 XXXY=           -199.1520
 XXXZ=           -422.4286 YYYX=           -201.5581 YYYZ=           -316.9369 ZZZX=           -480.1688
 ZZZY=           -336.3667 XXYY=           -430.0120 XXZZ=           -425.8681 YYZZ=           -404.5289
 XXYZ=           -111.7178 YYXZ=           -159.3643 ZZXY=            -86.1547
 N-N= 4.445741881660D+02 E-N=-1.789841637617D+03  KE= 3.853669757126D+02
 1\1\GINC-BHC0068\SP\RB3LYP\def2TZVP\C8H12O1\DHANAWAY\10-Jun-2022\0\\# 
 sp B3LYP/Def2TZVP NoSymm\\int_initalOpt_zmat_AlignedSp\\0,1\H\C,1,1.09
 915376\C,2,1.51626735,1,110.97614188\O,2,1.42565496,1,110.23604932,3,1
 17.36482112,0\H,2,1.09206343,1,108.05105691,3,-125.08574508,0\C,4,1.42
 273003,2,107.34274504,1,-93.9758458,0\C,3,1.52659723,2,106.13510529,1,
 116.46950791,0\C,3,1.3277967,2,126.50411105,7,-179.05065378,0\H,6,1.08
 929483,4,107.86764279,2,-160.68102097,0\H,6,1.09849104,4,110.50275252,
 9,-118.99562351,0\C,7,1.49899651,3,115.93038352,2,-146.56691733,0\H,7,
 1.09959128,3,107.04802775,11,-120.09736813,0\H,8,1.08599848,3,118.7514
 7835,2,178.67022655,0\C,8,1.49924024,3,125.78011156,13,-179.96342913,0
 \C,11,1.32762258,7,126.55846154,3,127.61281589,0\H,11,1.08618506,7,115
 .12803812,15,178.32527954,0\H,14,1.0900346,8,112.56643767,3,1.22610067
 ,0\H,14,1.09441424,8,110.97916739,17,-120.85814497,0\H,14,1.09419818,8
 ,110.93572759,17,120.90689724,0\H,15,1.08303243,11,122.69595223,7,-0.9
 1140428,0\H,15,1.08257378,11,120.97618851,20,179.94029578,0\\Version=E
 S64L-G16RevA.03\HF=-387.3914212\RMSD=5.104e-09\Dipole=0.5174482,-0.243
 0609,-0.0206087\Quadrupole=-0.3996601,1.5321368,-1.1324768,0.4736983,2
 .1437624,-0.2122997\PG=C01 [X(C8H12O1)]\\@


      LET US REMEMBER, PLEASE, THAT THE SEARCH FOR THE CONSTITUTION
      OF THE WORLD IS ONE OF THE GREATEST AND NOBLEST PROBLEMS PRESENTED 
      BY NATURE.

                                                  -- GALILEO
 Job cpu time:       0 days  0 hours 16 minutes 13.8 seconds.
 Elapsed time:       0 days  0 hours  1 minutes 21.5 seconds.
 File lengths (MBytes):  RWF=     71 Int=      0 D2E=      0 Chk=     32 Scr=      1
 Normal termination of Gaussian 16 at Fri Jun 10 22:26:26 2022.
