 Entering Gaussian System, Link 0=g16
 Input=int.gjf
 Output=int.out
 Initial command:
 /software/gaussian/g16-a03/l1.exe "/local_scratch/9922882/Gau-19419.inp" -scrdir="/local_scratch/9922882/"
 Entering Link 1 = /software/gaussian/g16-a03/l1.exe PID=     19420.
  
 Copyright (c) 1988,1990,1992,1993,1995,1998,2003,2009,2016,
            Gaussian, Inc.  All Rights Reserved.
  
 This is part of the Gaussian(R) 16 program.  It is based on
 the Gaussian(R) 09 system (copyright 2009, Gaussian, Inc.),
 the Gaussian(R) 03 system (copyright 2003, Gaussian, Inc.),
 the Gaussian(R) 98 system (copyright 1998, Gaussian, Inc.),
 the Gaussian(R) 94 system (copyright 1995, Gaussian, Inc.),
 the Gaussian 92(TM) system (copyright 1992, Gaussian, Inc.),
 the Gaussian 90(TM) system (copyright 1990, Gaussian, Inc.),
 the Gaussian 88(TM) system (copyright 1988, Gaussian, Inc.),
 the Gaussian 86(TM) system (copyright 1986, Carnegie Mellon
 University), and the Gaussian 82(TM) system (copyright 1983,
 Carnegie Mellon University). Gaussian is a federally registered
 trademark of Gaussian, Inc.
  
 This software contains proprietary and confidential information,
 including trade secrets, belonging to Gaussian, Inc.
  
 This software is provided under written license and may be
 used, copied, transmitted, or stored only in accord with that
 written license.
  
 The following legend is applicable only to US Government
 contracts under FAR:
  
                    RESTRICTED RIGHTS LEGEND
  
 Use, reproduction and disclosure by the US Government is
 subject to restrictions as set forth in subparagraphs (a)
 and (c) of the Commercial Computer Software - Restricted
 Rights clause in FAR 52.227-19.
  
 Gaussian, Inc.
 340 Quinnipiac St., Bldg. 40, Wallingford CT 06492
  
  
 ---------------------------------------------------------------
 Warning -- This program may not be used in any manner that
 competes with the business of Gaussian, Inc. or will provide
 assistance to any competitor of Gaussian, Inc.  The licensee
 of this program is prohibited from giving any competitor of
 Gaussian, Inc. access to this program.  By using this program,
 the user acknowledges that Gaussian, Inc. is engaged in the
 business of creating and licensing software in the field of
 computational chemistry and represents and warrants to the
 licensee that it is not a competitor of Gaussian, Inc. and that
 it will not use this program in any manner prohibited above.
 ---------------------------------------------------------------
  

 Cite this work as:
 Gaussian 16, Revision A.03,
 M. J. Frisch, G. W. Trucks, H. B. Schlegel, G. E. Scuseria, 
 M. A. Robb, J. R. Cheeseman, G. Scalmani, V. Barone, 
 G. A. Petersson, H. Nakatsuji, X. Li, M. Caricato, A. V. Marenich, 
 J. Bloino, B. G. Janesko, R. Gomperts, B. Mennucci, H. P. Hratchian, 
 J. V. Ortiz, A. F. Izmaylov, J. L. Sonnenberg, D. Williams-Young, 
 F. Ding, F. Lipparini, F. Egidi, J. Goings, B. Peng, A. Petrone, 
 T. Henderson, D. Ranasinghe, V. G. Zakrzewski, J. Gao, N. Rega, 
 G. Zheng, W. Liang, M. Hada, M. Ehara, K. Toyota, R. Fukuda, 
 J. Hasegawa, M. Ishida, T. Nakajima, Y. Honda, O. Kitao, H. Nakai, 
 T. Vreven, K. Throssell, J. A. Montgomery, Jr., J. E. Peralta, 
 F. Ogliaro, M. J. Bearpark, J. J. Heyd, E. N. Brothers, K. N. Kudin, 
 V. N. Staroverov, T. A. Keith, R. Kobayashi, J. Normand, 
 K. Raghavachari, A. P. Rendell, J. C. Burant, S. S. Iyengar, 
 J. Tomasi, M. Cossi, J. M. Millam, M. Klene, C. Adamo, R. Cammi, 
 J. W. Ochterski, R. L. Martin, K. Morokuma, O. Farkas, 
 J. B. Foresman, and D. J. Fox, Gaussian, Inc., Wallingford CT, 2016.
 
 ******************************************
 Gaussian 16:  ES64L-G16RevA.03 25-Dec-2016
                21-Mar-2022 
 ******************************************
 %nprocshared=12
 Will use up to   12 processors via shared memory.
 %chk=checkpoint.chk
 %mem=12GB
 --------------------
 # Opt B3LYP/Def2TZVP
 --------------------
 1/18=20,19=15,26=3,38=1/1,3;
 2/9=110,12=2,17=6,18=5,40=1/2;
 3/5=44,7=101,11=2,25=1,30=1,71=1,74=-5/1,2,3;
 4//1;
 5/5=2,38=5/2;
 6/7=2,8=2,9=2,10=2,28=1/1;
 7//1,2,3,16;
 1/18=20,19=15,26=3/3(2);
 2/9=110/2;
 99//99;
 2/9=110/2;
 3/5=44,7=101,11=2,25=1,30=1,71=1,74=-5/1,2,3;
 4/5=5,16=3,69=1/1;
 5/5=2,38=5/2;
 7//1,2,3,16;
 1/18=20,19=15,26=3/3(-5);
 2/9=110/2;
 6/7=2,8=2,9=2,10=2,19=2,28=1/1;
 99/9=1/99;
 -------------
 int_initalOpt
 -------------
 Symbolic Z-matrix:
 Charge =  0 Multiplicity = 1
 1                     1.96328   1.47208  -0.30629 
 6                     1.07821   0.88847  -0.08921 
 6                    -0.14822   1.41902  -0.05967 
 1                    -0.31051   2.47282  -0.24987 
 6                    -1.29405   0.54797   0.14399 
 1                    -2.28685   0.94377   0.29771 
 6                    -1.11872  -0.77259  -0.01502 
 1                    -1.92268  -1.49607  -0.05715 
 8                     0.08969  -1.33704  -0.2443 
 6                     1.22249  -0.57265   0.22347 
 1                     2.09016  -1.01852  -0.26004 
 1                     1.31087  -0.73913   1.30873 
 

 GradGradGradGradGradGradGradGradGradGradGradGradGradGradGradGradGradGrad
 Berny optimization.
 Initialization pass.
                           ----------------------------
                           !    Initial Parameters    !
                           ! (Angstroms and Degrees)  !
 --------------------------                            --------------------------
 ! Name  Definition              Value          Derivative Info.                !
 --------------------------------------------------------------------------------
 ! R1    R(1,2)                  1.0822         estimate D2E/DX2                !
 ! R2    R(2,3)                  1.3366         estimate D2E/DX2                !
 ! R3    R(2,10)                 1.5011         estimate D2E/DX2                !
 ! R4    R(3,4)                  1.0831         estimate D2E/DX2                !
 ! R5    R(3,5)                  1.4537         estimate D2E/DX2                !
 ! R6    R(5,6)                  1.0798         estimate D2E/DX2                !
 ! R7    R(5,7)                  1.3416         estimate D2E/DX2                !
 ! R8    R(7,8)                  1.0824         estimate D2E/DX2                !
 ! R9    R(7,9)                  1.3533         estimate D2E/DX2                !
 ! R10   R(9,10)                 1.4444         estimate D2E/DX2                !
 ! R11   R(10,11)                1.0888         estimate D2E/DX2                !
 ! R12   R(10,12)                1.1015         estimate D2E/DX2                !
 ! A1    A(1,2,3)              122.7396         estimate D2E/DX2                !
 ! A2    A(1,2,10)             119.2151         estimate D2E/DX2                !
 ! A3    A(3,2,10)             118.031          estimate D2E/DX2                !
 ! A4    A(2,3,4)              121.3214         estimate D2E/DX2                !
 ! A5    A(2,3,5)              119.2424         estimate D2E/DX2                !
 ! A6    A(4,3,5)              119.3089         estimate D2E/DX2                !
 ! A7    A(3,5,6)              121.6704         estimate D2E/DX2                !
 ! A8    A(3,5,7)              118.0473         estimate D2E/DX2                !
 ! A9    A(6,5,7)              119.857          estimate D2E/DX2                !
 ! A10   A(5,7,8)              124.4355         estimate D2E/DX2                !
 ! A11   A(5,7,9)              123.1836         estimate D2E/DX2                !
 ! A12   A(8,7,9)              112.2008         estimate D2E/DX2                !
 ! A13   A(7,9,10)             115.1316         estimate D2E/DX2                !
 ! A14   A(2,10,9)             111.8549         estimate D2E/DX2                !
 ! A15   A(2,10,11)            112.5006         estimate D2E/DX2                !
 ! A16   A(2,10,12)            111.1027         estimate D2E/DX2                !
 ! A17   A(9,10,11)            105.3349         estimate D2E/DX2                !
 ! A18   A(9,10,12)            107.5785         estimate D2E/DX2                !
 ! A19   A(11,10,12)           108.1617         estimate D2E/DX2                !
 ! D1    D(1,2,3,4)             -0.3082         estimate D2E/DX2                !
 ! D2    D(1,2,3,5)            175.5605         estimate D2E/DX2                !
 ! D3    D(10,2,3,4)           178.3075         estimate D2E/DX2                !
 ! D4    D(10,2,3,5)            -5.8237         estimate D2E/DX2                !
 ! D5    D(1,2,10,9)          -147.1027         estimate D2E/DX2                !
 ! D6    D(1,2,10,11)          -28.7722         estimate D2E/DX2                !
 ! D7    D(1,2,10,12)           92.6604         estimate D2E/DX2                !
 ! D8    D(3,2,10,9)            34.2313         estimate D2E/DX2                !
 ! D9    D(3,2,10,11)          152.5618         estimate D2E/DX2                !
 ! D10   D(3,2,10,12)          -86.0056         estimate D2E/DX2                !
 ! D11   D(2,3,5,6)            172.2423         estimate D2E/DX2                !
 ! D12   D(2,3,5,7)            -15.2562         estimate D2E/DX2                !
 ! D13   D(4,3,5,6)            -11.8049         estimate D2E/DX2                !
 ! D14   D(4,3,5,7)            160.6966         estimate D2E/DX2                !
 ! D15   D(3,5,7,8)           -169.0538         estimate D2E/DX2                !
 ! D16   D(3,5,7,9)              5.6848         estimate D2E/DX2                !
 ! D17   D(6,5,7,8)              3.5884         estimate D2E/DX2                !
 ! D18   D(6,5,7,9)            178.3271         estimate D2E/DX2                !
 ! D19   D(5,7,9,10)            24.5417         estimate D2E/DX2                !
 ! D20   D(8,7,9,10)          -160.1437         estimate D2E/DX2                !
 ! D21   D(7,9,10,2)           -42.9932         estimate D2E/DX2                !
 ! D22   D(7,9,10,11)         -165.5093         estimate D2E/DX2                !
 ! D23   D(7,9,10,12)           79.2822         estimate D2E/DX2                !
 --------------------------------------------------------------------------------
 Trust Radius=3.00D-01 FncErr=1.00D-07 GrdErr=1.00D-06 EigMax=2.50D+02 EigMin=1.00D-04
 Number of steps in this run=     64 maximum allowed number of steps=    100.
 GradGradGradGradGradGradGradGradGradGradGradGradGradGradGradGradGradGrad

                          Input orientation:                          
 ---------------------------------------------------------------------
 Center     Atomic      Atomic             Coordinates (Angstroms)
 Number     Number       Type             X           Y           Z
 ---------------------------------------------------------------------
      1          1           0        1.963280    1.472077   -0.306293
      2          6           0        1.078206    0.888467   -0.089212
      3          6           0       -0.148222    1.419024   -0.059668
      4          1           0       -0.310514    2.472819   -0.249872
      5          6           0       -1.294047    0.547968    0.143988
      6          1           0       -2.286852    0.943773    0.297709
      7          6           0       -1.118720   -0.772586   -0.015022
      8          1           0       -1.922676   -1.496068   -0.057151
      9          8           0        0.089688   -1.337039   -0.244302
     10          6           0        1.222489   -0.572647    0.223468
     11          1           0        2.090156   -1.018520   -0.260039
     12          1           0        1.310868   -0.739127    1.308732
 ---------------------------------------------------------------------
                    Distance matrix (angstroms):
                    1          2          3          4          5
     1  H    0.000000
     2  C    1.082165   0.000000
     3  C    2.126518   1.336596   0.000000
     4  H    2.484916   2.112943   1.083051   0.000000
     5  C    3.415686   2.407884   1.453661   2.197160   0.000000
     6  H    4.325222   3.387681   2.219757   2.558073   1.079793
     7  C    3.823882   2.755192   2.397293   3.352761   1.341599
     8  H    4.896183   3.833057   3.412690   4.288155   2.147956
     9  O    3.377177   2.440102   2.772467   3.830824   2.370389
    10  C    2.238373   1.501146   2.434290   3.442239   2.755912
    11  H    2.494255   2.165600   3.315434   4.237071   3.750994
    12  H    2.814848   2.158111   2.942631   3.921061   3.130307
                    6          7          8          9         10
     6  H    0.000000
     7  C    2.099576   0.000000
     8  H    2.492263   1.082380   0.000000
     9  O    3.338236   1.353302   2.027295   0.000000
    10  C    3.823678   2.361803   3.289911   1.444418   0.000000
    11  H    4.829066   3.227600   4.046237   2.025728   1.088774
    12  H    4.098525   2.767010   3.590878   2.064145   1.101510
                   11         12
    11  H    0.000000
    12  H    1.773807   0.000000
 Stoichiometry    C5H6O
 Framework group  C1[X(C5H6O)]
 Deg. of freedom    30
 Full point group                 C1      NOp   1
 Largest Abelian subgroup         C1      NOp   1
 Largest concise Abelian subgroup C1      NOp   1
                         Standard orientation:                         
 ---------------------------------------------------------------------
 Center     Atomic      Atomic             Coordinates (Angstroms)
 Number     Number       Type             X           Y           Z
 ---------------------------------------------------------------------
      1          1           0        1.963283    1.472073   -0.306293
      2          6           0        1.078208    0.888465   -0.089212
      3          6           0       -0.148219    1.419024   -0.059668
      4          1           0       -0.310509    2.472820   -0.249872
      5          6           0       -1.294046    0.547971    0.143988
      6          1           0       -2.286850    0.943778    0.297709
      7          6           0       -1.118722   -0.772584   -0.015022
      8          1           0       -1.922679   -1.496064   -0.057151
      9          8           0        0.089685   -1.337039   -0.244302
     10          6           0        1.222488   -0.572650    0.223468
     11          1           0        2.090154   -1.018524   -0.260039
     12          1           0        1.310866   -0.739130    1.308732
 ---------------------------------------------------------------------
 Rotational constants (GHZ):           5.5881729           5.3767973           2.8631600
 Standard basis: def2TZVP (5D, 7F)
 There are   252 symmetry adapted cartesian basis functions of A   symmetry.
 There are   222 symmetry adapted basis functions of A   symmetry.
   222 basis functions,   354 primitive gaussians,   252 cartesian basis functions
    22 alpha electrons       22 beta electrons
       nuclear repulsion energy       223.6887385059 Hartrees.
 NAtoms=   12 NActive=   12 NUniq=   12 SFac= 1.00D+00 NAtFMM=   60 NAOKFM=F Big=F
 Integral buffers will be    131072 words long.
 Raffenetti 2 integral format.
 Two-electron integral symmetry is turned on.
 One-electron integrals computed using PRISM.
   1 Symmetry operations used in ECPInt.
 ECPInt:  NShTT=    4095 NPrTT=   12396 LenC2=    4075 LenP2D=   10423.
 LDataN:  DoStor=T MaxTD1= 6 Len=  172
 NBasis=   222 RedAO= T EigKep=  9.59D-05  NBF=   222
 NBsUse=   222 1.00D-06 EigRej= -1.00D+00 NBFU=   222
 ExpMin= 9.52D-02 ExpMax= 2.70D+04 ExpMxC= 9.22D+02 IAcc=3 IRadAn=         5 AccDes= 0.00D+00
 Harris functional with IExCor=  402 and IRadAn=       5 diagonalized for initial guess.
 HarFok:  IExCor=  402 AccDes= 0.00D+00 IRadAn=         5 IDoV= 1 UseB2=F ITyADJ=14
 ICtDFT=  3500011 ScaDFX=  1.000000  1.000000  1.000000  1.000000
 FoFCou: FMM=F IPFlag=           0 FMFlag=      100000 FMFlg1=           0
         NFxFlg=           0 DoJE=T BraDBF=F KetDBF=T FulRan=T
         wScrn=  0.000000 ICntrl=       500 IOpCl=  0 I1Cent=   200000004 NGrid=           0
         NMat0=    1 NMatS0=      1 NMatT0=    0 NMatD0=    1 NMtDS0=    0 NMtDT0=    0
 Petite list used in FoFCou.
 Keep R1 ints in memory in canonical form, NReq=319364449.
 Requested convergence on RMS density matrix=1.00D-08 within 128 cycles.
 Requested convergence on MAX density matrix=1.00D-06.
 Requested convergence on             energy=1.00D-06.
 No special actions if energy rises.
 Integral accuracy reduced to 1.0D-05 until final iterations.
 Initial convergence to 1.0D-05 achieved.  Increase integral accuracy.
 SCF Done:  E(RB3LYP) =  -269.422511161     A.U. after   13 cycles
            NFock= 13  Conv=0.73D-08     -V/T= 2.0050

 **********************************************************************

            Population analysis using the SCF density.

 **********************************************************************

 Orbital symmetries:
       Occupied  (A) (A) (A) (A) (A) (A) (A) (A) (A) (A) (A) (A)
                 (A) (A) (A) (A) (A) (A) (A) (A) (A) (A)
       Virtual   (A) (A) (A) (A) (A) (A) (A) (A) (A) (A) (A) (A)
                 (A) (A) (A) (A) (A) (A) (A) (A) (A) (A) (A) (A)
                 (A) (A) (A) (A) (A) (A) (A) (A) (A) (A) (A) (A)
                 (A) (A) (A) (A) (A) (A) (A) (A) (A) (A) (A) (A)
                 (A) (A) (A) (A) (A) (A) (A) (A) (A) (A) (A) (A)
                 (A) (A) (A) (A) (A) (A) (A) (A) (A) (A) (A) (A)
                 (A) (A) (A) (A) (A) (A) (A) (A) (A) (A) (A) (A)
                 (A) (A) (A) (A) (A) (A) (A) (A) (A) (A) (A) (A)
                 (A) (A) (A) (A) (A) (A) (A) (A) (A) (A) (A) (A)
                 (A) (A) (A) (A) (A) (A) (A) (A) (A) (A) (A) (A)
                 (A) (A) (A) (A) (A) (A) (A) (A) (A) (A) (A) (A)
                 (A) (A) (A) (A) (A) (A) (A) (A) (A) (A) (A) (A)
                 (A) (A) (A) (A) (A) (A) (A) (A) (A) (A) (A) (A)
                 (A) (A) (A) (A) (A) (A) (A) (A) (A) (A) (A) (A)
                 (A) (A) (A) (A) (A) (A) (A) (A) (A) (A) (A) (A)
                 (A) (A) (A) (A) (A) (A) (A) (A) (A) (A) (A) (A)
                 (A) (A) (A) (A) (A) (A) (A) (A)
 The electronic state is 1-A.
 Alpha  occ. eigenvalues --  -19.16116 -10.23274 -10.23078 -10.17926 -10.17313
 Alpha  occ. eigenvalues --  -10.16645  -1.07060  -0.81408  -0.77439  -0.66565
 Alpha  occ. eigenvalues --   -0.62635  -0.53389  -0.51176  -0.48548  -0.46309
 Alpha  occ. eigenvalues --   -0.43838  -0.40954  -0.37855  -0.36089  -0.33068
 Alpha  occ. eigenvalues --   -0.30118  -0.21129
 Alpha virt. eigenvalues --   -0.03376   0.04616   0.05587   0.07510   0.07893
 Alpha virt. eigenvalues --    0.09293   0.10034   0.10888   0.12582   0.16187
 Alpha virt. eigenvalues --    0.17805   0.19367   0.21561   0.22452   0.22633
 Alpha virt. eigenvalues --    0.24210   0.24995   0.27132   0.28593   0.30459
 Alpha virt. eigenvalues --    0.31096   0.33166   0.34717   0.36067   0.36844
 Alpha virt. eigenvalues --    0.37881   0.38654   0.41274   0.42109   0.42704
 Alpha virt. eigenvalues --    0.43475   0.44817   0.46271   0.49477   0.51103
 Alpha virt. eigenvalues --    0.53002   0.55485   0.57852   0.60143   0.62888
 Alpha virt. eigenvalues --    0.65478   0.66335   0.68609   0.72746   0.74001
 Alpha virt. eigenvalues --    0.78453   0.81336   0.84467   0.86169   0.89470
 Alpha virt. eigenvalues --    0.90779   0.92646   0.95667   0.97657   0.99584
 Alpha virt. eigenvalues --    1.05265   1.07298   1.09018   1.11005   1.11572
 Alpha virt. eigenvalues --    1.15258   1.18128   1.19969   1.23532   1.26425
 Alpha virt. eigenvalues --    1.29867   1.33687   1.36335   1.40362   1.43247
 Alpha virt. eigenvalues --    1.44494   1.45194   1.48299   1.51246   1.52267
 Alpha virt. eigenvalues --    1.56270   1.59933   1.62945   1.65206   1.67301
 Alpha virt. eigenvalues --    1.70312   1.72028   1.74465   1.77983   1.80358
 Alpha virt. eigenvalues --    1.85487   1.87329   1.90516   1.91627   1.96587
 Alpha virt. eigenvalues --    1.99987   2.00840   2.06055   2.10808   2.12982
 Alpha virt. eigenvalues --    2.14362   2.17373   2.20505   2.23013   2.27092
 Alpha virt. eigenvalues --    2.27513   2.37247   2.38710   2.45408   2.46014
 Alpha virt. eigenvalues --    2.50758   2.52137   2.53409   2.57191   2.60264
 Alpha virt. eigenvalues --    2.62118   2.62638   2.65608   2.67775   2.70532
 Alpha virt. eigenvalues --    2.71079   2.73713   2.76824   2.78821   2.80561
 Alpha virt. eigenvalues --    2.83199   2.83943   2.87613   2.88985   2.91545
 Alpha virt. eigenvalues --    2.93754   2.97411   3.02283   3.02809   3.07252
 Alpha virt. eigenvalues --    3.08001   3.11026   3.13479   3.15967   3.16227
 Alpha virt. eigenvalues --    3.18974   3.19868   3.22515   3.24312   3.25349
 Alpha virt. eigenvalues --    3.29222   3.30310   3.33059   3.36531   3.37725
 Alpha virt. eigenvalues --    3.39758   3.42357   3.44842   3.45672   3.49164
 Alpha virt. eigenvalues --    3.54712   3.58840   3.63223   3.67919   3.69424
 Alpha virt. eigenvalues --    3.78314   3.84384   3.86171   3.91153   3.93861
 Alpha virt. eigenvalues --    3.97881   4.03135   4.04072   4.12783   4.17259
 Alpha virt. eigenvalues --    4.19708   4.24915   4.29012   4.36661   4.39752
 Alpha virt. eigenvalues --    4.44999   4.52606   4.57489   4.63941   4.66743
 Alpha virt. eigenvalues --    4.68073   4.79010   4.84201   4.91273   4.95042
 Alpha virt. eigenvalues --    5.12319   5.18032   5.37267   5.45576   5.75615
 Alpha virt. eigenvalues --    5.85383   5.90455   6.23403   6.32207   6.65979
 Alpha virt. eigenvalues --    6.76533   6.86668   7.15211   7.24861  22.06634
 Alpha virt. eigenvalues --   22.31967  22.42788  22.74337  22.92177  44.05308
          Condensed to atoms (all electrons):
               1          2          3          4          5          6
     1  H    0.561521   0.402047  -0.041377  -0.008847   0.005329  -0.000209
     2  C    0.402047   5.041231   0.659524  -0.039873  -0.068515   0.005806
     3  C   -0.041377   0.659524   4.844172   0.418579   0.369368  -0.047688
     4  H   -0.008847  -0.039873   0.418579   0.562429  -0.049766  -0.004813
     5  C    0.005329  -0.068515   0.369368  -0.049766   5.091034   0.407511
     6  H   -0.000209   0.005806  -0.047688  -0.004813   0.407511   0.554041
     7  C    0.001768  -0.033720  -0.049402   0.003912   0.588260  -0.027617
     8  H    0.000168  -0.000360   0.005392  -0.000359  -0.069857  -0.003913
     9  O    0.004156  -0.021901  -0.021909  -0.001082  -0.072229   0.005248
    10  C   -0.038134   0.350161  -0.043247   0.008291  -0.032591  -0.000545
    11  H   -0.005771  -0.037402   0.004408  -0.000315   0.004569   0.000142
    12  H    0.007043  -0.079067  -0.009260  -0.000189  -0.005097  -0.000344
               7          8          9         10         11         12
     1  H    0.001768   0.000168   0.004156  -0.038134  -0.005771   0.007043
     2  C   -0.033720  -0.000360  -0.021901   0.350161  -0.037402  -0.079067
     3  C   -0.049402   0.005392  -0.021909  -0.043247   0.004408  -0.009260
     4  H    0.003912  -0.000359  -0.001082   0.008291  -0.000315  -0.000189
     5  C    0.588260  -0.069857  -0.072229  -0.032591   0.004569  -0.005097
     6  H   -0.027617  -0.003913   0.005248  -0.000545   0.000142  -0.000344
     7  C    4.736584   0.430210   0.335146  -0.041612  -0.000748   0.031096
     8  H    0.430210   0.550335  -0.039013   0.004843  -0.000576   0.002017
     9  O    0.335146  -0.039013   7.903658   0.274843  -0.030840  -0.065974
    10  C   -0.041612   0.004843   0.274843   4.670769   0.409617   0.401601
    11  H   -0.000748  -0.000576  -0.030840   0.409617   0.603380  -0.054808
    12  H    0.031096   0.002017  -0.065974   0.401601  -0.054808   0.696670
 Mulliken charges:
               1
     1  H    0.112304
     2  C   -0.177933
     3  C   -0.088560
     4  H    0.112033
     5  C   -0.168015
     6  H    0.112380
     7  C    0.026122
     8  H    0.121114
     9  O   -0.270103
    10  C    0.036003
    11  H    0.108343
    12  H    0.076311
 Sum of Mulliken charges =  -0.00000
 Mulliken charges with hydrogens summed into heavy atoms:
               1
     2  C   -0.065629
     3  C    0.023473
     5  C   -0.055635
     7  C    0.147236
     9  O   -0.270103
    10  C    0.220657
 Electronic spatial extent (au):  <R**2>=            460.6315
 Charge=             -0.0000 electrons
 Dipole moment (field-independent basis, Debye):
    X=              0.2387    Y=              0.5940    Z=              0.3278  Tot=              0.7192
 Quadrupole moment (field-independent basis, Debye-Ang):
   XX=            -30.9075   YY=            -35.6135   ZZ=            -38.5056
   XY=              0.2814   XZ=             -0.0630   YZ=             -0.9470
 Traceless Quadrupole moment (field-independent basis, Debye-Ang):
   XX=              4.1014   YY=             -0.6046   ZZ=             -3.4968
   XY=              0.2814   XZ=             -0.0630   YZ=             -0.9470
 Octapole moment (field-independent basis, Debye-Ang**2):
  XXX=              1.3600  YYY=              1.2524  ZZZ=             -0.6247  XYY=             -2.8440
  XXY=             -4.3022  XXZ=             -0.8322  XZZ=              2.1243  YZZ=             -3.9610
  YYZ=             -1.0916  XYZ=             -1.0803
 Hexadecapole moment (field-independent basis, Debye-Ang**3):
 XXXX=           -270.9439 YYYY=           -270.8953 ZZZZ=            -57.8722 XXXY=              1.2919
 XXXZ=             -5.0587 YYYX=              1.6877 YYYZ=             -3.2635 ZZZX=              2.1205
 ZZZY=              1.2247 XXYY=            -84.1947 XXZZ=            -62.3840 YYZZ=            -59.3668
 XXYZ=              1.6399 YYXZ=             -0.9959 ZZXY=             -1.4589
 N-N= 2.236887385059D+02 E-N=-1.075163078404D+03  KE= 2.680830686872D+02
   1 Symmetry operations used in ECPInt.
 ECPInt:  NShTT=    4095 NPrTT=   12396 LenC2=    4075 LenP2D=   10423.
 LDataN:  DoStor=T MaxTD1= 7 Len=  274
 Calling FoFJK, ICntrl=      2127 FMM=F ISym2X=0 I1Cent= 0 IOpClX= 0 NMat=1 NMatS=1 NMatT=0.
 ***** Axes restored to original set *****
 -------------------------------------------------------------------
 Center     Atomic                   Forces (Hartrees/Bohr)
 Number     Number              X              Y              Z
 -------------------------------------------------------------------
      1        1          -0.000016189   -0.000014614    0.000010861
      2        6          -0.000009726    0.000049992   -0.000001154
      3        6           0.000029638    0.000007392   -0.000015997
      4        1          -0.000004413   -0.000024756    0.000009992
      5        6          -0.000020422    0.000000030    0.000004375
      6        1           0.000026852   -0.000005318   -0.000007655
      7        6          -0.000028162   -0.000043774   -0.000013994
      8        1           0.000008965    0.000027683    0.000002975
      9        8           0.000068812    0.000092488    0.000055402
     10        6          -0.000076076   -0.000118265   -0.000060041
     11        1          -0.000002093    0.000022666    0.000016308
     12        1           0.000022814    0.000006475   -0.000001071
 -------------------------------------------------------------------
 Cartesian Forces:  Max     0.000118265 RMS     0.000037712

 GradGradGradGradGradGradGradGradGradGradGradGradGradGradGradGradGradGrad
 Berny optimization.
 FormGI is forming the generalized inverse of G from B-inverse, IUseBI=4.
 Internal  Forces:  Max     0.000091001 RMS     0.000017901
 Search for a local minimum.
 Step number   1 out of a maximum of   64
 All quantities printed in internal units (Hartrees-Bohrs-Radians)
 Mixed Optimization -- En-DIIS/RFO-DIIS
 Second derivative matrix not updated -- first step.
 ITU=  0
     Eigenvalues ---    0.01226   0.01667   0.01974   0.02113   0.02315
     Eigenvalues ---    0.02533   0.02721   0.05837   0.07332   0.11874
     Eigenvalues ---    0.12135   0.15857   0.15962   0.15970   0.15995
     Eigenvalues ---    0.21129   0.21420   0.22042   0.31266   0.33516
     Eigenvalues ---    0.34955   0.35628   0.35708   0.35734   0.36019
     Eigenvalues ---    0.36107   0.38067   0.50557   0.55145   0.56928
 RFO step:  Lambda=-8.27194051D-08 EMin= 1.22635235D-02
 Linear search not attempted -- first point.
 Iteration  1 RMS(Cart)=  0.00019307 RMS(Int)=  0.00000003
 Iteration  2 RMS(Cart)=  0.00000003 RMS(Int)=  0.00000001
 Variable       Old X    -DE/DX   Delta X   Delta X   Delta X     New X
                                 (Linear)    (Quad)   (Total)
    R1        2.04500  -0.00002   0.00000  -0.00007  -0.00007   2.04493
    R2        2.52580  -0.00003   0.00000  -0.00005  -0.00005   2.52575
    R3        2.83676   0.00002   0.00000   0.00007   0.00007   2.83683
    R4        2.04667  -0.00003   0.00000  -0.00007  -0.00007   2.04660
    R5        2.74702  -0.00000   0.00000  -0.00001  -0.00001   2.74701
    R6        2.04051  -0.00003   0.00000  -0.00008  -0.00008   2.04044
    R7        2.53525  -0.00001   0.00000  -0.00002  -0.00002   2.53523
    R8        2.04540  -0.00003   0.00000  -0.00007  -0.00007   2.04533
    R9        2.55737  -0.00000   0.00000  -0.00000  -0.00000   2.55737
   R10        2.72955  -0.00009   0.00000  -0.00023  -0.00023   2.72932
   R11        2.05748  -0.00002   0.00000  -0.00005  -0.00005   2.05743
   R12        2.08155   0.00000   0.00000   0.00000   0.00000   2.08155
    A1        2.14221   0.00000   0.00000   0.00001   0.00001   2.14222
    A2        2.08070  -0.00000   0.00000  -0.00005  -0.00005   2.08065
    A3        2.06003  -0.00000   0.00000   0.00004   0.00004   2.06007
    A4        2.11746   0.00001   0.00000   0.00004   0.00004   2.11750
    A5        2.08117   0.00000   0.00000   0.00004   0.00004   2.08121
    A6        2.08233  -0.00001   0.00000  -0.00007  -0.00007   2.08226
    A7        2.12355  -0.00001   0.00000  -0.00004  -0.00004   2.12351
    A8        2.06031  -0.00000   0.00000   0.00002   0.00002   2.06034
    A9        2.09190   0.00001   0.00000   0.00002   0.00002   2.09192
   A10        2.17181  -0.00000   0.00000  -0.00006  -0.00006   2.17175
   A11        2.14996  -0.00002   0.00000  -0.00007  -0.00007   2.14989
   A12        1.95827   0.00003   0.00000   0.00013   0.00013   1.95840
   A13        2.00943   0.00004   0.00000   0.00021   0.00021   2.00964
   A14        1.95224  -0.00001   0.00000   0.00004   0.00004   1.95228
   A15        1.96351  -0.00001   0.00000  -0.00012  -0.00012   1.96339
   A16        1.93911  -0.00001   0.00000  -0.00009  -0.00009   1.93902
   A17        1.83844   0.00002   0.00000   0.00017   0.00017   1.83861
   A18        1.87760   0.00001   0.00000   0.00014   0.00014   1.87774
   A19        1.88778  -0.00001   0.00000  -0.00013  -0.00013   1.88764
    D1       -0.00538   0.00000   0.00000  -0.00004  -0.00004  -0.00542
    D2        3.06411  -0.00000   0.00000   0.00010   0.00010   3.06421
    D3        3.11205   0.00000   0.00000   0.00001   0.00001   3.11207
    D4       -0.10164   0.00000   0.00000   0.00016   0.00016  -0.10148
    D5       -2.56743  -0.00001   0.00000  -0.00036  -0.00036  -2.56779
    D6       -0.50217   0.00001   0.00000  -0.00020  -0.00020  -0.50237
    D7        1.61723  -0.00001   0.00000  -0.00052  -0.00052   1.61671
    D8        0.59745  -0.00001   0.00000  -0.00042  -0.00042   0.59703
    D9        2.66271   0.00001   0.00000  -0.00025  -0.00025   2.66245
   D10       -1.50108  -0.00002   0.00000  -0.00057  -0.00057  -1.50165
   D11        3.00620   0.00001   0.00000   0.00007   0.00007   3.00627
   D12       -0.26627   0.00001   0.00000   0.00011   0.00011  -0.26616
   D13       -0.20603   0.00001   0.00000   0.00022   0.00022  -0.20581
   D14        2.80469   0.00001   0.00000   0.00026   0.00026   2.80494
   D15       -2.95055   0.00000   0.00000  -0.00006  -0.00006  -2.95061
   D16        0.09922   0.00000   0.00000  -0.00009  -0.00009   0.09913
   D17        0.06263   0.00000   0.00000  -0.00004  -0.00004   0.06259
   D18        3.11239   0.00000   0.00000  -0.00006  -0.00006   3.11233
   D19        0.42833   0.00000   0.00000  -0.00012  -0.00012   0.42821
   D20       -2.79504   0.00000   0.00000  -0.00016  -0.00016  -2.79519
   D21       -0.75037   0.00000   0.00000   0.00037   0.00037  -0.75000
   D22       -2.88868   0.00001   0.00000   0.00038   0.00038  -2.88830
   D23        1.38373  -0.00000   0.00000   0.00039   0.00039   1.38412
         Item               Value     Threshold  Converged?
 Maximum Force            0.000091     0.000450     YES
 RMS     Force            0.000018     0.000300     YES
 Maximum Displacement     0.000802     0.001800     YES
 RMS     Displacement     0.000193     0.001200     YES
 Predicted change in Energy=-4.135967D-08
 Optimization completed.
    -- Stationary point found.
                           ----------------------------
                           !   Optimized Parameters   !
                           ! (Angstroms and Degrees)  !
 --------------------------                            --------------------------
 ! Name  Definition              Value          Derivative Info.                !
 --------------------------------------------------------------------------------
 ! R1    R(1,2)                  1.0822         -DE/DX =    0.0                 !
 ! R2    R(2,3)                  1.3366         -DE/DX =    0.0                 !
 ! R3    R(2,10)                 1.5011         -DE/DX =    0.0                 !
 ! R4    R(3,4)                  1.0831         -DE/DX =    0.0                 !
 ! R5    R(3,5)                  1.4537         -DE/DX =    0.0                 !
 ! R6    R(5,6)                  1.0798         -DE/DX =    0.0                 !
 ! R7    R(5,7)                  1.3416         -DE/DX =    0.0                 !
 ! R8    R(7,8)                  1.0824         -DE/DX =    0.0                 !
 ! R9    R(7,9)                  1.3533         -DE/DX =    0.0                 !
 ! R10   R(9,10)                 1.4444         -DE/DX =   -0.0001              !
 ! R11   R(10,11)                1.0888         -DE/DX =    0.0                 !
 ! R12   R(10,12)                1.1015         -DE/DX =    0.0                 !
 ! A1    A(1,2,3)              122.7396         -DE/DX =    0.0                 !
 ! A2    A(1,2,10)             119.2151         -DE/DX =    0.0                 !
 ! A3    A(3,2,10)             118.031          -DE/DX =    0.0                 !
 ! A4    A(2,3,4)              121.3214         -DE/DX =    0.0                 !
 ! A5    A(2,3,5)              119.2424         -DE/DX =    0.0                 !
 ! A6    A(4,3,5)              119.3089         -DE/DX =    0.0                 !
 ! A7    A(3,5,6)              121.6704         -DE/DX =    0.0                 !
 ! A8    A(3,5,7)              118.0473         -DE/DX =    0.0                 !
 ! A9    A(6,5,7)              119.857          -DE/DX =    0.0                 !
 ! A10   A(5,7,8)              124.4355         -DE/DX =    0.0                 !
 ! A11   A(5,7,9)              123.1836         -DE/DX =    0.0                 !
 ! A12   A(8,7,9)              112.2008         -DE/DX =    0.0                 !
 ! A13   A(7,9,10)             115.1316         -DE/DX =    0.0                 !
 ! A14   A(2,10,9)             111.8549         -DE/DX =    0.0                 !
 ! A15   A(2,10,11)            112.5006         -DE/DX =    0.0                 !
 ! A16   A(2,10,12)            111.1027         -DE/DX =    0.0                 !
 ! A17   A(9,10,11)            105.3349         -DE/DX =    0.0                 !
 ! A18   A(9,10,12)            107.5785         -DE/DX =    0.0                 !
 ! A19   A(11,10,12)           108.1617         -DE/DX =    0.0                 !
 ! D1    D(1,2,3,4)             -0.3082         -DE/DX =    0.0                 !
 ! D2    D(1,2,3,5)            175.5605         -DE/DX =    0.0                 !
 ! D3    D(10,2,3,4)           178.3075         -DE/DX =    0.0                 !
 ! D4    D(10,2,3,5)            -5.8237         -DE/DX =    0.0                 !
 ! D5    D(1,2,10,9)          -147.1027         -DE/DX =    0.0                 !
 ! D6    D(1,2,10,11)          -28.7722         -DE/DX =    0.0                 !
 ! D7    D(1,2,10,12)           92.6604         -DE/DX =    0.0                 !
 ! D8    D(3,2,10,9)            34.2313         -DE/DX =    0.0                 !
 ! D9    D(3,2,10,11)          152.5618         -DE/DX =    0.0                 !
 ! D10   D(3,2,10,12)          -86.0056         -DE/DX =    0.0                 !
 ! D11   D(2,3,5,6)            172.2423         -DE/DX =    0.0                 !
 ! D12   D(2,3,5,7)            -15.2562         -DE/DX =    0.0                 !
 ! D13   D(4,3,5,6)            -11.8049         -DE/DX =    0.0                 !
 ! D14   D(4,3,5,7)            160.6966         -DE/DX =    0.0                 !
 ! D15   D(3,5,7,8)           -169.0538         -DE/DX =    0.0                 !
 ! D16   D(3,5,7,9)              5.6848         -DE/DX =    0.0                 !
 ! D17   D(6,5,7,8)              3.5884         -DE/DX =    0.0                 !
 ! D18   D(6,5,7,9)            178.3271         -DE/DX =    0.0                 !
 ! D19   D(5,7,9,10)            24.5417         -DE/DX =    0.0                 !
 ! D20   D(8,7,9,10)          -160.1437         -DE/DX =    0.0                 !
 ! D21   D(7,9,10,2)           -42.9932         -DE/DX =    0.0                 !
 ! D22   D(7,9,10,11)         -165.5093         -DE/DX =    0.0                 !
 ! D23   D(7,9,10,12)           79.2822         -DE/DX =    0.0                 !
 --------------------------------------------------------------------------------
 GradGradGradGradGradGradGradGradGradGradGradGradGradGradGradGradGradGrad

                          Input orientation:                          
 ---------------------------------------------------------------------
 Center     Atomic      Atomic             Coordinates (Angstroms)
 Number     Number       Type             X           Y           Z
 ---------------------------------------------------------------------
      1          1           0        1.963280    1.472077   -0.306293
      2          6           0        1.078206    0.888467   -0.089212
      3          6           0       -0.148222    1.419024   -0.059668
      4          1           0       -0.310514    2.472819   -0.249872
      5          6           0       -1.294047    0.547968    0.143988
      6          1           0       -2.286852    0.943773    0.297709
      7          6           0       -1.118720   -0.772586   -0.015022
      8          1           0       -1.922676   -1.496068   -0.057151
      9          8           0        0.089688   -1.337039   -0.244302
     10          6           0        1.222489   -0.572647    0.223468
     11          1           0        2.090156   -1.018520   -0.260039
     12          1           0        1.310868   -0.739127    1.308732
 ---------------------------------------------------------------------
                    Distance matrix (angstroms):
                    1          2          3          4          5
     1  H    0.000000
     2  C    1.082165   0.000000
     3  C    2.126518   1.336596   0.000000
     4  H    2.484916   2.112943   1.083051   0.000000
     5  C    3.415686   2.407884   1.453661   2.197160   0.000000
     6  H    4.325222   3.387681   2.219757   2.558073   1.079793
     7  C    3.823882   2.755192   2.397293   3.352761   1.341599
     8  H    4.896183   3.833057   3.412690   4.288155   2.147956
     9  O    3.377177   2.440102   2.772467   3.830824   2.370389
    10  C    2.238373   1.501146   2.434290   3.442239   2.755912
    11  H    2.494255   2.165600   3.315434   4.237071   3.750994
    12  H    2.814848   2.158111   2.942631   3.921061   3.130307
                    6          7          8          9         10
     6  H    0.000000
     7  C    2.099576   0.000000
     8  H    2.492263   1.082380   0.000000
     9  O    3.338236   1.353302   2.027295   0.000000
    10  C    3.823678   2.361803   3.289911   1.444418   0.000000
    11  H    4.829066   3.227600   4.046237   2.025728   1.088774
    12  H    4.098525   2.767010   3.590878   2.064145   1.101510
                   11         12
    11  H    0.000000
    12  H    1.773807   0.000000
 Stoichiometry    C5H6O
 Framework group  C1[X(C5H6O)]
 Deg. of freedom    30
 Full point group                 C1      NOp   1
 Largest Abelian subgroup         C1      NOp   1
 Largest concise Abelian subgroup C1      NOp   1
                         Standard orientation:                         
 ---------------------------------------------------------------------
 Center     Atomic      Atomic             Coordinates (Angstroms)
 Number     Number       Type             X           Y           Z
 ---------------------------------------------------------------------
      1          1           0        1.963283    1.472073   -0.306293
      2          6           0        1.078208    0.888465   -0.089212
      3          6           0       -0.148219    1.419024   -0.059668
      4          1           0       -0.310509    2.472820   -0.249872
      5          6           0       -1.294046    0.547971    0.143988
      6          1           0       -2.286850    0.943778    0.297709
      7          6           0       -1.118722   -0.772584   -0.015022
      8          1           0       -1.922679   -1.496064   -0.057151
      9          8           0        0.089685   -1.337039   -0.244302
     10          6           0        1.222488   -0.572650    0.223468
     11          1           0        2.090154   -1.018524   -0.260039
     12          1           0        1.310866   -0.739130    1.308732
 ---------------------------------------------------------------------
 Rotational constants (GHZ):           5.5881729           5.3767973           2.8631600
 1\1\GINC-BHC0134\FOpt\RB3LYP\def2TZVP\C5H6O1\DHANAWAY\21-Mar-2022\0\\#
  Opt B3LYP/Def2TZVP\\int_initalOpt\\0,1\H,1.96328,1.472077,-0.306293\C
 ,1.078206,0.888467,-0.089212\C,-0.148222,1.419024,-0.059668\H,-0.31051
 4,2.472819,-0.249872\C,-1.294047,0.547968,0.143988\H,-2.286852,0.94377
 3,0.297709\C,-1.11872,-0.772586,-0.015022\H,-1.922676,-1.496068,-0.057
 151\O,0.089688,-1.337039,-0.244302\C,1.222489,-0.572647,0.223468\H,2.0
 90156,-1.01852,-0.260039\H,1.310868,-0.739127,1.308732\\Version=ES64L-
 G16RevA.03\State=1-A\HF=-269.4225112\RMSD=7.339e-09\RMSF=3.771e-05\Dip
 ole=0.0939258,0.2337076,0.1289609\Quadrupole=3.0492743,-0.4495222,-2.5
 99752,0.2092336,-0.0468088,-0.7040596\PG=C01 [X(C5H6O1)]\\@


 IF YOU GET CONFUSED, LOGIC OUT YOUR DILEMMA

           --  PICKER X-RAY CORP.    DIGITAL PRINTER MANUAL CA. 1964
 Job cpu time:       0 days  0 hours  4 minutes 59.8 seconds.
 Elapsed time:       0 days  0 hours  0 minutes 33.2 seconds.
 File lengths (MBytes):  RWF=     25 Int=      0 D2E=      0 Chk=     32 Scr=      1
 Normal termination of Gaussian 16 at Mon Mar 21 07:38:02 2022.
