 Entering Gaussian System, Link 0=g16
 Input=int_zmat_field_N75.gjf
 Output=int_zmat_field_N75.out
 Initial command:
 /software/gaussian/g16-a03/l1.exe "/local_scratch/11171886/Gau-29273.inp" -scrdir="/local_scratch/11171886/"
 Entering Link 1 = /software/gaussian/g16-a03/l1.exe PID=     29274.
  
 Copyright (c) 1988,1990,1992,1993,1995,1998,2003,2009,2016,
            Gaussian, Inc.  All Rights Reserved.
  
 This is part of the Gaussian(R) 16 program.  It is based on
 the Gaussian(R) 09 system (copyright 2009, Gaussian, Inc.),
 the Gaussian(R) 03 system (copyright 2003, Gaussian, Inc.),
 the Gaussian(R) 98 system (copyright 1998, Gaussian, Inc.),
 the Gaussian(R) 94 system (copyright 1995, Gaussian, Inc.),
 the Gaussian 92(TM) system (copyright 1992, Gaussian, Inc.),
 the Gaussian 90(TM) system (copyright 1990, Gaussian, Inc.),
 the Gaussian 88(TM) system (copyright 1988, Gaussian, Inc.),
 the Gaussian 86(TM) system (copyright 1986, Carnegie Mellon
 University), and the Gaussian 82(TM) system (copyright 1983,
 Carnegie Mellon University). Gaussian is a federally registered
 trademark of Gaussian, Inc.
  
 This software contains proprietary and confidential information,
 including trade secrets, belonging to Gaussian, Inc.
  
 This software is provided under written license and may be
 used, copied, transmitted, or stored only in accord with that
 written license.
  
 The following legend is applicable only to US Government
 contracts under FAR:
  
                    RESTRICTED RIGHTS LEGEND
  
 Use, reproduction and disclosure by the US Government is
 subject to restrictions as set forth in subparagraphs (a)
 and (c) of the Commercial Computer Software - Restricted
 Rights clause in FAR 52.227-19.
  
 Gaussian, Inc.
 340 Quinnipiac St., Bldg. 40, Wallingford CT 06492
  
  
 ---------------------------------------------------------------
 Warning -- This program may not be used in any manner that
 competes with the business of Gaussian, Inc. or will provide
 assistance to any competitor of Gaussian, Inc.  The licensee
 of this program is prohibited from giving any competitor of
 Gaussian, Inc. access to this program.  By using this program,
 the user acknowledges that Gaussian, Inc. is engaged in the
 business of creating and licensing software in the field of
 computational chemistry and represents and warrants to the
 licensee that it is not a competitor of Gaussian, Inc. and that
 it will not use this program in any manner prohibited above.
 ---------------------------------------------------------------
  

 Cite this work as:
 Gaussian 16, Revision A.03,
 M. J. Frisch, G. W. Trucks, H. B. Schlegel, G. E. Scuseria, 
 M. A. Robb, J. R. Cheeseman, G. Scalmani, V. Barone, 
 G. A. Petersson, H. Nakatsuji, X. Li, M. Caricato, A. V. Marenich, 
 J. Bloino, B. G. Janesko, R. Gomperts, B. Mennucci, H. P. Hratchian, 
 J. V. Ortiz, A. F. Izmaylov, J. L. Sonnenberg, D. Williams-Young, 
 F. Ding, F. Lipparini, F. Egidi, J. Goings, B. Peng, A. Petrone, 
 T. Henderson, D. Ranasinghe, V. G. Zakrzewski, J. Gao, N. Rega, 
 G. Zheng, W. Liang, M. Hada, M. Ehara, K. Toyota, R. Fukuda, 
 J. Hasegawa, M. Ishida, T. Nakajima, Y. Honda, O. Kitao, H. Nakai, 
 T. Vreven, K. Throssell, J. A. Montgomery, Jr., J. E. Peralta, 
 F. Ogliaro, M. J. Bearpark, J. J. Heyd, E. N. Brothers, K. N. Kudin, 
 V. N. Staroverov, T. A. Keith, R. Kobayashi, J. Normand, 
 K. Raghavachari, A. P. Rendell, J. C. Burant, S. S. Iyengar, 
 J. Tomasi, M. Cossi, J. M. Millam, M. Klene, C. Adamo, R. Cammi, 
 J. W. Ochterski, R. L. Martin, K. Morokuma, O. Farkas, 
 J. B. Foresman, and D. J. Fox, Gaussian, Inc., Wallingford CT, 2016.
 
 ******************************************
 Gaussian 16:  ES64L-G16RevA.03 25-Dec-2016
                10-Jun-2022 
 ******************************************
 %nprocshared=12
 Will use up to   12 processors via shared memory.
 %chk=checkpoint.chk
 %mem=12GB
 ----------------------------------------------------------------------
 # Opt=(Z-matrix, MaxStep=10) B3LYP/Def2TZVP geom=allcheckpoint guess=r
 ead Field=read NoSymm freq=noraman pop=none
 ----------------------------------------------------------------------
 1/8=10,10=7,18=40,26=3,29=7,38=1/1,3;
 2/12=2,15=1,29=3,40=1/2;
 3/5=44,7=101,11=2,14=-6,25=1,30=1,71=1,74=-5,116=-2/1,2,3;
 4/5=1/1;
 5/5=2,38=6/2;
 7/29=1,30=1/1,2,3,16;
 1/8=10,10=7,18=40,26=3/3(2);
 2/15=1,29=3/2;
 99//99;
 2/15=1,29=3/2;
 3/5=44,7=101,11=2,14=-2,25=1,30=1,71=1,74=-5/1,2,3;
 4/5=5,16=3,69=1/1;
 5/5=2,38=5/2;
 7/30=1/1,2,3,16;
 1/8=10,18=40,26=3/3(-5);
 2/15=1,29=3/2;
 99/9=1/99;
 Structure from the checkpoint file:  "checkpoint.chk"
 ------------------
 int_zmat_initalOpt
 ------------------
 Charge =  0 Multiplicity = 1
 Z-Matrix found in chk file.
 C
 C,1,R2
 C,1,R3,2,A3
 C,1,R4,2,A4,3,D4,0
 H,1,R5,2,A5,3,D5,0
 H,3,R6,1,A6,2,D6,0
 H,3,R7,1,A7,6,D7,0
 H,4,R8,1,A8,2,D8,0
 H,4,R9,1,A9,8,D9,0
 C,2,R10,1,A10,3,D10,0
 H,2,R11,1,A11,10,D11,0
 H,10,R12,2,A12,1,D12,0
 H,10,R13,2,A13,12,D13,0
      Variables:
 R2=1.48037856
 R3=1.51800771
 R4=1.5012228
 R5=1.08455773
 R6=1.08220628
 R7=1.08155407
 R8=1.08150624
 R9=1.0813311
 R10=1.32979478
 R11=1.08798082
 R12=1.08334799
 R13=1.08306478
 A3=120.33183837
 A4=122.98106617
 A5=113.57848333
 A6=116.91385543
 A7=118.05484086
 A8=118.39147368
 A9=117.59271799
 A10=127.12844993
 A11=114.56770679
 A12=122.13698217
 A13=121.06115056
 D4=71.4559827
 D5=-140.5785675
 D6=5.09511415
 D7=-143.63725186
 D8=-0.93184776
 D9=143.7883452
 D10=-83.04023214
 D11=179.62131675
 D12=-2.05422586
 D13=-179.01457995
 Recover connectivity data from disk.

 GradGradGradGradGradGradGradGradGradGradGradGradGradGradGradGradGradGrad
 Berny optimization.
 Initialization pass.
                       ----------------------------
                       !    Initial Parameters    !
                       ! (Angstroms and Degrees)  !
 ----------------------                            ----------------------
 !      Name          Value   Derivative information (Atomic Units)     !
 ------------------------------------------------------------------------
 !       R2          1.4804   estimate D2E/DX2                          !
 !       R3          1.518    estimate D2E/DX2                          !
 !       R4          1.5012   estimate D2E/DX2                          !
 !       R5          1.0846   estimate D2E/DX2                          !
 !       R6          1.0822   estimate D2E/DX2                          !
 !       R7          1.0816   estimate D2E/DX2                          !
 !       R8          1.0815   estimate D2E/DX2                          !
 !       R9          1.0813   estimate D2E/DX2                          !
 !       R10         1.3298   estimate D2E/DX2                          !
 !       R11         1.088    estimate D2E/DX2                          !
 !       R12         1.0833   estimate D2E/DX2                          !
 !       R13         1.0831   estimate D2E/DX2                          !
 !       A3        120.3318   estimate D2E/DX2                          !
 !       A4        122.9811   estimate D2E/DX2                          !
 !       A5        113.5785   estimate D2E/DX2                          !
 !       A6        116.9139   estimate D2E/DX2                          !
 !       A7        118.0548   estimate D2E/DX2                          !
 !       A8        118.3915   estimate D2E/DX2                          !
 !       A9        117.5927   estimate D2E/DX2                          !
 !       A10       127.1284   estimate D2E/DX2                          !
 !       A11       114.5677   estimate D2E/DX2                          !
 !       A12       122.137    estimate D2E/DX2                          !
 !       A13       121.0612   estimate D2E/DX2                          !
 !       D4         71.456    estimate D2E/DX2                          !
 !       D5       -140.5786   estimate D2E/DX2                          !
 !       D6          5.0951   estimate D2E/DX2                          !
 !       D7       -143.6373   estimate D2E/DX2                          !
 !       D8         -0.9318   estimate D2E/DX2                          !
 !       D9        143.7883   estimate D2E/DX2                          !
 !       D10       -83.0402   estimate D2E/DX2                          !
 !       D11       179.6213   estimate D2E/DX2                          !
 !       D12        -2.0542   estimate D2E/DX2                          !
 !       D13      -179.0146   estimate D2E/DX2                          !
 ------------------------------------------------------------------------
 Trust Radius=1.00D-01 FncErr=1.00D-07 GrdErr=1.00D-06 EigMax=2.50D+02 EigMin=1.00D-04
 Number of steps in this run=     43 maximum allowed number of steps=    100.
 GradGradGradGradGradGradGradGradGradGradGradGradGradGradGradGradGradGrad

 ---------------------------------------------------------------------------------------------------
                            Z-MATRIX (ANGSTROMS AND DEGREES)
   CD    Cent   Atom    N1       Length/X        N2       Alpha/Y        N3        Beta/Z          J
 ---------------------------------------------------------------------------------------------------
      1      1  C 
      2      2  C        1   1.480379(     1)
      3      3  C        1   1.518008(     2)      2  120.332(    13)
      4      4  C        1   1.501223(     3)      2  122.981(    14)      3   71.456(    24)      0
      5      5  H        1   1.084558(     4)      2  113.578(    15)      3 -140.579(    25)      0
      6      6  H        3   1.082206(     5)      1  116.914(    16)      2    5.095(    26)      0
      7      7  H        3   1.081554(     6)      1  118.055(    17)      6 -143.637(    27)      0
      8      8  H        4   1.081506(     7)      1  118.391(    18)      2   -0.932(    28)      0
      9      9  H        4   1.081331(     8)      1  117.593(    19)      8  143.788(    29)      0
     10     10  C        2   1.329795(     9)      1  127.128(    20)      3  -83.040(    30)      0
     11     11  H        2   1.087981(    10)      1  114.568(    21)     10  179.621(    31)      0
     12     12  H       10   1.083348(    11)      2  122.137(    22)      1   -2.054(    32)      0
     13     13  H       10   1.083065(    12)      2  121.061(    23)     12 -179.015(    33)      0
 ---------------------------------------------------------------------------------------------------
                         Z-Matrix orientation:                         
 ---------------------------------------------------------------------
 Center     Atomic      Atomic             Coordinates (Angstroms)
 Number     Number       Type             X           Y           Z
 ---------------------------------------------------------------------
      1          6           0        0.000000    0.000000    0.000000
      2          6           0        0.000000    0.000000    1.480379
      3          6           0        1.310215    0.000000   -0.766605
      4          6           0        0.400500   -1.193918   -0.817208
      5          1           0       -0.767870    0.631217   -0.433828
      6          1           0        2.218423   -0.085700   -0.184382
      7          1           0        1.388017    0.631924   -1.640892
      8          1           0        0.717055   -2.088940   -0.299151
      9          1           0       -0.146751   -1.382022   -1.730669
     10          6           0        0.128470   -1.052412    2.283048
     11          1           0       -0.113404    0.982966    1.932726
     12          1           0        0.218556   -2.061758    1.899970
     13          1           0        0.131789   -0.936779    3.359917
 ---------------------------------------------------------------------
                    Distance matrix (angstroms):
                    1          2          3          4          5
     1  C    0.000000
     2  C    1.480379   0.000000
     3  C    1.518008   2.601077   0.000000
     4  C    1.501223   2.620066   1.501860   0.000000
     5  H    1.084558   2.156907   2.197183   2.200723   0.000000
     6  H    2.227722   2.774919   1.082206   2.221140   3.081256
     7  H    2.240189   3.473938   1.081554   2.233236   2.470799
     8  H    2.228751   2.836294   2.221266   1.081506   3.101998
     9  H    2.219625   3.498907   2.227589   1.081331   2.474007
    10  C    2.517217   1.329795   3.435764   3.115383   3.319555
    11  H    2.171293   1.087981   3.206136   3.544724   2.480451
    12  H    2.812206   2.115342   3.543048   2.858201   3.697535
    13  H    3.490554   2.104184   4.392543   4.193650   4.202440
                    6          7          8          9         10
     6  H    0.000000
     7  H    1.823728   0.000000
     8  H    2.506043   3.107018   0.000000
     9  H    3.108940   2.533683   1.815252   0.000000
    10  C    3.375003   4.452050   2.844042   4.036622   0.000000
    11  H    3.325901   3.892074   3.886843   4.360590   2.079422
    12  H    3.499828   4.600138   2.255077   3.711743   1.083348
    13  H    4.200052   5.389530   3.880566   5.117606   1.083065
                   11         12         13
    11  H    0.000000
    12  H    3.062943   0.000000
    13  H    2.404666   1.845142   0.000000
 Symmetry turned off by external request.
 Stoichiometry    C5H8
 Framework group  C1[X(C5H8)]
 Deg. of freedom    33
 Full point group                 C1      NOp   1
 Rotational constants (GHZ):          11.6124917           3.6626494           3.3274607
 Standard basis: def2TZVP (5D, 7F)
 The following finite field(s) will be applied:
 An electric field of              0.0035 -0.0019  0.0063
   203 basis functions,   319 primitive gaussians,   228 cartesian basis functions
    19 alpha electrons       19 beta electrons
       nuclear repulsion energy       165.0979453393 Hartrees.
 NAtoms=   13 NActive=   13 NUniq=   13 SFac= 1.00D+00 NAtFMM=   60 NAOKFM=F Big=F
 Integral buffers will be    131072 words long.
 Raffenetti 2 integral format.
 Two-electron integral symmetry is turned off.
 One-electron integrals computed using PRISM.
   1 Symmetry operations used in ECPInt.
 ECPInt:  NShTT=    3828 NPrTT=   11160 LenC2=    3810 LenP2D=    9476.
 LDataN:  DoStor=T MaxTD1= 6 Len=  172
 NBasis=   203 RedAO= T EigKep=  1.49D-04  NBF=   203
 NBsUse=   203 1.00D-06 EigRej= -1.00D+00 NBFU=   203
 The nuclear repulsion energy is now       165.4518708747 hartrees.
 Initial guess from the checkpoint file:  "checkpoint.chk"
 B after Tr=    -0.000000    0.000000    0.000000
         Rot=    1.000000   -0.000000   -0.000000    0.000000 Ang=   0.00 deg.
 Requested convergence on RMS density matrix=1.00D-08 within 128 cycles.
 Requested convergence on MAX density matrix=1.00D-06.
 Requested convergence on             energy=1.00D-06.
 No special actions if energy rises.
 SCF Done:  E(RB3LYP) =  -195.370234545     A.U. after    9 cycles
            NFock=  9  Conv=0.87D-08     -V/T= 2.0057
   1 Symmetry operations used in ECPInt.
 ECPInt:  NShTT=    3828 NPrTT=   11160 LenC2=    3810 LenP2D=    9476.
 LDataN:  DoStor=T MaxTD1= 7 Len=  274
 Calling FoFJK, ICntrl=      2127 FMM=F ISym2X=0 I1Cent= 0 IOpClX= 0 NMat=1 NMatS=1 NMatT=0.
 -------------------------------------------------------------------
 Center     Atomic                   Forces (Hartrees/Bohr)
 Number     Number              X              Y              Z
 -------------------------------------------------------------------
      1        6          -0.000808054   -0.000300233    0.000325380
      2        6           0.000511600    0.000464804   -0.001045154
      3        6           0.000047049    0.000017177   -0.000257509
      4        6           0.000046199    0.000219797   -0.000073105
      5        1           0.000104499    0.000016648    0.000094734
      6        1           0.000147069   -0.000032805    0.000116501
      7        1          -0.000103814   -0.000016120    0.000108035
      8        1           0.000036785   -0.000109654    0.000063555
      9        1           0.000011609    0.000096713    0.000081433
     10        6           0.000496444   -0.000491693    0.000323977
     11        1          -0.000202084    0.000061472    0.000009294
     12        1          -0.000135955   -0.000022015   -0.000110523
     13        1          -0.000151347    0.000095911    0.000363380
 -------------------------------------------------------------------
 Cartesian Forces:  Max     0.001045154 RMS     0.000299127
 -----------------------------------------------------------------------------------------------
                       Internal Coordinate Forces (Hartree/Bohr or radian)
  Cent   Atom   N1       Length/X         N2         Alpha/Y        N3         Beta/Z          J
 -----------------------------------------------------------------------------------------------
      1  C 
      2  C        1  -0.000459(     1)
      3  C        1   0.000095(     2)      2   0.000068(    13)
      4  C        1  -0.000178(     3)      2   0.000236(    14)      3  -0.000271(    24)     0
      5  H        1  -0.000102(     4)      2  -0.000120(    15)      3   0.000149(    25)     0
      6  H        3   0.000189(     5)      1  -0.000040(    16)      2   0.000058(    26)     0
      7  H        3  -0.000104(     6)      1  -0.000220(    17)      6   0.000027(    27)     0
      8  H        4   0.000132(     7)      1  -0.000001(    18)      2   0.000041(    28)     0
      9  H        4  -0.000091(     8)      1  -0.000175(    19)      8   0.000038(    29)     0
     10  C        2   0.000699(     9)      1   0.000433(    20)      3   0.000447(    30)     0
     11  H        2   0.000080(    10)      1  -0.000055(    21)     10   0.000362(    31)     0
     12  H       10   0.000048(    11)      2  -0.000213(    22)      1   0.000022(    32)     0
     13  H       10   0.000371(    12)      2  -0.000150(    23)     12   0.000255(    33)     0
 -----------------------------------------------------------------------------------------------
 Internal  Forces:  Max     0.000699033 RMS     0.000238837

 GradGradGradGradGradGradGradGradGradGradGradGradGradGradGradGradGradGrad
 Berny optimization.
 Search for a local minimum.
 Step number   1 out of a maximum of   43
 All quantities printed in internal units (Hartrees-Bohrs-Radians)
 Second derivative matrix not updated -- first step.
 ITU=  0
     Eigenvalues ---    0.01618   0.03418   0.05072   0.06077   0.06662
     Eigenvalues ---    0.11013   0.13122   0.14838   0.17131   0.17840
     Eigenvalues ---    0.19828   0.20742   0.22539   0.32708   0.34526
     Eigenvalues ---    0.35047   0.35449   0.35593   0.35627   0.35729
     Eigenvalues ---    0.35807   0.35813   0.35834   0.39600   0.43373
     Eigenvalues ---    0.46040   0.48184   0.48701   0.49447   0.59554
     Eigenvalues ---    0.68170   1.27439   2.39049
 RFO step:  Lambda=-1.29264151D-05 EMin= 1.61826936D-02
 Linear search not attempted -- first point.
 Variable       Old X    -DE/DX   Delta X   Delta X   Delta X     New X
                                 (Linear)    (Quad)   (Total)
    R2        2.79751  -0.00046   0.00000  -0.00133  -0.00133   2.79618
    R3        2.86862   0.00009   0.00000   0.00064   0.00064   2.86926
    R4        2.83690  -0.00018   0.00000  -0.00000  -0.00000   2.83690
    R5        2.04952  -0.00010   0.00000  -0.00029  -0.00029   2.04923
    R6        2.04507   0.00019   0.00000   0.00053   0.00053   2.04560
    R7        2.04384  -0.00010   0.00000  -0.00029  -0.00029   2.04355
    R8        2.04375   0.00013   0.00000   0.00037   0.00037   2.04412
    R9        2.04342  -0.00009   0.00000  -0.00025  -0.00025   2.04316
   R10        2.51295   0.00070   0.00000   0.00115   0.00115   2.51410
   R11        2.05599   0.00008   0.00000   0.00023   0.00023   2.05622
   R12        2.04723   0.00005   0.00000   0.00012   0.00012   2.04735
   R13        2.04670   0.00037   0.00000   0.00104   0.00104   2.04774
    A3        2.10019   0.00007   0.00000  -0.00053  -0.00053   2.09965
    A4        2.14642   0.00024   0.00000  -0.00011  -0.00011   2.14632
    A5        1.98232  -0.00012   0.00000   0.00004   0.00004   1.98236
    A6        2.04053  -0.00004   0.00000   0.00017   0.00017   2.04071
    A7        2.06045  -0.00022   0.00000  -0.00089  -0.00089   2.05955
    A8        2.06632  -0.00000   0.00000   0.00023   0.00023   2.06655
    A9        2.05238  -0.00017   0.00000  -0.00076  -0.00076   2.05162
   A10        2.21881   0.00043   0.00000   0.00187   0.00187   2.22068
   A11        1.99958  -0.00005   0.00000  -0.00113  -0.00113   1.99845
   A12        2.13169  -0.00021   0.00000  -0.00033  -0.00033   2.13137
   A13        2.11292  -0.00015   0.00000  -0.00052  -0.00052   2.11239
    D4        1.24714  -0.00027   0.00000  -0.00091  -0.00091   1.24623
    D5       -2.45356   0.00015   0.00000  -0.00158  -0.00158  -2.45514
    D6        0.08893   0.00006   0.00000   0.00005   0.00005   0.08898
    D7       -2.50694   0.00003   0.00000   0.00041   0.00041  -2.50653
    D8       -0.01626   0.00004   0.00000   0.00091   0.00091  -0.01535
    D9        2.50958   0.00004   0.00000  -0.00038  -0.00038   2.50920
   D10       -1.44933   0.00045   0.00000   0.01860   0.01860  -1.43073
   D11        3.13498   0.00036   0.00000   0.00086   0.00086   3.13585
   D12       -0.03585   0.00002   0.00000   0.00231   0.00231  -0.03354
   D13       -3.12439   0.00025   0.00000   0.00313   0.00313  -3.12127
         Item               Value     Threshold  Converged?
 Maximum Force            0.000699     0.000450     NO 
 RMS     Force            0.000239     0.000300     YES
 Maximum Displacement     0.018598     0.001800     NO 
 RMS     Displacement     0.003386     0.001200     NO 
 Predicted change in Energy=-6.463206D-06
 GradGradGradGradGradGradGradGradGradGradGradGradGradGradGradGradGradGrad

 ---------------------------------------------------------------------------------------------------
                            Z-MATRIX (ANGSTROMS AND DEGREES)
   CD    Cent   Atom    N1       Length/X        N2       Alpha/Y        N3        Beta/Z          J
 ---------------------------------------------------------------------------------------------------
      1      1  C 
      2      2  C        1   1.479675(     1)
      3      3  C        1   1.518348(     2)      2  120.301(    13)
      4      4  C        1   1.501221(     3)      2  122.975(    14)      3   71.404(    24)      0
      5      5  H        1   1.084405(     4)      2  113.581(    15)      3 -140.669(    25)      0
      6      6  H        3   1.082486(     5)      1  116.924(    16)      2    5.098(    26)      0
      7      7  H        3   1.081400(     6)      1  118.004(    17)      6 -143.614(    27)      0
      8      8  H        4   1.081701(     7)      1  118.405(    18)      2   -0.880(    28)      0
      9      9  H        4   1.081196(     8)      1  117.549(    19)      8  143.766(    29)      0
     10     10  C        2   1.330403(     9)      1  127.236(    20)      3  -81.975(    30)      0
     11     11  H        2   1.088102(    10)      1  114.503(    21)     10  179.671(    31)      0
     12     12  H       10   1.083412(    11)      2  122.118(    22)      1   -1.922(    32)      0
     13     13  H       10   1.083617(    12)      2  121.031(    23)     12 -178.836(    33)      0
 ---------------------------------------------------------------------------------------------------
                         Z-Matrix orientation:                         
 ---------------------------------------------------------------------
 Center     Atomic      Atomic             Coordinates (Angstroms)
 Number     Number       Type             X           Y           Z
 ---------------------------------------------------------------------
      1          6           0        0.000000    0.000000    0.000000
      2          6           0        0.000000    0.000000    1.479675
      3          6           0        1.310918    0.000000   -0.766078
      4          6           0        0.401616   -1.193636   -0.817069
      5          1           0       -0.768745    0.629900   -0.433810
      6          1           0        2.219150   -0.085763   -0.183381
      7          1           0        1.388416    0.632464   -1.639811
      8          1           0        0.718245   -2.088874   -0.299023
      9          1           0       -0.145503   -1.381357   -1.730528
     10          6           0        0.147877   -1.048831    2.284696
     11          1           0       -0.132594    0.981191    1.930952
     12          1           0        0.258905   -2.056720    1.903103
     13          1           0        0.143684   -0.931196    3.361901
 ---------------------------------------------------------------------
                    Distance matrix (angstroms):
                    1          2          3          4          5
     1  C    0.000000
     2  C    1.479675   0.000000
     3  C    1.518348   2.600368   0.000000
     4  C    1.501221   2.619370   1.501398   0.000000
     5  H    1.084405   2.156193   2.198221   2.200436   0.000000
     6  H    2.228365   2.774479   1.082486   2.220895   3.082597
     7  H    2.239797   3.472593   1.081400   2.232783   2.471394
     8  H    2.229055   2.836025   2.220990   1.081701   3.101781
     9  H    2.219019   3.497817   2.226988   1.081196   2.472866
    10  C    2.518283   1.330403   3.429276   3.115494   3.323945
    11  H    2.169998   1.088102   3.212542   3.544978   2.473902
    12  H    2.814060   2.115756   3.530065   2.857380   3.706098
    13  H    3.491440   2.104886   4.389735   4.195140   4.204399
                    6          7          8          9         10
     6  H    0.000000
     7  H    1.824049   0.000000
     8  H    2.505702   3.106851   0.000000
     9  H    3.108667   2.533103   1.815447   0.000000
    10  C    3.362897   4.446060   2.842994   4.039638   0.000000
    11  H    3.337587   3.896848   3.888703   4.357549   2.079612
    12  H    3.475723   4.589090   2.249753   3.717922   1.083412
    13  H    4.194203   5.386234   3.882358   5.120460   1.083617
                   11         12         13
    11  H    0.000000
    12  H    3.063160   0.000000
    13  H    2.404406   1.846123   0.000000
 Symmetry turned off by external request.
 Stoichiometry    C5H8
 Framework group  C1[X(C5H8)]
 Deg. of freedom    33
 Full point group                 C1      NOp   1
 Rotational constants (GHZ):          11.5928397           3.6638120           3.3338114
 Standard basis: def2TZVP (5D, 7F)
 The following finite field(s) will be applied:
 An electric field of              0.0035 -0.0019  0.0063
   203 basis functions,   319 primitive gaussians,   228 cartesian basis functions
    19 alpha electrons       19 beta electrons
       nuclear repulsion energy       165.1142223479 Hartrees.
 NAtoms=   13 NActive=   13 NUniq=   13 SFac= 1.00D+00 NAtFMM=   60 NAOKFM=F Big=F
 Integral buffers will be    131072 words long.
 Raffenetti 2 integral format.
 Two-electron integral symmetry is turned off.
 One-electron integrals computed using PRISM.
   1 Symmetry operations used in ECPInt.
 ECPInt:  NShTT=    3828 NPrTT=   11160 LenC2=    3810 LenP2D=    9475.
 LDataN:  DoStor=T MaxTD1= 6 Len=  172
 NBasis=   203 RedAO= T EigKep=  1.49D-04  NBF=   203
 NBsUse=   203 1.00D-06 EigRej= -1.00D+00 NBFU=   203
 The nuclear repulsion energy is now       165.4693072239 hartrees.
 Initial guess from the checkpoint file:  "checkpoint.chk"
 B after Tr=     0.001281   -0.003481    0.001444
         Rot=    0.999995    0.000783   -0.001405   -0.002607 Ang=   0.35 deg.
 Requested convergence on RMS density matrix=1.00D-08 within 128 cycles.
 Requested convergence on MAX density matrix=1.00D-06.
 Requested convergence on             energy=1.00D-06.
 No special actions if energy rises.
 SCF Done:  E(RB3LYP) =  -195.370243061     A.U. after    8 cycles
            NFock=  8  Conv=0.65D-08     -V/T= 2.0057
   1 Symmetry operations used in ECPInt.
 ECPInt:  NShTT=    3828 NPrTT=   11160 LenC2=    3810 LenP2D=    9475.
 LDataN:  DoStor=T MaxTD1= 7 Len=  274
 Calling FoFJK, ICntrl=      2127 FMM=F ISym2X=0 I1Cent= 0 IOpClX= 0 NMat=1 NMatS=1 NMatT=0.
 -------------------------------------------------------------------
 Center     Atomic                   Forces (Hartrees/Bohr)
 Number     Number              X              Y              Z
 -------------------------------------------------------------------
      1        6          -0.000551645   -0.000532538    0.000276653
      2        6           0.000352371    0.000265590   -0.000257320
      3        6           0.000146085    0.000090439   -0.000259028
      4        6           0.000157753    0.000046112   -0.000033349
      5        1           0.000154930    0.000100077    0.000055592
      6        1          -0.000067227    0.000061670    0.000059671
      7        1          -0.000030657    0.000005237   -0.000011319
      8        1          -0.000041285   -0.000016270   -0.000000902
      9        1          -0.000033269    0.000040707    0.000009302
     10        6           0.000275676   -0.000018122    0.000190244
     11        1          -0.000224962   -0.000051683    0.000026573
     12        1          -0.000212603   -0.000022954   -0.000006441
     13        1           0.000074831    0.000031736   -0.000049676
 -------------------------------------------------------------------
 Cartesian Forces:  Max     0.000551645 RMS     0.000184416
 -----------------------------------------------------------------------------------------------
                       Internal Coordinate Forces (Hartree/Bohr or radian)
  Cent   Atom   N1       Length/X         N2         Alpha/Y        N3         Beta/Z          J
 -----------------------------------------------------------------------------------------------
      1  C 
      2  C        1  -0.000097(     1)
      3  C        1   0.000148(     2)      2   0.000328(    13)
      4  C        1  -0.000020(     3)      2   0.000210(    14)      3  -0.000108(    24)     0
      5  H        1  -0.000074(     4)      2  -0.000058(    15)      3   0.000330(    25)     0
      6  H        3  -0.000029(     5)      1  -0.000172(    16)      2  -0.000138(    26)     0
      7  H        3   0.000010(     6)      1  -0.000059(    17)      6  -0.000023(    27)     0
      8  H        4   0.000001(     7)      1   0.000004(    18)      2   0.000074(    28)     0
      9  H        4   0.000002(     8)      1  -0.000109(    19)      8  -0.000006(    29)     0
     10  C        2   0.000104(     9)      1   0.000261(    20)      3   0.000274(    30)     0
     11  H        2  -0.000008(    10)      1   0.000068(    21)     10   0.000430(    31)     0
     12  H       10   0.000002(    11)      2  -0.000025(    22)      1  -0.000509(    32)     0
     13  H       10  -0.000046(    12)      2  -0.000055(    23)     12  -0.000138(    33)     0
 -----------------------------------------------------------------------------------------------
 Internal  Forces:  Max     0.000508745 RMS     0.000175049

 GradGradGradGradGradGradGradGradGradGradGradGradGradGradGradGradGradGrad
 Berny optimization.
 Search for a local minimum.
 Step number   2 out of a maximum of   43
 All quantities printed in internal units (Hartrees-Bohrs-Radians)
 Update second derivatives using D2CorN and points    1    2
 DE= -8.52D-06 DEPred=-6.46D-06 R= 1.32D+00
 TightC=F SS=  1.41D+00  RLast= 1.95D-02 DXNew= 1.6818D-01 5.8361D-02
 Trust test= 1.32D+00 RLast= 1.95D-02 DXMaxT set to 1.00D-01
 ITU=  1  0
     Eigenvalues ---    0.00853   0.03459   0.05068   0.06032   0.06635
     Eigenvalues ---    0.10916   0.13108   0.14818   0.17146   0.17789
     Eigenvalues ---    0.19827   0.20733   0.22535   0.32705   0.34496
     Eigenvalues ---    0.35048   0.35444   0.35593   0.35640   0.35734
     Eigenvalues ---    0.35808   0.35813   0.35834   0.39600   0.43363
     Eigenvalues ---    0.46028   0.48186   0.48685   0.49423   0.59524
     Eigenvalues ---    0.68173   1.27440   2.39041
 RFO step:  Lambda=-1.16786117D-05 EMin= 8.52997619D-03
 Quartic linear search produced a step of  0.47996.
 Variable       Old X    -DE/DX   Delta X   Delta X   Delta X     New X
                                 (Linear)    (Quad)   (Total)
    R2        2.79618  -0.00010  -0.00064   0.00006  -0.00058   2.79560
    R3        2.86926   0.00015   0.00031   0.00100   0.00131   2.87057
    R4        2.83690  -0.00002  -0.00000   0.00053   0.00053   2.83743
    R5        2.04923  -0.00007  -0.00014  -0.00027  -0.00041   2.04882
    R6        2.04560  -0.00003   0.00025  -0.00039  -0.00013   2.04547
    R7        2.04355   0.00001  -0.00014   0.00018   0.00004   2.04359
    R8        2.04412   0.00000   0.00018  -0.00016   0.00002   2.04414
    R9        2.04316   0.00000  -0.00012   0.00012   0.00000   2.04317
   R10        2.51410   0.00010   0.00055  -0.00023   0.00032   2.51442
   R11        2.05622  -0.00001   0.00011  -0.00015  -0.00004   2.05618
   R12        2.04735   0.00000   0.00006  -0.00006  -0.00000   2.04735
   R13        2.04774  -0.00005   0.00050  -0.00071  -0.00021   2.04753
    A3        2.09965   0.00033  -0.00026   0.00081   0.00055   2.10021
    A4        2.14632   0.00021  -0.00005   0.00002  -0.00003   2.14628
    A5        1.98236  -0.00006   0.00002  -0.00030  -0.00028   1.98209
    A6        2.04071  -0.00017   0.00008  -0.00165  -0.00157   2.03914
    A7        2.05955  -0.00006  -0.00043   0.00034  -0.00008   2.05947
    A8        2.06655   0.00000   0.00011  -0.00029  -0.00017   2.06638
    A9        2.05162  -0.00011  -0.00037  -0.00046  -0.00083   2.05079
   A10        2.22068   0.00026   0.00090   0.00109   0.00199   2.22267
   A11        1.99845   0.00007  -0.00054  -0.00013  -0.00067   1.99778
   A12        2.13137  -0.00003  -0.00016   0.00050   0.00034   2.13171
   A13        2.11239  -0.00005  -0.00025  -0.00052  -0.00077   2.11162
    D4        1.24623  -0.00011  -0.00044  -0.00028  -0.00072   1.24551
    D5       -2.45514   0.00033  -0.00076   0.00069  -0.00007  -2.45521
    D6        0.08898  -0.00014   0.00002  -0.00277  -0.00275   0.08623
    D7       -2.50653  -0.00002   0.00020   0.00170   0.00189  -2.50464
    D8       -0.01535   0.00007   0.00044   0.00064   0.00107  -0.01428
    D9        2.50920  -0.00001  -0.00018  -0.00140  -0.00159   2.50761
   D10       -1.43073   0.00027   0.00893   0.01797   0.02689  -1.40384
   D11        3.13585   0.00043   0.00041  -0.00364  -0.00323   3.13262
   D12       -0.03354  -0.00051   0.00111  -0.00985  -0.00874  -0.04228
   D13       -3.12127  -0.00014   0.00150   0.00048   0.00198  -3.11929
         Item               Value     Threshold  Converged?
 Maximum Force            0.000509     0.000450     NO 
 RMS     Force            0.000175     0.000300     YES
 Maximum Displacement     0.026892     0.001800     NO 
 RMS     Displacement     0.005047     0.001200     NO 
 Predicted change in Energy=-5.169441D-06
 GradGradGradGradGradGradGradGradGradGradGradGradGradGradGradGradGradGrad

 ---------------------------------------------------------------------------------------------------
                            Z-MATRIX (ANGSTROMS AND DEGREES)
   CD    Cent   Atom    N1       Length/X        N2       Alpha/Y        N3        Beta/Z          J
 ---------------------------------------------------------------------------------------------------
      1      1  C 
      2      2  C        1   1.479368(     1)
      3      3  C        1   1.519040(     2)      2  120.333(    13)
      4      4  C        1   1.501501(     3)      2  122.973(    14)      3   71.363(    24)      0
      5      5  H        1   1.084191(     4)      2  113.565(    15)      3 -140.673(    25)      0
      6      6  H        3   1.082415(     5)      1  116.834(    16)      2    4.941(    26)      0
      7      7  H        3   1.081423(     6)      1  117.999(    17)      6 -143.505(    27)      0
      8      8  H        4   1.081711(     7)      1  118.395(    18)      2   -0.818(    28)      0
      9      9  H        4   1.081197(     8)      1  117.501(    19)      8  143.675(    29)      0
     10     10  C        2   1.330573(     9)      1  127.350(    20)      3  -80.434(    30)      0
     11     11  H        2   1.088083(    10)      1  114.464(    21)     10  179.486(    31)      0
     12     12  H       10   1.083411(    11)      2  122.138(    22)      1   -2.422(    32)      0
     13     13  H       10   1.083508(    12)      2  120.987(    23)     12 -178.722(    33)      0
 ---------------------------------------------------------------------------------------------------
                         Z-Matrix orientation:                         
 ---------------------------------------------------------------------
 Center     Atomic      Atomic             Coordinates (Angstroms)
 Number     Number       Type             X           Y           Z
 ---------------------------------------------------------------------
      1          6           0        0.000000    0.000000    0.000000
      2          6           0        0.000000    0.000000    1.479368
      3          6           0        1.311090    0.000000   -0.767154
      4          6           0        0.402556   -1.193597   -0.817178
      5          1           0       -0.768730    0.629797   -0.433450
      6          1           0        2.218783   -0.083182   -0.183376
      7          1           0        1.387747    0.631896   -1.641401
      8          1           0        0.718833   -2.088847   -0.298915
      9          1           0       -0.145248   -1.381299   -1.730231
     10          6           0        0.175780   -1.043025    2.286600
     11          1           0       -0.155817    0.978061    1.929968
     12          1           0        0.306093   -2.049589    1.907618
     13          1           0        0.174143   -0.921645    3.363287
 ---------------------------------------------------------------------
                    Distance matrix (angstroms):
                    1          2          3          4          5
     1  C    0.000000
     2  C    1.479368   0.000000
     3  C    1.519040   2.601118   0.000000
     4  C    1.501501   2.619322   1.500870   0.000000
     5  H    1.084191   2.155565   2.198557   2.200892   0.000000
     6  H    2.227901   2.773920   1.082415   2.221128   3.081576
     7  H    2.240386   3.473374   1.081423   2.232122   2.471749
     8  H    2.229204   2.835893   2.221102   1.081711   3.101930
     9  H    2.218734   3.497228   2.226302   1.081197   2.472828
    10  C    2.519393   1.330573   3.420854   3.115692   3.330031
    11  H    2.169253   1.088083   3.222249   3.546081   2.466312
    12  H    2.816650   2.116107   3.516425   2.857717   3.716848
    13  H    3.491626   2.104497   4.382079   4.195523   4.208466
                    6          7          8          9         10
     6  H    0.000000
     7  H    1.824224   0.000000
     8  H    2.507168   3.106791   0.000000
     9  H    3.109101   2.531978   1.815468   0.000000
    10  C    3.346034   4.438853   2.841397   4.043812   0.000000
    11  H    3.351296   3.906033   3.890869   4.354738   2.078926
    12  H    3.449261   4.577759   2.245147   3.726160   1.083411
    13  H    4.178803   5.378961   3.882109   5.124179   1.083508
                   11         12         13
    11  H    0.000000
    12  H    3.062765   0.000000
    13  H    2.402532   1.846250   0.000000
 Symmetry turned off by external request.
 Stoichiometry    C5H8
 Framework group  C1[X(C5H8)]
 Deg. of freedom    33
 Full point group                 C1      NOp   1
 Rotational constants (GHZ):          11.5659332           3.6644900           3.3414785
 Standard basis: def2TZVP (5D, 7F)
 The following finite field(s) will be applied:
 An electric field of              0.0035 -0.0019  0.0063
   203 basis functions,   319 primitive gaussians,   228 cartesian basis functions
    19 alpha electrons       19 beta electrons
       nuclear repulsion energy       165.1279157942 Hartrees.
 NAtoms=   13 NActive=   13 NUniq=   13 SFac= 1.00D+00 NAtFMM=   60 NAOKFM=F Big=F
 Integral buffers will be    131072 words long.
 Raffenetti 2 integral format.
 Two-electron integral symmetry is turned off.
 One-electron integrals computed using PRISM.
   1 Symmetry operations used in ECPInt.
 ECPInt:  NShTT=    3828 NPrTT=   11160 LenC2=    3810 LenP2D=    9474.
 LDataN:  DoStor=T MaxTD1= 6 Len=  172
 NBasis=   203 RedAO= T EigKep=  1.48D-04  NBF=   203
 NBsUse=   203 1.00D-06 EigRej= -1.00D+00 NBFU=   203
 The nuclear repulsion energy is now       165.4844234397 hartrees.
 Initial guess from the checkpoint file:  "checkpoint.chk"
 B after Tr=     0.001481   -0.004388    0.001918
         Rot=    0.999991    0.001150   -0.002431   -0.003416 Ang=   0.50 deg.
 ExpMin= 9.52D-02 ExpMax= 1.36D+04 ExpMxC= 4.63D+02 IAcc=2 IRadAn=         4 AccDes= 0.00D+00
 Harris functional with IExCor=  402 and IRadAn=       4 diagonalized for initial guess.
 HarFok:  IExCor=  402 AccDes= 0.00D+00 IRadAn=         4 IDoV= 1 UseB2=F ITyADJ=14
 ICtDFT=  3500011 ScaDFX=  1.000000  1.000000  1.000000  1.000000
 FoFCou: FMM=F IPFlag=           0 FMFlag=      100000 FMFlg1=           0
         NFxFlg=           0 DoJE=T BraDBF=F KetDBF=T FulRan=T
         wScrn=  0.000000 ICntrl=       500 IOpCl=  0 I1Cent=   200000004 NGrid=           0
         NMat0=    1 NMatS0=      1 NMatT0=    0 NMatD0=    1 NMtDS0=    0 NMtDT0=    0
 Symmetry not used in FoFCou.
 Requested convergence on RMS density matrix=1.00D-08 within 128 cycles.
 Requested convergence on MAX density matrix=1.00D-06.
 Requested convergence on             energy=1.00D-06.
 No special actions if energy rises.
 Integral accuracy reduced to 1.0D-05 until final iterations.
 Initial convergence to 1.0D-05 achieved.  Increase integral accuracy.
 SCF Done:  E(RB3LYP) =  -195.370250095     A.U. after    9 cycles
            NFock=  9  Conv=0.73D-08     -V/T= 2.0057
   1 Symmetry operations used in ECPInt.
 ECPInt:  NShTT=    3828 NPrTT=   11160 LenC2=    3810 LenP2D=    9474.
 LDataN:  DoStor=T MaxTD1= 7 Len=  274
 Calling FoFJK, ICntrl=      2127 FMM=F ISym2X=0 I1Cent= 0 IOpClX= 0 NMat=1 NMatS=1 NMatT=0.
 -------------------------------------------------------------------
 Center     Atomic                   Forces (Hartrees/Bohr)
 Number     Number              X              Y              Z
 -------------------------------------------------------------------
      1        6          -0.000741770   -0.000624885    0.000178460
      2        6           0.000622014    0.000428643   -0.000079600
      3        6           0.000082324    0.000142737   -0.000092054
      4        6           0.000142898    0.000049102   -0.000034830
      5        1           0.000072857    0.000056595   -0.000040881
      6        1          -0.000009051   -0.000012210    0.000018738
      7        1          -0.000049072    0.000041884    0.000034966
      8        1          -0.000038700   -0.000004736   -0.000002079
      9        1          -0.000023401    0.000015508    0.000004697
     10        6           0.000044049   -0.000021797   -0.000005225
     11        1          -0.000053489   -0.000017294   -0.000001557
     12        1           0.000026153   -0.000018488    0.000019982
     13        1          -0.000074812   -0.000035059   -0.000000617
 -------------------------------------------------------------------
 Cartesian Forces:  Max     0.000741770 RMS     0.000205160
 -----------------------------------------------------------------------------------------------
                       Internal Coordinate Forces (Hartree/Bohr or radian)
  Cent   Atom   N1       Length/X         N2         Alpha/Y        N3         Beta/Z          J
 -----------------------------------------------------------------------------------------------
      1  C 
      2  C        1  -0.000067(     1)
      3  C        1   0.000040(     2)      2   0.000094(    13)
      4  C        1  -0.000008(     3)      2   0.000159(    14)      3  -0.000135(    24)     0
      5  H        1  -0.000002(     4)      2   0.000094(    15)      3   0.000169(    25)     0
      6  H        3   0.000003(     5)      1  -0.000043(    16)      2   0.000083(    26)     0
      7  H        3  -0.000007(     6)      1  -0.000131(    17)      6   0.000063(    27)     0
      8  H        4  -0.000008(     7)      1  -0.000003(    18)      2   0.000053(    28)     0
      9  H        4   0.000005(     8)      1  -0.000054(    19)      8  -0.000016(    29)     0
     10  C        2   0.000067(     9)      1  -0.000074(    20)      3   0.000132(    30)     0
     11  H        2  -0.000009(    10)      1   0.000004(    21)     10   0.000104(    31)     0
     12  H       10   0.000013(    11)      2   0.000056(    22)      1   0.000178(    32)     0
     13  H       10  -0.000004(    12)      2   0.000047(    23)     12   0.000139(    33)     0
 -----------------------------------------------------------------------------------------------
 Internal  Forces:  Max     0.000178391 RMS     0.000082920

 GradGradGradGradGradGradGradGradGradGradGradGradGradGradGradGradGradGrad
 Berny optimization.
 Search for a local minimum.
 Step number   3 out of a maximum of   43
 All quantities printed in internal units (Hartrees-Bohrs-Radians)
 Update second derivatives using D2CorN and points    1    2    3
 DE= -7.03D-06 DEPred=-5.17D-06 R= 1.36D+00
 TightC=F SS=  1.41D+00  RLast= 2.90D-02 DXNew= 1.6818D-01 8.6978D-02
 Trust test= 1.36D+00 RLast= 2.90D-02 DXMaxT set to 1.00D-01
 ITU=  1  1  0
     Eigenvalues ---    0.00600   0.03491   0.05068   0.06005   0.06610
     Eigenvalues ---    0.10863   0.13109   0.14807   0.17147   0.17791
     Eigenvalues ---    0.19824   0.20694   0.22529   0.32697   0.34488
     Eigenvalues ---    0.35048   0.35443   0.35593   0.35642   0.35735
     Eigenvalues ---    0.35808   0.35813   0.35834   0.39603   0.43360
     Eigenvalues ---    0.46031   0.48186   0.48680   0.49421   0.59516
     Eigenvalues ---    0.68168   1.27440   2.39036
 RFO step:  Lambda=-3.72885423D-06 EMin= 5.99743562D-03
 Quartic linear search produced a step of  0.21166.
 Variable       Old X    -DE/DX   Delta X   Delta X   Delta X     New X
                                 (Linear)    (Quad)   (Total)
    R2        2.79560  -0.00007  -0.00012  -0.00037  -0.00050   2.79510
    R3        2.87057   0.00004   0.00028   0.00063   0.00091   2.87148
    R4        2.83743  -0.00001   0.00011   0.00033   0.00044   2.83786
    R5        2.04882  -0.00000  -0.00009  -0.00007  -0.00015   2.04867
    R6        2.04547   0.00000  -0.00003  -0.00000  -0.00003   2.04544
    R7        2.04359  -0.00001   0.00001  -0.00003  -0.00002   2.04358
    R8        2.04414  -0.00001   0.00000  -0.00003  -0.00003   2.04411
    R9        2.04317   0.00001   0.00000   0.00002   0.00002   2.04319
   R10        2.51442   0.00007   0.00007   0.00020   0.00027   2.51469
   R11        2.05618  -0.00001  -0.00001  -0.00004  -0.00005   2.05613
   R12        2.04735   0.00001  -0.00000   0.00005   0.00005   2.04740
   R13        2.04753  -0.00000  -0.00004  -0.00004  -0.00009   2.04745
    A3        2.10021   0.00009   0.00012  -0.00062  -0.00050   2.09971
    A4        2.14628   0.00016  -0.00001   0.00055   0.00054   2.14682
    A5        1.98209   0.00009  -0.00006   0.00038   0.00032   1.98240
    A6        2.03914  -0.00004  -0.00033  -0.00024  -0.00057   2.03857
    A7        2.05947  -0.00013  -0.00002  -0.00085  -0.00086   2.05861
    A8        2.06638  -0.00000  -0.00004  -0.00008  -0.00012   2.06626
    A9        2.05079  -0.00005  -0.00018  -0.00058  -0.00075   2.05003
   A10        2.22267  -0.00007   0.00042  -0.00005   0.00037   2.22304
   A11        1.99778   0.00000  -0.00014   0.00010  -0.00004   1.99774
   A12        2.13171   0.00006   0.00007   0.00025   0.00032   2.13203
   A13        2.11162   0.00005  -0.00016   0.00002  -0.00015   2.11148
    D4        1.24551  -0.00014  -0.00015  -0.00067  -0.00082   1.24469
    D5       -2.45521   0.00017  -0.00001   0.00058   0.00056  -2.45465
    D6        0.08623   0.00008  -0.00058   0.00057  -0.00001   0.08622
    D7       -2.50464   0.00006   0.00040   0.00105   0.00145  -2.50319
    D8       -0.01428   0.00005   0.00023   0.00208   0.00230  -0.01198
    D9        2.50761  -0.00002  -0.00034  -0.00122  -0.00156   2.50605
   D10       -1.40384   0.00013   0.00569   0.01373   0.01942  -1.38442
   D11        3.13262   0.00010  -0.00068   0.00127   0.00058   3.13320
   D12       -0.04228   0.00018  -0.00185   0.00385   0.00200  -0.04028
   D13       -3.11929   0.00014   0.00042   0.00125   0.00167  -3.11762
         Item               Value     Threshold  Converged?
 Maximum Force            0.000178     0.000450     YES
 RMS     Force            0.000083     0.000300     YES
 Maximum Displacement     0.019419     0.001800     NO 
 RMS     Displacement     0.003477     0.001200     NO 
 Predicted change in Energy=-1.892595D-06
 GradGradGradGradGradGradGradGradGradGradGradGradGradGradGradGradGradGrad

 ---------------------------------------------------------------------------------------------------
                            Z-MATRIX (ANGSTROMS AND DEGREES)
   CD    Cent   Atom    N1       Length/X        N2       Alpha/Y        N3        Beta/Z          J
 ---------------------------------------------------------------------------------------------------
      1      1  C 
      2      2  C        1   1.479104(     1)
      3      3  C        1   1.519521(     2)      2  120.304(    13)
      4      4  C        1   1.501733(     3)      2  123.004(    14)      3   71.316(    24)      0
      5      5  H        1   1.084110(     4)      2  113.583(    15)      3 -140.641(    25)      0
      6      6  H        3   1.082398(     5)      1  116.801(    16)      2    4.940(    26)      0
      7      7  H        3   1.081414(     6)      1  117.949(    17)      6 -143.422(    27)      0
      8      8  H        4   1.081698(     7)      1  118.388(    18)      2   -0.686(    28)      0
      9      9  H        4   1.081208(     8)      1  117.458(    19)      8  143.586(    29)      0
     10     10  C        2   1.330715(     9)      1  127.371(    20)      3  -79.321(    30)      0
     11     11  H        2   1.088056(    10)      1  114.462(    21)     10  179.519(    31)      0
     12     12  H       10   1.083436(    11)      2  122.156(    22)      1   -2.308(    32)      0
     13     13  H       10   1.083462(    12)      2  120.979(    23)     12 -178.627(    33)      0
 ---------------------------------------------------------------------------------------------------
                         Z-Matrix orientation:                         
 ---------------------------------------------------------------------
 Center     Atomic      Atomic             Coordinates (Angstroms)
 Number     Number       Type             X           Y           Z
 ---------------------------------------------------------------------
      1          6           0        0.000000    0.000000    0.000000
      2          6           0        0.000000    0.000000    1.479104
      3          6           0        1.311890    0.000000   -0.766739
      4          6           0        0.403455   -1.193034   -0.817983
      5          1           0       -0.768212    0.630095   -0.433734
      6          1           0        2.218940   -0.083193   -0.181996
      7          1           0        1.388564    0.633210   -1.640022
      8          1           0        0.718460   -2.088934   -0.300099
      9          1           0       -0.144355   -1.379660   -1.731267
     10          6           0        0.195967   -1.039236    2.286811
     11          1           0       -0.175346    0.974743    1.929653
     12          1           0        0.347671   -2.043062    1.908457
     13          1           0        0.188516   -0.917966    3.363439
 ---------------------------------------------------------------------
                    Distance matrix (angstroms):
                    1          2          3          4          5
     1  C    0.000000
     2  C    1.479104   0.000000
     3  C    1.519521   2.600936   0.000000
     4  C    1.501733   2.619679   1.500403   0.000000
     5  H    1.084110   2.155486   2.198803   2.200965   0.000000
     6  H    2.227945   2.773062   1.082398   2.220858   3.081433
     7  H    2.240254   3.472465   1.081414   2.231895   2.471199
     8  H    2.229325   2.836441   2.221162   1.081698   3.101801
     9  H    2.218465   3.497254   2.225854   1.081208   2.472227
    10  C    2.519507   1.330715   3.413131   3.115518   3.334317
    11  H    2.168970   1.088056   3.229942   3.547362   2.460868
    12  H    2.817301   2.116441   3.501499   2.856420   3.725160
    13  H    3.491550   2.104500   4.377557   4.195969   4.210742
                    6          7          8          9         10
     6  H    0.000000
     7  H    1.824444   0.000000
     8  H    2.507665   3.107169   0.000000
     9  H    3.109056   2.531761   1.815423   0.000000
    10  C    3.331883   4.431634   2.840241   4.046808   0.000000
    11  H    3.363168   3.912165   3.893174   4.352759   2.078833
    12  H    3.422387   4.564821   2.239935   3.732262   1.083436
    13  H    4.170082   5.374094   3.882463   5.126402   1.083462
                   11         12         13
    11  H    0.000000
    12  H    3.062866   0.000000
    13  H    2.402184   1.846116   0.000000
 Symmetry turned off by external request.
 Stoichiometry    C5H8
 Framework group  C1[X(C5H8)]
 Deg. of freedom    33
 Full point group                 C1      NOp   1
 Rotational constants (GHZ):          11.5435569           3.6662887           3.3485197
 Standard basis: def2TZVP (5D, 7F)
 The following finite field(s) will be applied:
 An electric field of              0.0035 -0.0019  0.0063
   203 basis functions,   319 primitive gaussians,   228 cartesian basis functions
    19 alpha electrons       19 beta electrons
       nuclear repulsion energy       165.1476769387 Hartrees.
 NAtoms=   13 NActive=   13 NUniq=   13 SFac= 1.00D+00 NAtFMM=   60 NAOKFM=F Big=F
 Integral buffers will be    131072 words long.
 Raffenetti 2 integral format.
 Two-electron integral symmetry is turned off.
 One-electron integrals computed using PRISM.
   1 Symmetry operations used in ECPInt.
 ECPInt:  NShTT=    3828 NPrTT=   11160 LenC2=    3810 LenP2D=    9475.
 LDataN:  DoStor=T MaxTD1= 6 Len=  172
 NBasis=   203 RedAO= T EigKep=  1.48D-04  NBF=   203
 NBsUse=   203 1.00D-06 EigRej= -1.00D+00 NBFU=   203
 The nuclear repulsion energy is now       165.5051685646 hartrees.
 Initial guess from the checkpoint file:  "checkpoint.chk"
 B after Tr=     0.001603   -0.002924    0.001175
         Rot=    0.999996    0.000586   -0.001520   -0.002517 Ang=   0.34 deg.
 Requested convergence on RMS density matrix=1.00D-08 within 128 cycles.
 Requested convergence on MAX density matrix=1.00D-06.
 Requested convergence on             energy=1.00D-06.
 No special actions if energy rises.
 SCF Done:  E(RB3LYP) =  -195.370251594     A.U. after    8 cycles
            NFock=  8  Conv=0.76D-08     -V/T= 2.0057
   1 Symmetry operations used in ECPInt.
 ECPInt:  NShTT=    3828 NPrTT=   11160 LenC2=    3810 LenP2D=    9475.
 LDataN:  DoStor=T MaxTD1= 7 Len=  274
 Calling FoFJK, ICntrl=      2127 FMM=F ISym2X=0 I1Cent= 0 IOpClX= 0 NMat=1 NMatS=1 NMatT=0.
 -------------------------------------------------------------------
 Center     Atomic                   Forces (Hartrees/Bohr)
 Number     Number              X              Y              Z
 -------------------------------------------------------------------
      1        6          -0.000502353   -0.000532378    0.000097764
      2        6           0.000460703    0.000264865    0.000041116
      3        6           0.000040571    0.000231559   -0.000120059
      4        6           0.000077037    0.000066946   -0.000021320
      5        1           0.000063801    0.000024968   -0.000019789
      6        1          -0.000019108    0.000016872    0.000020986
      7        1           0.000006375   -0.000007753   -0.000010531
      8        1          -0.000011198   -0.000012028   -0.000001080
      9        1          -0.000027374    0.000003039    0.000012847
     10        6          -0.000059903    0.000009865   -0.000019563
     11        1          -0.000065912   -0.000041494   -0.000022235
     12        1          -0.000047661   -0.000018371    0.000031612
     13        1           0.000085021   -0.000006089    0.000010252
 -------------------------------------------------------------------
 Cartesian Forces:  Max     0.000532378 RMS     0.000155182
 -----------------------------------------------------------------------------------------------
                       Internal Coordinate Forces (Hartree/Bohr or radian)
  Cent   Atom   N1       Length/X         N2         Alpha/Y        N3         Beta/Z          J
 -----------------------------------------------------------------------------------------------
      1  C 
      2  C        1   0.000041(     1)
      3  C        1   0.000079(     2)      2   0.000165(    13)
      4  C        1  -0.000031(     3)      2   0.000118(    14)      3  -0.000092(    24)     0
      5  H        1  -0.000023(     4)      2   0.000065(    15)      3   0.000112(    25)     0
      6  H        3  -0.000006(     5)      1  -0.000056(    16)      2  -0.000050(    26)     0
      7  H        3   0.000004(     6)      1   0.000020(    17)      6  -0.000018(    27)     0
      8  H        4   0.000006(     7)      1   0.000010(    18)      2  -0.000015(    28)     0
      9  H        4   0.000002(     8)      1  -0.000041(    19)      8  -0.000041(    29)     0
     10  C        2   0.000022(     9)      1   0.000050(    20)      3  -0.000030(    30)     0
     11  H        2  -0.000036(    10)      1  -0.000017(    21)     10   0.000135(    31)     0
     12  H       10  -0.000001(    11)      2   0.000065(    22)      1  -0.000233(    32)     0
     13  H       10   0.000009(    12)      2   0.000045(    23)     12  -0.000145(    33)     0
 -----------------------------------------------------------------------------------------------
 Internal  Forces:  Max     0.000233180 RMS     0.000076154

 GradGradGradGradGradGradGradGradGradGradGradGradGradGradGradGradGradGrad
 Berny optimization.
 Search for a local minimum.
 Step number   4 out of a maximum of   43
 All quantities printed in internal units (Hartrees-Bohrs-Radians)
 Update second derivatives using D2CorN and points    1    2    3    4
 DE= -1.50D-06 DEPred=-1.89D-06 R= 7.92D-01
 TightC=F SS=  1.41D+00  RLast= 2.00D-02 DXNew= 1.6818D-01 5.9924D-02
 Trust test= 7.92D-01 RLast= 2.00D-02 DXMaxT set to 1.00D-01
 ITU=  1  1  1  0
     Eigenvalues ---    0.00640   0.03516   0.05065   0.06004   0.06675
     Eigenvalues ---    0.10855   0.13111   0.14802   0.17149   0.17792
     Eigenvalues ---    0.19840   0.20711   0.22528   0.32694   0.34491
     Eigenvalues ---    0.35048   0.35443   0.35593   0.35642   0.35735
     Eigenvalues ---    0.35808   0.35813   0.35834   0.39601   0.43359
     Eigenvalues ---    0.46031   0.48185   0.48680   0.49421   0.59514
     Eigenvalues ---    0.68166   1.27440   2.39033
 RFO step:  Lambda=-5.44255437D-07 EMin= 6.39668905D-03
 Quartic linear search produced a step of -0.19461.
 Variable       Old X    -DE/DX   Delta X   Delta X   Delta X     New X
                                 (Linear)    (Quad)   (Total)
    R2        2.79510   0.00004   0.00010   0.00001   0.00011   2.79521
    R3        2.87148   0.00008  -0.00018   0.00040   0.00022   2.87170
    R4        2.83786  -0.00003  -0.00009   0.00006  -0.00002   2.83784
    R5        2.04867  -0.00002   0.00003  -0.00008  -0.00005   2.04862
    R6        2.04544  -0.00001   0.00001  -0.00002  -0.00001   2.04543
    R7        2.04358   0.00000   0.00000   0.00001   0.00001   2.04359
    R8        2.04411   0.00001   0.00001   0.00001   0.00002   2.04413
    R9        2.04319   0.00000  -0.00000   0.00001   0.00000   2.04319
   R10        2.51469   0.00002  -0.00005   0.00008   0.00003   2.51472
   R11        2.05613  -0.00004   0.00001  -0.00010  -0.00009   2.05604
   R12        2.04740  -0.00000  -0.00001   0.00001  -0.00000   2.04740
   R13        2.04745   0.00001   0.00002   0.00002   0.00003   2.04748
    A3        2.09971   0.00017   0.00010   0.00013   0.00023   2.09993
    A4        2.14682   0.00012  -0.00010   0.00030   0.00019   2.14701
    A5        1.98240   0.00006  -0.00006   0.00006  -0.00001   1.98240
    A6        2.03857  -0.00006   0.00011  -0.00034  -0.00023   2.03834
    A7        2.05861   0.00002   0.00017  -0.00002   0.00015   2.05875
    A8        2.06626   0.00001   0.00002  -0.00004  -0.00001   2.06624
    A9        2.05003  -0.00004   0.00015  -0.00032  -0.00017   2.04986
   A10        2.22304   0.00005  -0.00007   0.00026   0.00019   2.22323
   A11        1.99774  -0.00002   0.00001  -0.00017  -0.00016   1.99757
   A12        2.13203   0.00007  -0.00006   0.00025   0.00019   2.13222
   A13        2.11148   0.00005   0.00003  -0.00000   0.00003   2.11150
    D4        1.24469  -0.00009   0.00016  -0.00005   0.00011   1.24480
    D5       -2.45465   0.00011  -0.00011   0.00075   0.00064  -2.45401
    D6        0.08622  -0.00005   0.00000  -0.00014  -0.00013   0.08608
    D7       -2.50319  -0.00002  -0.00028   0.00038   0.00010  -2.50309
    D8       -0.01198  -0.00001  -0.00045   0.00047   0.00003  -0.01195
    D9        2.50605  -0.00004   0.00030  -0.00070  -0.00040   2.50565
   D10       -1.38442  -0.00003  -0.00378   0.00280  -0.00097  -1.38539
   D11        3.13320   0.00014  -0.00011  -0.00002  -0.00013   3.13307
   D12       -0.04028  -0.00023  -0.00039  -0.00165  -0.00204  -0.04232
   D13       -3.11762  -0.00014  -0.00032  -0.00015  -0.00047  -3.11810
         Item               Value     Threshold  Converged?
 Maximum Force            0.000233     0.000450     YES
 RMS     Force            0.000076     0.000300     YES
 Maximum Displacement     0.002042     0.001800     NO 
 RMS     Displacement     0.000438     0.001200     YES
 Predicted change in Energy=-4.112248D-07
 GradGradGradGradGradGradGradGradGradGradGradGradGradGradGradGradGradGrad

 ---------------------------------------------------------------------------------------------------
                            Z-MATRIX (ANGSTROMS AND DEGREES)
   CD    Cent   Atom    N1       Length/X        N2       Alpha/Y        N3        Beta/Z          J
 ---------------------------------------------------------------------------------------------------
      1      1  C 
      2      2  C        1   1.479163(     1)
      3      3  C        1   1.519639(     2)      2  120.317(    13)
      4      4  C        1   1.501720(     3)      2  123.015(    14)      3   71.322(    24)      0
      5      5  H        1   1.084082(     4)      2  113.583(    15)      3 -140.604(    25)      0
      6      6  H        3   1.082393(     5)      1  116.788(    16)      2    4.932(    26)      0
      7      7  H        3   1.081419(     6)      1  117.958(    17)      6 -143.417(    27)      0
      8      8  H        4   1.081707(     7)      1  118.387(    18)      2   -0.685(    28)      0
      9      9  H        4   1.081211(     8)      1  117.449(    19)      8  143.563(    29)      0
     10     10  C        2   1.330732(     9)      1  127.382(    20)      3  -79.377(    30)      0
     11     11  H        2   1.088008(    10)      1  114.452(    21)     10  179.512(    31)      0
     12     12  H       10   1.083436(    11)      2  122.167(    22)      1   -2.425(    32)      0
     13     13  H       10   1.083479(    12)      2  120.980(    23)     12 -178.654(    33)      0
 ---------------------------------------------------------------------------------------------------
                         Z-Matrix orientation:                         
 ---------------------------------------------------------------------
 Center     Atomic      Atomic             Coordinates (Angstroms)
 Number     Number       Type             X           Y           Z
 ---------------------------------------------------------------------
      1          6           0        0.000000    0.000000    0.000000
      2          6           0        0.000000    0.000000    1.479163
      3          6           0        1.311818    0.000000   -0.767097
      4          6           0        0.403273   -1.192917   -0.818220
      5          1           0       -0.767788    0.630575   -0.433717
      6          1           0        2.218867   -0.083075   -0.182345
      7          1           0        1.388430    0.633137   -1.640443
      8          1           0        0.718191   -2.088955   -0.300502
      9          1           0       -0.144953   -1.379373   -1.731292
     10          6           0        0.194928   -1.039289    2.287079
     11          1           0       -0.174275    0.974967    1.929529
     12          1           0        0.343837   -2.043701    1.909170
     13          1           0        0.189865   -0.917433    3.363672
 ---------------------------------------------------------------------
                    Distance matrix (angstroms):
                    1          2          3          4          5
     1  C    0.000000
     2  C    1.479163   0.000000
     3  C    1.519639   2.601259   0.000000
     4  C    1.501720   2.619856   1.500373   0.000000
     5  H    1.084082   2.155512   2.198528   2.200988   0.000000
     6  H    2.227896   2.773244   1.082393   2.220916   3.081005
     7  H    2.240458   3.472829   1.081419   2.231829   2.470925
     8  H    2.229313   2.836678   2.221224   1.081707   3.101891
     9  H    2.218344   3.497242   2.225875   1.081211   2.472148
    10  C    2.519692   1.330732   3.414023   3.116070   3.334366
    11  H    2.168874   1.088008   3.229678   3.547310   2.460853
    12  H    2.817777   2.116564   3.503727   2.857625   3.725128
    13  H    3.491708   2.104544   4.377638   4.196386   4.211127
                    6          7          8          9         10
     6  H    0.000000
     7  H    1.824455   0.000000
     8  H    2.507897   3.107161   0.000000
     9  H    3.109223   2.531741   1.815402   0.000000
    10  C    3.332976   4.432481   2.840983   4.047033   0.000000
    11  H    3.362528   3.911981   3.893219   4.352630   2.078793
    12  H    3.425526   4.566879   2.241615   3.732721   1.083436
    13  H    4.169801   5.374197   3.883010   5.126807   1.083479
                   11         12         13
    11  H    0.000000
    12  H    3.062876   0.000000
    13  H    2.402195   1.846013   0.000000
 Symmetry turned off by external request.
 Stoichiometry    C5H8
 Framework group  C1[X(C5H8)]
 Deg. of freedom    33
 Full point group                 C1      NOp   1
 Rotational constants (GHZ):          11.5456032           3.6652720           3.3474681
 Standard basis: def2TZVP (5D, 7F)
 The following finite field(s) will be applied:
 An electric field of              0.0035 -0.0019  0.0063
   203 basis functions,   319 primitive gaussians,   228 cartesian basis functions
    19 alpha electrons       19 beta electrons
       nuclear repulsion energy       165.1394019080 Hartrees.
 NAtoms=   13 NActive=   13 NUniq=   13 SFac= 1.00D+00 NAtFMM=   60 NAOKFM=F Big=F
 Integral buffers will be    131072 words long.
 Raffenetti 2 integral format.
 Two-electron integral symmetry is turned off.
 One-electron integrals computed using PRISM.
   1 Symmetry operations used in ECPInt.
 ECPInt:  NShTT=    3828 NPrTT=   11160 LenC2=    3810 LenP2D=    9475.
 LDataN:  DoStor=T MaxTD1= 6 Len=  172
 NBasis=   203 RedAO= T EigKep=  1.48D-04  NBF=   203
 NBsUse=   203 1.00D-06 EigRej= -1.00D+00 NBFU=   203
 The nuclear repulsion energy is now       165.4967996385 hartrees.
 Initial guess from the checkpoint file:  "checkpoint.chk"
 B after Tr=    -0.000100    0.000417   -0.000078
         Rot=    1.000000   -0.000026    0.000018    0.000205 Ang=  -0.02 deg.
 Requested convergence on RMS density matrix=1.00D-08 within 128 cycles.
 Requested convergence on MAX density matrix=1.00D-06.
 Requested convergence on             energy=1.00D-06.
 No special actions if energy rises.
 SCF Done:  E(RB3LYP) =  -195.370251941     A.U. after    6 cycles
            NFock=  6  Conv=0.68D-08     -V/T= 2.0057
   1 Symmetry operations used in ECPInt.
 ECPInt:  NShTT=    3828 NPrTT=   11160 LenC2=    3810 LenP2D=    9475.
 LDataN:  DoStor=T MaxTD1= 7 Len=  274
 Calling FoFJK, ICntrl=      2127 FMM=F ISym2X=0 I1Cent= 0 IOpClX= 0 NMat=1 NMatS=1 NMatT=0.
 -------------------------------------------------------------------
 Center     Atomic                   Forces (Hartrees/Bohr)
 Number     Number              X              Y              Z
 -------------------------------------------------------------------
      1        6          -0.000532354   -0.000513916    0.000087262
      2        6           0.000508921    0.000255983   -0.000011853
      3        6           0.000029858    0.000216385   -0.000040801
      4        6           0.000037205    0.000041856   -0.000007632
      5        1           0.000017818    0.000009105   -0.000023337
      6        1          -0.000002464   -0.000007372    0.000003899
      7        1          -0.000008544    0.000008346    0.000008781
      8        1          -0.000005825   -0.000003256    0.000001330
      9        1          -0.000008389   -0.000000378    0.000001929
     10        6          -0.000044696    0.000004937   -0.000023866
     11        1          -0.000006057   -0.000000718   -0.000001286
     12        1           0.000023060   -0.000001615    0.000003136
     13        1          -0.000008534   -0.000009356    0.000002436
 -------------------------------------------------------------------
 Cartesian Forces:  Max     0.000532354 RMS     0.000155008
 -----------------------------------------------------------------------------------------------
                       Internal Coordinate Forces (Hartree/Bohr or radian)
  Cent   Atom   N1       Length/X         N2         Alpha/Y        N3         Beta/Z          J
 -----------------------------------------------------------------------------------------------
      1  C 
      2  C        1  -0.000031(     1)
      3  C        1   0.000030(     2)      2   0.000046(    13)
      4  C        1  -0.000022(     3)      2   0.000058(    14)      3  -0.000067(    24)     0
      5  H        1   0.000002(     4)      2   0.000050(    15)      3   0.000034(    25)     0
      6  H        3   0.000001(     5)      1  -0.000010(    16)      2   0.000028(    26)     0
      7  H        3  -0.000003(     6)      1  -0.000024(    17)      6   0.000015(    27)     0
      8  H        4   0.000002(     7)      1  -0.000001(    18)      2  -0.000000(    28)     0
      9  H        4   0.000003(     8)      1  -0.000010(    19)      8  -0.000012(    29)     0
     10  C        2  -0.000011(     9)      1  -0.000043(    20)      3  -0.000005(    30)     0
     11  H        2  -0.000000(    10)      1  -0.000003(    21)     10   0.000011(    31)     0
     12  H       10   0.000004(    11)      2   0.000011(    22)      1   0.000056(    32)     0
     13  H       10   0.000001(    12)      2   0.000016(    23)     12   0.000018(    33)     0
 -----------------------------------------------------------------------------------------------
 Internal  Forces:  Max     0.000066594 RMS     0.000026971

 GradGradGradGradGradGradGradGradGradGradGradGradGradGradGradGradGradGrad
 Berny optimization.
 Search for a local minimum.
 Step number   5 out of a maximum of   43
 All quantities printed in internal units (Hartrees-Bohrs-Radians)
 Update second derivatives using D2CorN and points    1    2    3    4    5

 DE= -3.47D-07 DEPred=-4.11D-07 R= 8.43D-01
 Trust test= 8.43D-01 RLast= 2.52D-03 DXMaxT set to 1.00D-01
 ITU=  0  1  1  1  0
     Eigenvalues ---    0.00551   0.03955   0.05001   0.05991   0.07318
     Eigenvalues ---    0.10841   0.13209   0.14735   0.17156   0.17896
     Eigenvalues ---    0.20071   0.21664   0.22564   0.32610   0.34583
     Eigenvalues ---    0.35054   0.35449   0.35593   0.35643   0.35736
     Eigenvalues ---    0.35809   0.35813   0.35834   0.39512   0.43297
     Eigenvalues ---    0.45987   0.48177   0.48677   0.49472   0.59523
     Eigenvalues ---    0.68107   1.27440   2.38947
 RFO step:  Lambda=-8.56174342D-08 EMin= 5.50766992D-03
 Quartic linear search produced a step of -0.09643.
 Variable       Old X    -DE/DX   Delta X   Delta X   Delta X     New X
                                 (Linear)    (Quad)   (Total)
    R2        2.79521  -0.00003  -0.00001  -0.00005  -0.00006   2.79515
    R3        2.87170   0.00003  -0.00002   0.00007   0.00005   2.87175
    R4        2.83784  -0.00002   0.00000  -0.00004  -0.00004   2.83780
    R5        2.04862   0.00000   0.00001   0.00001   0.00002   2.04864
    R6        2.04543   0.00000   0.00000   0.00000   0.00000   2.04543
    R7        2.04359  -0.00000  -0.00000  -0.00001  -0.00001   2.04358
    R8        2.04413   0.00000  -0.00000   0.00001   0.00000   2.04413
    R9        2.04319   0.00000  -0.00000   0.00001   0.00001   2.04320
   R10        2.51472  -0.00001  -0.00000  -0.00003  -0.00003   2.51469
   R11        2.05604  -0.00000   0.00001  -0.00000   0.00000   2.05604
   R12        2.04740   0.00000   0.00000   0.00001   0.00001   2.04740
   R13        2.04748   0.00000  -0.00000   0.00001   0.00001   2.04749
    A3        2.09993   0.00005  -0.00002  -0.00004  -0.00006   2.09987
    A4        2.14701   0.00006  -0.00002   0.00018   0.00016   2.14718
    A5        1.98240   0.00005   0.00000   0.00005   0.00005   1.98245
    A6        2.03834  -0.00001   0.00002   0.00003   0.00005   2.03839
    A7        2.05875  -0.00002  -0.00001  -0.00005  -0.00006   2.05869
    A8        2.06624  -0.00000   0.00000  -0.00001  -0.00001   2.06623
    A9        2.04986  -0.00001   0.00002  -0.00004  -0.00002   2.04984
   A10        2.22323  -0.00004  -0.00002  -0.00018  -0.00019   2.22304
   A11        1.99757  -0.00000   0.00002   0.00007   0.00008   1.99765
   A12        2.13222   0.00001  -0.00002  -0.00001  -0.00003   2.13219
   A13        2.11150   0.00002  -0.00000   0.00008   0.00008   2.11158
    D4        1.24480  -0.00007  -0.00001   0.00004   0.00003   1.24483
    D5       -2.45401   0.00003  -0.00006   0.00039   0.00033  -2.45368
    D6        0.08608   0.00003   0.00001   0.00035   0.00036   0.08645
    D7       -2.50309   0.00002  -0.00001  -0.00002  -0.00003  -2.50312
    D8       -0.01195  -0.00000  -0.00000   0.00018   0.00017  -0.01178
    D9        2.50565  -0.00001   0.00004  -0.00015  -0.00011   2.50554
   D10       -1.38539  -0.00000   0.00009  -0.00164  -0.00154  -1.38693
   D11        3.13307   0.00001   0.00001   0.00046   0.00048   3.13354
   D12       -0.04232   0.00006   0.00020   0.00056   0.00076  -0.04156
   D13       -3.11810   0.00002   0.00005  -0.00011  -0.00007  -3.11816
         Item               Value     Threshold  Converged?
 Maximum Force            0.000067     0.000450     YES
 RMS     Force            0.000027     0.000300     YES
 Maximum Displacement     0.001543     0.001800     YES
 RMS     Displacement     0.000329     0.001200     YES
 Predicted change in Energy=-5.201012D-08
 Optimization completed.
    -- Stationary point found.
                       ----------------------------
                       !   Optimized Parameters   !
                       ! (Angstroms and Degrees)  !
 ----------------------                            ----------------------
 !      Name          Value   Derivative information (Atomic Units)     !
 ------------------------------------------------------------------------
 !       R2          1.4792   -DE/DX =    0.0                           !
 !       R3          1.5196   -DE/DX =    0.0                           !
 !       R4          1.5017   -DE/DX =    0.0                           !
 !       R5          1.0841   -DE/DX =    0.0                           !
 !       R6          1.0824   -DE/DX =    0.0                           !
 !       R7          1.0814   -DE/DX =    0.0                           !
 !       R8          1.0817   -DE/DX =    0.0                           !
 !       R9          1.0812   -DE/DX =    0.0                           !
 !       R10         1.3307   -DE/DX =    0.0                           !
 !       R11         1.088    -DE/DX =    0.0                           !
 !       R12         1.0834   -DE/DX =    0.0                           !
 !       R13         1.0835   -DE/DX =    0.0                           !
 !       A3        120.3173   -DE/DX =    0.0                           !
 !       A4        123.0148   -DE/DX =    0.0001                        !
 !       A5        113.583    -DE/DX =    0.0001                        !
 !       A6        116.7882   -DE/DX =    0.0                           !
 !       A7        117.9577   -DE/DX =    0.0                           !
 !       A8        118.387    -DE/DX =    0.0                           !
 !       A9        117.4485   -DE/DX =    0.0                           !
 !       A10       127.3817   -DE/DX =    0.0                           !
 !       A11       114.4523   -DE/DX =    0.0                           !
 !       A12       122.1672   -DE/DX =    0.0                           !
 !       A13       120.9803   -DE/DX =    0.0                           !
 !       D4         71.3219   -DE/DX =   -0.0001                        !
 !       D5       -140.6042   -DE/DX =    0.0                           !
 !       D6          4.9323   -DE/DX =    0.0                           !
 !       D7       -143.4166   -DE/DX =    0.0                           !
 !       D8         -0.6849   -DE/DX =    0.0                           !
 !       D9        143.5632   -DE/DX =    0.0                           !
 !       D10       -79.3771   -DE/DX =    0.0                           !
 !       D11       179.5116   -DE/DX =    0.0                           !
 !       D12        -2.4248   -DE/DX =    0.0001                        !
 !       D13      -178.6539   -DE/DX =    0.0                           !
 ------------------------------------------------------------------------
 GradGradGradGradGradGradGradGradGradGradGradGradGradGradGradGradGradGrad

 ---------------------------------------------------------------------------------------------------
                            Z-MATRIX (ANGSTROMS AND DEGREES)
   CD    Cent   Atom    N1       Length/X        N2       Alpha/Y        N3        Beta/Z          J
 ---------------------------------------------------------------------------------------------------
      1      1  C 
      2      2  C        1   1.479163(     1)
      3      3  C        1   1.519639(     2)      2  120.317(    13)
      4      4  C        1   1.501720(     3)      2  123.015(    14)      3   71.322(    24)      0
      5      5  H        1   1.084082(     4)      2  113.583(    15)      3 -140.604(    25)      0
      6      6  H        3   1.082393(     5)      1  116.788(    16)      2    4.932(    26)      0
      7      7  H        3   1.081419(     6)      1  117.958(    17)      6 -143.417(    27)      0
      8      8  H        4   1.081707(     7)      1  118.387(    18)      2   -0.685(    28)      0
      9      9  H        4   1.081211(     8)      1  117.449(    19)      8  143.563(    29)      0
     10     10  C        2   1.330732(     9)      1  127.382(    20)      3  -79.377(    30)      0
[...]
    D9        2.50565  -0.00001   0.00000  -0.00031  -0.00031   2.50533
   D10       -1.38539  -0.00000   0.00000  -0.00161  -0.00161  -1.38700
   D11        3.13307   0.00001   0.00000   0.00088   0.00088   3.13394
   D12       -0.04232   0.00006   0.00000   0.00112   0.00112  -0.04120
   D13       -3.11810   0.00002   0.00000  -0.00044  -0.00044  -3.11854
         Item               Value     Threshold  Converged?
 Maximum Force            0.000067     0.000450     YES
 RMS     Force            0.000027     0.000300     YES
 Maximum Displacement     0.001614     0.001800     YES
 RMS     Displacement     0.000431     0.001200     YES
 Predicted change in Energy=-8.641852D-08
 Optimization completed.
    -- Stationary point found.
                       ----------------------------
                       !   Optimized Parameters   !
                       ! (Angstroms and Degrees)  !
 ----------------------                            ----------------------
 !      Name          Value   Derivative information (Atomic Units)     !
 ------------------------------------------------------------------------
 !       R2          1.4792   -DE/DX =    0.0                           !
 !       R3          1.5196   -DE/DX =    0.0                           !
 !       R4          1.5017   -DE/DX =    0.0                           !
 !       R5          1.0841   -DE/DX =    0.0                           !
 !       R6          1.0824   -DE/DX =    0.0                           !
 !       R7          1.0814   -DE/DX =    0.0                           !
 !       R8          1.0817   -DE/DX =    0.0                           !
 !       R9          1.0812   -DE/DX =    0.0                           !
 !       R10         1.3307   -DE/DX =    0.0                           !
 !       R11         1.088    -DE/DX =    0.0                           !
 !       R12         1.0834   -DE/DX =    0.0                           !
 !       R13         1.0835   -DE/DX =    0.0                           !
 !       A3        120.3173   -DE/DX =    0.0                           !
 !       A4        123.0148   -DE/DX =    0.0001                        !
 !       A5        113.583    -DE/DX =    0.0001                        !
 !       A6        116.7882   -DE/DX =    0.0                           !
 !       A7        117.9577   -DE/DX =    0.0                           !
 !       A8        118.387    -DE/DX =    0.0                           !
 !       A9        117.4485   -DE/DX =    0.0                           !
 !       A10       127.3817   -DE/DX =    0.0                           !
 !       A11       114.4523   -DE/DX =    0.0                           !
 !       A12       122.1672   -DE/DX =    0.0                           !
 !       A13       120.9803   -DE/DX =    0.0                           !
 !       D4         71.3219   -DE/DX =   -0.0001                        !
 !       D5       -140.6042   -DE/DX =    0.0                           !
 !       D6          4.9323   -DE/DX =    0.0                           !
 !       D7       -143.4166   -DE/DX =    0.0                           !
 !       D8         -0.6849   -DE/DX =    0.0                           !
 !       D9        143.5632   -DE/DX =    0.0                           !
 !       D10       -79.3771   -DE/DX =    0.0                           !
 !       D11       179.5116   -DE/DX =    0.0                           !
 !       D12        -2.4248   -DE/DX =    0.0001                        !
 !       D13      -178.6539   -DE/DX =    0.0                           !
 ------------------------------------------------------------------------
 GradGradGradGradGradGradGradGradGradGradGradGradGradGradGradGradGradGrad


 ----------------------------------------------------------------------

 Electric dipole moment (input orientation):
 (Debye = 10**-18 statcoulomb cm , SI units = C m)
                  (au)            (Debye)         (10**-30 SI)
   Tot        0.673459D+00      0.171176D+01      0.570982D+01
   x         -0.148062D+00     -0.376336D+00     -0.125532D+01
   y          0.234758D+00      0.596696D+00      0.199036D+01
   z         -0.613607D+00     -0.155963D+01     -0.520237D+01

 Dipole polarizability, Alpha (input orientation).
 (esu units = cm**3 , SI units = C**2 m**2 J**-1)
 Alpha(0;0):
               (au)            (10**-24 esu)      (10**-40 SI)
   iso        0.585021D+02      0.866911D+01      0.964569D+01
   aniso      0.220161D+02      0.326245D+01      0.362996D+01
   xx         0.480423D+02      0.711913D+01      0.792110D+01
   yx        -0.143941D+00     -0.213299D-01     -0.237327D-01
   yy         0.576022D+02      0.853577D+01      0.949733D+01
   zx        -0.325011D+01     -0.481617D+00     -0.535871D+00
   zy        -0.559973D+01     -0.829794D+00     -0.923270D+00
   zz         0.698617D+02      0.103524D+02      0.115186D+02

 ----------------------------------------------------------------------

 Dipole orientation:
     6          0.00000000         -0.00000000          0.00000000
     6         -0.61453558         -0.97437120         -2.54679431
     6          2.73497833          0.40590208          0.77576245
     6          0.99234126          2.61938287          0.45543892
     1         -1.18623640         -0.77196411          1.48113148
     1          4.15646434          0.09897915         -0.66261996
     1          3.28691362         -0.14498606          2.66471176
     1          1.28940709          3.84008912         -1.15704262
     1          0.34776419          3.59234438          2.13249067
     6         -0.66990570          0.31775653         -4.70344631
     1         -1.04876533         -2.98311261         -2.60757996
     1         -0.31473367          2.33279533         -4.77627263
     1         -1.11728062         -0.60667878         -6.47473008

 Electric dipole moment (dipole orientation):
 (Debye = 10**-18 statcoulomb cm , SI units = C m)
                  (au)            (Debye)         (10**-30 SI)
   Tot        0.673459D+00      0.171176D+01      0.570982D+01
   x          0.000000D+00      0.000000D+00      0.000000D+00
   y          0.000000D+00      0.000000D+00      0.000000D+00
   z          0.673459D+00      0.171176D+01      0.570982D+01

 Dipole polarizability, Alpha (dipole orientation).
 (esu units = cm**3 , SI units = C**2 m**2 J**-1)
 Alpha(0;0):
               (au)            (10**-24 esu)      (10**-40 SI)
   iso        0.585021D+02      0.866911D+01      0.964569D+01
   aniso      0.220161D+02      0.326245D+01      0.362996D+01
   xx         0.505927D+02      0.749707D+01      0.834161D+01
   yx         0.144588D+01      0.214257D+00      0.238393D+00
   yy         0.553191D+02      0.819745D+01      0.912089D+01
   zx         0.781974D+01      0.115877D+01      0.128930D+01
   zy        -0.683301D+00     -0.101255D+00     -0.112661D+00
   zz         0.695943D+02      0.103128D+02      0.114746D+02

 ----------------------------------------------------------------------
 1\1\GINC-BHC0069\Freq\RB3LYP\def2TZVP\C5H8\DHANAWAY\10-Jun-2022\1\\#N 
 Geom=AllCheck Guess=TCheck SCRF=Check GenChk RB3LYP/def2TZVP Freq\\int
 _zmat_initalOpt\\0,1\C\C,1,R2\C,1,R3,2,A3\C,1,R4,2,A4,3,D4,0\H,1,R5,2,
 A5,3,D5,0\H,3,R6,1,A6,2,D6,0\H,3,R7,1,A7,6,D7,0\H,4,R8,1,A8,2,D8,0\H,4
 ,R9,1,A9,8,D9,0\C,2,R10,1,A10,3,D10,0\H,2,R11,1,A11,10,D11,0\H,10,R12,
 2,A12,1,D12,0\H,10,R13,2,A13,12,D13,0\\R2=1.4791629\R3=1.51963907\R4=1
 .50171993\R5=1.08408198\R6=1.0823929\R7=1.08141863\R8=1.08170716\R9=1.
 081211\R10=1.33073158\R11=1.08800848\R12=1.08343554\R13=1.08347934\A3=
 120.31733219\A4=123.01476223\A5=113.58302392\A6=116.78820928\A7=117.95
 771639\A8=118.38704345\A9=117.44851953\A10=127.38168061\A11=114.452344
 23\A12=122.16715955\A13=120.98027175\D4=71.32187022\D5=-140.60416177\D
 6=4.93228627\D7=-143.41662591\D8=-0.68488401\D9=143.56315713\D10=-79.3
 7705787\D11=179.51160793\D12=-2.42481062\D13=-178.65387152\\Version=ES
 64L-G16RevA.03\HF=-195.3702519\RMSD=4.966e-09\RMSF=1.550e-04\ZeroPoint
 =0.1142734\Thermal=0.1196942\Dipole=-0.1480619,0.2347581,-0.6136067\Di
 poleDeriv=0.0213719,0.0321405,0.26674,0.1004959,0.0489555,-0.0496463,0
 .1291749,-0.0071274,-0.2390847,-0.1989685,-0.0190923,0.0135998,-0.0389
 334,0.163548,-0.1003313,-0.0847927,-0.085096,0.5550099,-0.0302721,-0.0
 58417,-0.0236952,-0.1191777,0.0168694,0.1456604,0.0424023,0.010591,0.0
 960436,0.1030093,-0.0203218,-0.0962443,-0.0235235,-0.0968024,-0.11198,
 0.0062862,-0.0692826,0.0096347,0.0084836,0.0745149,-0.0230553,0.079639
 1,0.0391489,-0.0459075,-0.0025168,0.0230283,-0.0360816,-0.0902487,-0.0
 331002,-0.0319235,-0.0065416,0.0487286,0.0313788,-0.1031588,0.0139696,
 0.0029964,0.0241946,-0.0253605,0.0310128,-0.0380217,0.0397301,0.036912
 6,0.0359951,0.0846004,-0.0376169,0.0519467,0.029525,-0.0396858,0.01184
 19,-0.0857031,0.0200965,-0.042791,0.0902411,0.0175745,0.0535077,-0.034
 1232,-0.0392201,-0.0038478,0.0328602,-0.0358666,-0.0540266,-0.0390926,
 -0.0113051,-0.3494216,-0.0175838,-0.0891638,-0.0543842,-0.0811918,0.24
 82693,0.03403,0.1313313,-0.1599999,0.1203088,0.0248726,0.0324173,0.044
 3881,-0.0897754,-0.0753654,0.0287827,-0.0815642,-0.0420563,0.1370392,0
 .0369075,0.0029327,0.0358119,-0.0795099,-0.0244392,0.0082157,-0.082889
 4,0.0265174,0.1490492,0.0100383,-0.0037147,0.0122531,0.043142,-0.03878
 15,0.0023992,0.0112907,-0.181632\Polar=48.0422803,-0.1439414,57.602236
 2,-3.2501106,-5.5997271,69.8616638\PG=C01 [X(C5H8)]\NImag=0\\0.4542587
 2,-0.19482013,0.40761820,0.02189733,-0.00872511,0.56387094,-0.07274663
 ,0.01118926,-0.00318499,0.17631922,0.01229949,-0.08510003,-0.00565971,
 -0.11487759,0.74691803,-0.01603366,0.00008201,-0.22638727,0.02215974,-
 0.11182671,0.63792814,-0.15559556,0.03133747,0.06007136,0.00167819,-0.
 00088536,0.01057458,0.57349419,-0.01427645,-0.01748732,0.03326926,-0.0
 0162439,-0.00554598,-0.00743991,0.08030010,0.37126572,0.04587332,0.003
 21013,-0.08431934,0.02602891,0.01562312,-0.02030186,0.08470801,-0.1909
 9487,0.52240047,-0.04355320,0.02986242,-0.00742318,-0.00413972,-0.0016
 9108,0.00904226,-0.10100906,-0.06479269,-0.01546485,0.33451104,0.07434
 783,-0.15233958,-0.07697849,0.00147354,0.00211397,-0.00427651,-0.10887
 346,-0.15417417,0.02668664,-0.00675096,0.62347200,0.01610360,-0.049323
 58,-0.11087343,-0.00195767,-0.03288470,-0.01223283,-0.03864084,-0.0012
 2303,-0.05294990,0.19308931,-0.01325949,0.54271791,-0.17898587,0.12003
 705,-0.08392282,0.00259359,-0.00209695,0.00319701,-0.02091025,0.016221
 75,-0.00865927,0.00177677,-0.00408208,0.00545542,0.19445381,0.12248999
 ,-0.13744557,0.06207706,-0.00172843,-0.00024369,0.00304462,-0.01003209
 ,0.00631877,-0.00627568,0.01820833,-0.01623261,0.01161325,-0.12962131,
 0.14452247,-0.08468039,0.06659398,-0.09703982,-0.02263797,0.02063972,-
 0.01395333,0.00923014,-0.00690170,0.00268622,0.01028959,-0.00856912,0.
 00368299,0.08314309,-0.06831958,0.10785762,-0.01765104,0.00003882,-0.0
 0988022,0.00176499,0.00204713,-0.00283483,-0.24083607,0.01704675,-0.13
 139138,-0.00699894,0.00056336,-0.00090581,-0.00212541,-0.00221044,0.00
 088286,0.26046967,0.00912941,-0.00493765,0.00653701,-0.00161393,0.0002
 5325,0.00143152,0.01868064,-0.04220342,0.02344928,-0.02492736,0.002953
 95,-0.01711371,0.00230312,0.00098591,-0.00135267,-0.01696616,0.0438667
 1,0.01685520,-0.00184270,0.00873688,0.00001402,-0.00177770,0.00241363,
 -0.13542304,0.02180794,-0.13395520,-0.00438291,0.00181939,-0.00603142,
 0.00279357,0.00121670,-0.00088684,0.13990071,-0.02051927,0.13665919,-0
 .00379981,-0.01303352,0.01715367,-0.00235582,-0.00246437,-0.00165778,-
 0.05025281,-0.00970316,0.00582567,-0.00388570,-0.00516515,0.00760527,0
 .00215255,0.00138640,0.00068550,0.00460476,0.01531812,-0.01957614,0.05
 248742,-0.00138360,0.00536529,-0.01307477,0.00249631,0.00143886,0.0003
 2211,-0.01205091,-0.13866516,0.14262704,0.00053915,-0.01490518,0.02201
 897,-0.00169197,-0.00009280,0.00073392,0.00016517,-0.00028527,-0.00052
 099,0.01440251,0.14655662,-0.00110839,0.00804154,-0.01178900,0.0024369
 8,0.00188919,0.00014638,0.00909291,0.14407610,-0.23749631,0.00167850,-
 0.00750119,0.01004500,-0.00142561,-0.00092925,0.00139516,0.00242257,0.
 00691435,-0.00927963,-0.01245613,-0.15106693,0.24693979,-0.00870717,0.
 01280341,-0.01102330,0.00083906,-0.00208896,-0.00143431,0.00815030,-0.
 02216269,0.01511402,-0.06441361,0.07178780,-0.04986773,0.00095769,0.00
 333284,0.00198685,0.00081079,0.00278547,0.00133136,-0.00082819,-0.0046
 0051,-0.00198283,0.06660782,0.00268148,-0.01379848,0.00608281,0.000928
 70,0.00093040,0.00269018,0.00479662,-0.01324122,0.00525119,0.06970234,
 -0.23713201,0.11278992,-0.00183458,-0.00181940,-0.00056061,-0.00046534
 ,0.00154867,0.00065586,0.00035154,-0.00154551,-0.00172079,-0.07395745,
 0.25663616,0.00596377,-0.01630505,0.01219403,0.00072248,0.00204976,0.0
 0038794,-0.00203185,0.00263245,-0.00531216,-0.04974193,0.11580305,-0.1
 1679646,-0.00080402,-0.00319166,-0.00121911,-0.00045436,-0.00131847,0.
 00100197,0.00070040,0.00122617,0.00077672,0.05050528,-0.12184955,0.119
 94574,0.01013419,0.00044277,0.01885835,0.00048947,0.00405266,0.0003198
 2,-0.01320518,-0.00135428,-0.02071772,-0.11418151,-0.02264628,-0.13197
 574,-0.00003182,-0.00183882,-0.00065721,-0.00042546,-0.00457591,-0.001
 23585,0.00135838,0.00241345,0.00126178,-0.00370891,-0.00172767,-0.0050
 7073,0.11990149,-0.00887231,-0.00575250,-0.01454618,-0.00109399,-0.002
 72522,0.00207604,-0.00787818,-0.00507805,-0.01467302,-0.02071424,-0.05
 607892,-0.03391749,0.00082695,0.00139320,-0.00076045,0.00049986,-0.002
 19995,-0.00109188,-0.00093036,0.00177538,0.00047011,0.01274201,0.00687
 249,0.02124592,0.02531740,0.06074535,-0.00890298,-0.00076945,-0.013365
 49,-0.00031190,-0.00272343,0.00010725,0.00649676,-0.00034493,0.0089081
 5,-0.13199872,-0.03751308,-0.25545298,0.00056118,0.00130574,0.00143393
 ,0.00111120,0.00203258,0.00092629,-0.00010939,-0.00112965,0.00027200,-
 0.00491975,-0.00278417,-0.00895513,0.13790917,0.04210858,0.26686155,0.
 00917380,-0.00099539,-0.00455877,-0.06211002,0.05947275,-0.03561867,-0
 .00161675,0.00129113,0.00127857,-0.00072766,0.00034351,0.00127518,-0.0
 0023846,0.00010651,0.00039777,0.00093922,-0.00032967,-0.00066888,0.000
 51999,-0.00005147,0.00025639,-0.00011134,-0.00039149,0.00004037,0.0000
 8343,-0.00018772,0.00002553,0.11686169,-0.00329070,0.00503603,0.011966
 26,0.06004096,-0.37421924,0.19282826,0.00396029,-0.00067271,-0.0037074
 1,0.00042484,0.00110618,0.00087953,0.00006223,0.00187395,-0.00230820,-
 0.00060887,0.00014892,0.00024956,-0.00024554,0.00009567,-0.00026525,0.
 00004447,0.00014636,-0.00058986,-0.00000268,0.00030533,-0.00007002,-0.
 10653437,0.73843307,-0.00069858,0.02588067,-0.02894764,-0.03930685,0.2
 0267136,-0.26111605,-0.00416441,0.00465564,-0.00007564,-0.00258853,0.0
 0112037,0.00213786,-0.00024052,-0.00108273,-0.00419944,0.00064864,-0.0
 0016916,0.00036658,0.00148851,-0.00093764,-0.00076960,0.00006423,-0.00
 041305,-0.00096445,0.00017629,-0.00018576,-0.00000559,0.02544233,-0.09
 169821,0.70350014,0.00244632,0.00265401,0.00161446,-0.04973710,0.04118
 308,0.01593018,0.00030954,-0.00168732,-0.00172482,0.00315077,-0.000131
 26,-0.00056724,0.00042878,-0.00054532,0.00058050,-0.00029725,0.0001543
 0,0.00032047,-0.00012285,0.00003337,0.00006655,0.00001796,0.00003367,0
 .00005366,-0.00048764,0.00030673,0.00024952,0.00623744,0.00464521,0.00
 336317,0.03443502,0.00014063,0.00146310,0.00059543,0.04077670,-0.26622
 122,-0.09685717,0.00040563,-0.00019922,-0.00083510,-0.00029434,0.00120
 399,0.00062595,-0.00005590,0.00056072,-0.00036205,0.00000670,-0.000004
 37,-0.00005767,0.00009946,-0.00006880,-0.00006187,-0.00010901,0.000058
 94,0.00021673,0.00012870,0.00013140,0.00001144,0.00505639,-0.02295721,
 -0.01147714,-0.04730261,0.28683420,0.00518306,-0.02951878,-0.01311960,
 0.01812038,-0.10043598,-0.10168905,0.00038528,-0.00006986,0.00048079,-
 0.00202580,0.00193513,-0.00426100,-0.00029927,0.00062902,0.00098093,0.
 00045130,0.00018147,-0.00003836,0.00009571,-0.00002417,-0.00009876,-0.
 00026741,-0.00000038,0.00044234,0.00122387,-0.00054062,-0.00085516,-0.
 00324791,0.01996031,0.00969988,-0.01899237,0.10460917,0.10878904,-0.00
 711776,-0.00111316,0.00100970,0.00501660,0.00609789,0.00120357,-0.0000
 5044,-0.00027425,0.00173986,-0.00045541,-0.00128188,-0.00048857,0.0001
 4898,0.00027362,-0.00072884,-0.00000261,-0.00021597,0.00001711,-0.0004
 3211,0.00019446,0.00022234,0.00041260,0.00019326,-0.00006547,0.0001109
 0,-0.00005404,-0.00005101,-0.03863386,0.03644432,0.01250743,0.01115946
 ,0.00295143,-0.00068669,0.02863049,-0.00123047,0.00049142,-0.00208504,
 0.00428970,-0.02232990,-0.01074258,0.00005232,-0.00021551,0.00007599,0
 .00011512,0.00015333,-0.00007716,-0.00002362,0.00011738,-0.00000302,-0
 .00002391,-0.00014311,0.00006776,-0.00001811,0.00019236,0.00010353,-0.
 00023443,0.00085514,-0.00010570,-0.00014352,0.00033545,-0.00005159,0.0
 3799150,-0.28949702,-0.08932892,0.00220808,-0.00186121,0.00329739,-0.0
 4320567,0.31192416,0.00068926,0.00007576,0.00002528,-0.00267889,0.0173
 5336,0.01269264,-0.00019987,0.00022102,0.00032202,-0.00019154,0.000531
 60,-0.00053680,-0.00007515,-0.00028324,0.00013932,-0.00001363,-0.00002
 332,0.00003460,0.00005410,-0.00013723,-0.00009675,0.00053361,-0.000177
 88,-0.00171326,-0.00011866,-0.00023702,0.00021037,0.01349137,-0.093287
 26,-0.09303056,-0.00088430,0.00315070,-0.00158087,-0.01445535,0.098151
 65,0.09054109,0.01214400,0.00159699,-0.00061159,0.00238818,-0.00104870
 ,-0.00484791,-0.00015609,0.00101550,-0.00261032,-0.00007376,0.00041503
 ,0.00087480,-0.00022035,0.00017871,0.00150811,-0.00025264,0.00025793,0
 .00005438,0.00055419,-0.00046597,-0.00046506,-0.00002701,-0.00031108,0
 .00018240,-0.00003733,0.00003788,-0.00005960,-0.03037747,0.00505983,0.
 00330831,-0.00754045,-0.00180379,0.00005984,0.00121316,0.00022302,0.00
 384904,0.02238557,0.00278483,-0.00311291,0.00054148,-0.00025683,0.0047
 3078,0.02866814,0.00018691,-0.00010171,-0.00043731,0.00031846,-0.00014
 094,-0.00012843,-0.00004469,0.00006167,0.00116978,-0.00009306,0.000016
 37,-0.00000699,0.00000218,0.00013852,0.00005044,-0.00034296,0.00048847
 ,0.00018620,-0.00006582,0.00027606,-0.00007204,0.00422832,-0.05979934,
 -0.03903543,-0.00155194,0.00105969,-0.00002271,-0.00001003,-0.00002249
 ,-0.02533815,-0.00515536,0.05640582,-0.00114154,0.00260059,0.00101448,
 0.00059575,-0.00491828,-0.01799559,-0.00009904,0.00031190,-0.00038724,
 -0.00028219,0.00020171,0.00055106,0.00027640,0.00019574,-0.00087761,0.
 00006293,-0.00004961,0.00005233,0.00019060,-0.00003684,-0.00004500,-0.
 00004002,0.00003649,0.00021183,0.00002663,0.00005176,-0.00008517,0.001
 88671,-0.03395771,-0.32659550,-0.00000977,0.00044156,0.00124983,-0.000
 22408,0.00069768,-0.00700709,-0.00124238,0.03442501,0.34991368\\0.0005
 3240,0.00051393,-0.00008744,-0.00050891,-0.00025612,0.00001202,-0.0000
 2992,-0.00021639,0.00004073,-0.00003721,-0.00004182,0.00000758,-0.0000
 1784,-0.00000908,0.00002333,0.00000251,0.00000737,-0.00000386,0.000008
 54,-0.00000834,-0.00000878,0.00000584,0.00000322,-0.00000130,0.0000083
 9,0.00000038,-0.00000191,0.00004471,-0.00000504,0.00002403,0.00000603,
 0.00000083,0.00000131,-0.00002307,0.00000172,-0.00000311,0.00000853,0.
 00000935,-0.00000260\\\@


 THE VALUE OF PHILOSOPHY IS, IN FACT, TO BE SOUGHT LARGELY IN ITS
 VERY UNCERTAINTY.  THE MAN WHO HAS NO TINCTURE OF PHILOSOPHY GOES
 THROUGH LIFE IMPRISONED IN THE PREJUDICES DERIVED FROM COMMON SENSE,
 FROM THE HABITUAL BELIEFS OF HIS AGE OR HIS NATION, AND FROM
 CONVICTIONS WHICH HAVE GROWN UP IN HIS MIND WITHOUT THE CO-OPERATION
 OR CONSENT OF HIS DELIBERATE REASON.  TO SUCH A MAN THE WORLD TENDS
 TO BE DEFINITE, FINITE, OBVIOUS; COMMON OBJECTS ROUSE NO QUESTIONS,
 AND UNFAMILIAR POSSIBILITIES ARE CONTEMPTUOUSLY REJECTED.

                             -- BERTRAND RUSSELL
 Job cpu time:       0 days  0 hours 27 minutes  8.6 seconds.
 Elapsed time:       0 days  0 hours  2 minutes 18.9 seconds.
 File lengths (MBytes):  RWF=     52 Int=      0 D2E=      0 Chk=     32 Scr=      1
 Normal termination of Gaussian 16 at Fri Jun 10 11:39:28 2022.
